Title
81359
    1CHL1    C3    1   4.932   5.238  10.212 -0.3830 -0.2129 -0.0382
    1CHL1    H3    2   4.855   5.314  10.186 -0.2274  0.2972  0.9517
    1CHL1    O3    3   4.937   5.222  10.350  0.5668 -0.4691 -0.4444
    1CHL1   H3'    4   4.920   5.131  10.375  1.1043 -0.2828  0.6895
    1CHL1    C4    5   4.898   5.101  10.143 -0.8412 -0.0603  0.7304
    1CHL1   H4A    6   4.957   5.019  10.190 -1.0886  1.2805  3.6203
    1CHL1   H4B    7   4.797   5.075  10.181 -0.3424  0.6582  2.6599
    1CHL1    C5    8   4.894   5.110   9.989  0.3276  0.0160 -0.0284
    1CHL1    C6    9   4.783   5.075   9.922  0.5362 -0.5639 -0.1109
    1CHL1    H6   10   4.694   5.034   9.973 -0.0350 -0.5703 -1.0915
    1CHL1    C7   11   4.781   5.082   9.769 -0.8901 -0.5697  0.5743
    1CHL1   H7A   12   4.732   4.992   9.728 -0.5792  0.1490 -1.5100
    1CHL1   H7B   13   4.726   5.173   9.736  1.0523  0.9039  1.1838
    1CHL1    C8   14   4.923   5.089   9.703 -0.2026 -0.2216  0.5384
    1CHL1    H8   15   4.976   4.993   9.722 -0.6080 -1.1422 -2.4570
    1CHL1   C14   16   4.919   5.111   9.555  0.5596 -0.5817  0.3938
    1CHL1   H14   17   4.872   5.210   9.540  3.5235  1.1171  1.5090
    1CHL1   C15   18   4.829   5.022   9.463  0.1525  0.2873 -0.3273
    1CHL1  H15A   19   4.856   4.925   9.512  0.0225  1.5852  2.5306
    1CHL1  H15B   20   4.720   5.045   9.472  0.3106  1.0454 -0.3626
    1CHL1   C16   21   4.892   5.047   9.322 -0.1506 -0.1461 -0.1737
    1CHL1  H16A   22   4.932   4.952   9.280  1.4236 -0.5928  2.1351
    1CHL1  H16B   23   4.817   5.095   9.256  0.0158  2.3282  1.2961
    1CHL1   C17   24   5.018   5.142   9.339  0.6516  0.0539  0.1033
    1CHL1   H17   25   4.972   5.243   9.329 -4.1749 -2.0383 -1.9138
    1CHL1   C13   26   5.057   5.126   9.488 -0.1605 -0.0639  0.3577
    1CHL1   C18   27   5.155   5.007   9.514 -0.4817  0.1139  0.1058
    1CHL1  H18A   28   5.112   4.924   9.453 -0.6467  0.1945  0.1118
    1CHL1  H18B   29   5.248   5.037   9.460 -1.5733  0.0893 -1.8769
    1CHL1  H18C   30   5.173   4.970   9.617 -2.4454 -2.1729 -0.2804
    1CHL1   C12   31   5.118   5.253   9.546  0.0061  1.1513 -0.0856
    1CHL1  H12A   32   5.224   5.272   9.520  0.2524 -0.6520 -0.5172
    1CHL1  H12B   33   5.059   5.344   9.520 -0.6207  1.2342  1.5275
    1CHL1   C11   34   5.137   5.240   9.694 -0.2857 -0.5493 -0.1268
    1CHL1  H11A   35   5.213   5.160   9.708  1.0247  0.3584 -1.8243
    1CHL1  H11B   36   5.175   5.335   9.736 -1.3542 -0.6250  1.0744
    1CHL1    C9   37   5.001   5.199   9.770  0.1155 -0.1527  0.3304
    1CHL1    H9   38   4.942   5.293   9.759 -1.3217 -0.9984  0.5293
    1CHL1   C10   39   5.022   5.170   9.925 -0.4028 -0.0865  0.6901
    1CHL1   C19   40   5.138   5.064   9.942 -0.2134 -0.0711  1.0175
    1CHL1  H19A   41   5.128   4.970   9.884  3.9089 -0.8809  1.3132
    1CHL1  H19B   42   5.239   5.102   9.914 -0.0810  0.0884  1.6832
    1CHL1  H19C   43   5.139   5.031  10.049 -2.0492 -0.8817  0.8152
    1CHL1    C1   44   5.047   5.301  10.002 -0.8531 -1.2783 -0.4031
    1CHL1   H1A   45   5.149   5.331   9.969 -0.6566 -1.3952  0.0924
    1CHL1   H1B   46   4.970   5.379   9.981  0.6919  1.0580  2.0100
    1CHL1    C2   47   5.066   5.277  10.156  0.1765  0.2721 -0.4031
    1CHL1   H2A   48   5.091   5.372  10.208  0.6576 -0.6663  1.1254
    1CHL1   H2B   49   5.143   5.198  10.168  0.2656  0.1220 -1.8114
    1CHL1   C20   50   5.121   5.130   9.227 -0.2897  0.2389 -0.0672
    1CHL1   H20   51   5.176   5.034   9.234  0.8397  0.9013  0.2952
    1CHL1   C21   52   5.227   5.247   9.242 -0.2648  1.4014 -0.2542
    1CHL1  H21A   53   5.203   5.352   9.268 -1.0007  0.6939  2.2662
    1CHL1  H21B   54   5.279   5.240   9.145  0.0473 -1.0969  0.0287
    1CHL1  H21C   55   5.296   5.193   9.311 -2.4070 -1.7198 -0.3286
    1CHL1   C22   56   5.060   5.148   9.094  0.3053  1.1031  0.3544
    1CHL1  H22A   57   5.142   5.149   9.019 -0.4694 -0.9605 -0.5998
    1CHL1  H22B   58   5.002   5.058   9.062  2.1715  0.4563 -1.3891
    1CHL1   C23   59   4.990   5.281   9.074 -0.6642 -0.4184  0.5951
    1CHL1  H23A   60   4.893   5.282   9.129  0.2790  0.5691  2.3420
    1CHL1  H23B   61   5.032   5.373   9.120  1.0387 -0.5754 -0.5549
    1CHL1   C24   62   4.980   5.304   8.918  0.3198 -1.2432  0.9336
    1CHL1  H24A   63   5.080   5.324   8.873 -1.5374  0.4097 -2.9033
    1CHL1  H24B   64   4.935   5.218   8.864  1.4417 -1.0412 -0.3806
    1CHL1   C25   65   4.901   5.431   8.861 -0.9309  0.7507 -0.5474
    1CHL1   H25   66   4.792   5.410   8.868 -0.6410 -0.3860  1.0297
    1CHL1   C26   67   4.917   5.557   8.950  0.2902  0.0602 -0.8445
    1CHL1  H26A   68   4.869   5.647   8.906 -0.6553  0.6127  1.2122
    1CHL1  H26B   69   4.883   5.540   9.054 -1.2467  0.0753 -1.3119
    1CHL1  H26C   70   5.025   5.582   8.956  0.2835 -0.2720  1.4450
    1CHL1   C27   71   4.942   5.459   8.719 -0.2377 -0.4195  0.8160
    1CHL1  H27A   72   5.035   5.519   8.708 -0.8050  0.2705 -0.4547
    1CHL1  H27B   73   4.936   5.372   8.650  1.3234  2.5154 -3.4451
    1CHL1  H27C   74   4.864   5.527   8.680  0.3096 -1.0936 -1.6266
    2CHL1    C3   75   5.602   5.886  10.316  0.7323 -0.0100 -0.0402
    2CHL1    H3   76   5.518   5.861  10.247  0.7499  0.5711 -0.2798
    2CHL1    O3   77   5.580   5.830  10.441 -0.0612 -0.0296 -0.4444
    2CHL1   H3'   78   5.663   5.847  10.486  0.1593 -0.7040 -0.5807
    2CHL1    C4   79   5.729   5.828  10.248  0.5315 -0.1384 -0.7819
    2CHL1   H4A   80   5.810   5.832  10.324 -0.1672 -0.3984 -0.0144
    2CHL1   H4B   81   5.702   5.721  10.235 -1.5705  0.0599  1.2343
    2CHL1    C5   82   5.751   5.896  10.122  0.7395 -0.1874  0.5601
    2CHL1    C6   83   5.746   5.822  10.009  0.8358 -0.7145  0.3943
    2CHL1    H6   84   5.727   5.714  10.021 -2.3484 -0.7242 -2.9340
    2CHL1    C7   85   5.780   5.872   9.871  0.1038  0.7623  0.4520
    2CHL1   H7A   86   5.862   5.811   9.828 -0.0403  0.4737  0.5869
    2CHL1   H7B   87   5.685   5.879   9.815 -0.2980  0.2921  1.0613
    2CHL1    C8   88   5.846   6.017   9.881  0.0498 -0.7571 -0.5276
    2CHL1    H8   89   5.955   6.016   9.906  0.0601  0.8899 -0.3489
    2CHL1   C14   90   5.830   6.077   9.744  0.7915 -0.4265 -0.6907
    2CHL1   H14   91   5.719   6.086   9.736  0.2155 -4.1283  0.9736
    2CHL1   C15   92   5.874   5.987   9.628  0.4005  0.0266 -0.6788
    2CHL1  H15A   93   5.981   5.957   9.629  0.2515 -0.5550 -1.2055
    2CHL1  H15B   94   5.822   5.889   9.617  0.2888 -0.0579  0.4819
    2CHL1   C16   95   5.869   6.085   9.512 -0.4375  0.8288 -0.3233
    2CHL1  H16A   96   5.961   6.070   9.452 -0.3441 -0.3185  0.0959
    2CHL1  H16B   97   5.784   6.061   9.444 -2.6287  2.2478  1.7621
    2CHL1   C17   98   5.864   6.223   9.573 -0.1368  0.0312 -0.0474
    2CHL1   H17   99   5.756   6.251   9.576  0.1219  1.0665 -0.0523
    2CHL1   C13  100   5.892   6.214   9.723 -0.5205 -0.1408 -0.2741
    2CHL1   C18  101   6.044   6.209   9.746 -1.0613 -0.5390  0.0606
    2CHL1  H18A  102   6.085   6.308   9.716 -2.4808 -0.2221 -0.9633
    2CHL1  H18B  103   6.064   6.203   9.855 -0.3042  0.5168  0.0017
    2CHL1  H18C  104   6.090   6.129   9.683 -2.2232 -1.0146 -0.2059
    2CHL1   C12  105   5.820   6.306   9.828 -0.8247  0.0394  0.2386
    2CHL1  H12A  106   5.850   6.412   9.842  1.4423 -0.5896  0.6559
    2CHL1  H12B  107   5.715   6.316   9.795 -0.7377  1.5451  0.3210
    2CHL1   C11  108   5.822   6.250   9.969 -0.0145 -0.3032  0.7302
    2CHL1  H11A  109   5.925   6.258  10.008  0.4150 -1.2960 -0.1339
    2CHL1  H11B  110   5.750   6.303  10.035 -1.1479 -1.7898  0.7595
    2CHL1    C9  111   5.770   6.109   9.978 -0.1034  0.3610 -0.2477
    2CHL1    H9  112   5.661   6.120   9.958 -0.1102  1.8623  0.4298
    2CHL1   C10  113   5.779   6.052  10.124  0.2323  0.6005 -1.2504
    2CHL1   C19  114   5.919   6.079  10.193 -0.0943 -0.4502  0.4213
    2CHL1  H19A  115   5.928   6.189  10.201 -1.4704 -0.2115 -0.8714
    2CHL1  H19B  116   5.940   6.035  10.293  2.5727  1.0779  0.6318
    2CHL1  H19C  117   5.995   6.052  10.116 -0.3490 -2.2009  0.7321
    2CHL1    C1  118   5.657   6.109  10.213  0.9511 -0.0490  0.6167
    2CHL1   H1A  119   5.689   6.208  10.252 -0.3699  0.7030 -0.1355
    2CHL1   H1B  120   5.564   6.115  10.152  2.3425  1.4360 -1.4530
    2CHL1    C2  121   5.621   6.037  10.337 -0.4761 -0.4094 -0.1236
    2CHL1   H2A  122   5.523   6.078  10.371 -0.0807  0.5072 -0.0462
    2CHL1   H2B  123   5.701   6.045  10.414 -1.7718 -3.2758  1.6858
    2CHL1   C20  124   5.931   6.341   9.500  0.0316 -0.3269  0.1061
    2CHL1   H20  125   6.037   6.339   9.533  0.1989  0.4735 -0.3777
    2CHL1   C21  126   5.880   6.477   9.562 -0.4566 -0.4446  0.5922
    2CHL1  H21A  127   5.917   6.483   9.666 -0.6482 -2.5997  0.8310
    2CHL1  H21B  128   5.770   6.496   9.553 -0.3381 -0.3731 -0.9310
    2CHL1  H21C  129   5.930   6.558   9.505  0.8552 -0.0388  2.2687
    2CHL1   C22  130   5.929   6.345   9.345 -0.9930  0.0913  0.4795
    2CHL1  H22A  131   5.992   6.433   9.316 -1.2508  0.2039  0.2594
    2CHL1  H22B  132   5.990   6.260   9.308 -0.0799  0.1354  1.8034
    2CHL1   C23  133   5.796   6.340   9.271  0.2816 -0.8749  1.3153
    2CHL1  H23A  134   5.727   6.256   9.293 -2.3809 -0.1436 -3.1550
    2CHL1  H23B  135   5.741   6.430   9.306 -0.5175 -1.4869  1.6649
    2CHL1   C24  136   5.807   6.344   9.117  0.1010 -0.0988 -0.1536
    2CHL1  H24A  137   5.867   6.251   9.105 -0.3382 -0.3303 -0.6046
    2CHL1  H24B  138   5.706   6.333   9.071 -0.1693 -0.2689  0.4722
    2CHL1   C25  139   5.862   6.477   9.065  0.4122 -0.2864 -0.5716
    2CHL1   H25  140   5.967   6.488   9.101 -0.0158  1.8750  0.1553
    2CHL1   C26  141   5.882   6.467   8.911 -0.2462 -0.2475 -0.0303
    2CHL1  H26A  142   5.791   6.432   8.858 -0.0640 -1.4072  0.4081
    2CHL1  H26B  143   5.935   6.559   8.876 -0.9158  0.0542 -0.2876
    2CHL1  H26C  144   5.945   6.377   8.900 -1.4978 -1.2667  0.9530
    2CHL1   C27  145   5.779   6.606   9.095  0.0466 -0.2213  0.6608
    2CHL1  H27A  146   5.829   6.697   9.056 -1.0193 -0.7653 -2.1673
    2CHL1  H27B  147   5.685   6.605   9.036  1.3442 -0.6415 -1.4614
    2CHL1  H27C  148   5.763   6.622   9.204 -0.6040  1.0915  0.4010
    3CHL1    C3  149   6.739   5.411  10.314  0.5610  0.7991 -0.1683
    3CHL1    H3  150   6.687   5.319  10.280 -0.9065  1.7726 -0.6297
    3CHL1    O3  151   6.729   5.435  10.453 -0.4616 -0.0774 -1.0143
    3CHL1   H3'  152   6.658   5.375  10.477 -0.5241  0.0391 -0.9068
    3CHL1    C4  153   6.887   5.399  10.269  1.1490 -0.3625  0.6954
    3CHL1   H4A  154   6.947   5.484  10.309  1.0991 -1.5851  3.5896
    3CHL1   H4B  155   6.921   5.311  10.328  0.3597 -0.6055  0.7990
    3CHL1    C5  156   6.901   5.370  10.119  0.6570 -0.8422 -0.3320
    3CHL1    C6  157   6.961   5.263  10.062  0.7139 -0.9051 -0.2574
    3CHL1    H6  158   6.994   5.172  10.115  0.9044 -1.4788 -1.3303
    3CHL1    C7  159   6.994   5.258   9.918 -0.3494  0.1829 -0.3660
    3CHL1   H7A  160   7.101   5.231   9.903 -0.3098  0.3281 -0.3483
    3CHL1   H7B  161   6.938   5.169   9.883 -0.0348 -0.7796  1.4658
    3CHL1    C8  162   6.955   5.370   9.824 -0.2760 -0.4751  0.7448
    3CHL1    H8  163   7.037   5.444   9.815 -0.8802  0.3628  1.8876
    3CHL1   C14  164   6.922   5.325   9.680  0.0661  0.1004  0.3910
    3CHL1   H14  165   6.828   5.265   9.676  0.5006 -0.5467 -1.4969
    3CHL1   C15  166   7.024   5.234   9.604 -0.3218  0.0678  0.0373
    3CHL1  H15A  167   7.129   5.269   9.604  0.1387 -1.2246 -1.2085
    3CHL1  H15B  168   7.011   5.128   9.633  0.4395 -0.3316 -1.0257
    3CHL1   C16  169   6.978   5.242   9.459  0.2851 -0.3689  0.2307
    3CHL1  H16A  170   7.065   5.255   9.391 -0.8785 -0.7153 -1.3879
    3CHL1  H16B  171   6.942   5.142   9.427 -0.5823  0.0819 -0.2634
    3CHL1   C17  172   6.869   5.356   9.456  0.1883  0.0876  0.5042
    3CHL1   H17  173   6.771   5.303   9.465 -0.1371  0.5847 -0.0797
    3CHL1   C13  174   6.883   5.438   9.585  0.2393 -0.0035  0.4055
    3CHL1   C18  175   7.008   5.527   9.558 -0.3210 -0.1308  0.0143
    3CHL1  H18A  176   7.039   5.576   9.653  0.3735 -1.7782  0.6769
    3CHL1  H18B  177   7.097   5.467   9.527  0.4291  0.4871  0.9072
    3CHL1  H18C  178   6.993   5.607   9.482  0.0193 -1.6228 -1.6957
    3CHL1   C12  179   6.767   5.519   9.635  0.0305  0.0460 -0.6325
    3CHL1  H12A  180   6.749   5.616   9.584 -0.2360  0.1524 -0.3337
    3CHL1  H12B  181   6.683   5.448   9.621 -0.0063  0.1047 -0.7088
    3CHL1   C11  182   6.780   5.548   9.787  0.5208 -0.7939  0.2656
    3CHL1  H11A  183   6.842   5.639   9.798 -0.5641  0.0138 -0.0942
    3CHL1  H11B  184   6.680   5.587   9.815  0.7129  1.7207 -2.1266
    3CHL1    C9  185   6.830   5.443   9.889  0.1415 -0.9183 -0.4000
    3CHL1    H9  186   6.748   5.368   9.886  0.5680 -1.3890 -0.5231
    3CHL1   C10  187   6.840   5.490  10.038  0.5825  0.1671  0.3507
    3CHL1   C19  188   6.927   5.613  10.054  1.0047 -0.4553  0.1406
    3CHL1  H19A  189   7.031   5.606  10.016 -0.0561 -1.2019 -2.9650
    3CHL1  H19B  190   6.877   5.689   9.990 -2.5504 -1.5711  1.3254
    3CHL1  H19C  191   6.921   5.650  10.159  1.4393 -1.1289  0.4061
    3CHL1    C1  192   6.696   5.521  10.091 -0.4885 -0.1493  0.7674
    3CHL1   H1A  193   6.655   5.616  10.051 -0.8139 -0.6214 -0.0447
    3CHL1   H1B  194   6.632   5.436  10.060  0.9248 -0.3690 -1.8052
    3CHL1    C2  195   6.676   5.529  10.238  0.2154  0.3207  0.6247
    3CHL1   H2A  196   6.567   5.539  10.260  0.0315  0.1934 -0.1868
    3CHL1   H2B  197   6.739   5.612  10.276  1.4412 -0.2461 -0.1029
    3CHL1   C20  198   6.877   5.421   9.312 -0.4789 -0.1989 -0.6079
    3CHL1   H20  199   6.978   5.460   9.289 -1.0251  0.3536 -2.1985
    3CHL1   C21  200   6.781   5.538   9.317  0.3532  0.0222 -0.4735
    3CHL1  H21A  201   6.823   5.626   9.370 -0.1137 -1.0588  1.8257
    3CHL1  H21B  202   6.678   5.518   9.353 -1.2181  1.4083 -3.7385
    3CHL1  H21C  203   6.750   5.563   9.213 -0.1474 -0.7560 -0.5191
    3CHL1   C22  204   6.843   5.315   9.208  0.0526 -0.6063  0.4373
    3CHL1  H22A  205   6.926   5.242   9.197  2.8491  2.6041 -1.4997
    3CHL1  H22B  206   6.744   5.275   9.238  0.6765 -0.2807  3.2176
    3CHL1   C23  207   6.821   5.366   9.062  0.2358  0.1775 -0.1959
    3CHL1  H23A  208   6.734   5.434   9.062 -0.2196 -0.3569 -2.2570
    3CHL1  H23B  209   6.915   5.415   9.028 -0.4586  1.5998 -0.1495
    3CHL1   C24  210   6.785   5.251   8.965  0.0103 -0.3212 -0.0117
    3CHL1  H24A  211   6.859   5.176   8.999  1.1929  1.0064  0.4309
    3CHL1  H24B  212   6.682   5.213   8.984 -0.4194  0.8289  0.0053
    3CHL1   C25  213   6.799   5.273   8.819 -0.4170 -1.0692  0.2559
    3CHL1   H25  214   6.901   5.314   8.801 -1.2690  1.1664  0.1379
    3CHL1   C26  215   6.776   5.150   8.723  0.4178  0.0712  0.3294
    3CHL1  H26A  216   6.849   5.069   8.745  2.2822  1.3624 -0.8003
    3CHL1  H26B  217   6.679   5.098   8.734  0.4255  0.0311  0.2098
    3CHL1  H26C  218   6.792   5.183   8.618  0.7749 -0.0865  0.3326
    3CHL1   C27  219   6.713   5.389   8.774  0.8345  0.4443  0.0700
    3CHL1  H27A  220   6.750   5.477   8.831  1.7466  0.3193 -0.3095
    3CHL1  H27B  221   6.734   5.411   8.667  2.6702 -2.7291 -0.3343
    3CHL1  H27C  222   6.606   5.366   8.795  1.0406  0.6680  1.4724
    4CHL1    C3  223   1.028   6.326  10.418 -0.0701 -0.7360 -0.1546
    4CHL1    H3  224   1.105   6.249  10.397  0.0425 -0.6858  0.0725
    4CHL1    O3  225   0.998   6.316  10.562 -0.1728 -0.4040  0.4496
    4CHL1   H3'  226   0.941   6.393  10.566  1.1507  0.7308 -1.1135
    4CHL1    C4  227   1.085   6.466  10.399  0.3075 -0.5805  0.5552
    4CHL1   H4A  228   1.010   6.534  10.446 -1.8960 -1.0894 -2.0210
    4CHL1   H4B  229   1.174   6.469  10.466  0.9382 -0.2091 -0.2769
    4CHL1    C5  230   1.086   6.493  10.250  0.1721 -0.1562 -0.3327
    4CHL1    C6  231   1.204   6.531  10.199  0.0820  0.1178  0.2563
    4CHL1    H6  232   1.282   6.548  10.275 -0.6358  0.2181  0.9889
    4CHL1    C7  233   1.244   6.563  10.058 -0.8251 -0.1329  0.8349
    4CHL1   H7A  234   1.296   6.659  10.043  0.5501 -0.2813  3.9150
    4CHL1   H7B  235   1.318   6.488  10.022  1.4588  1.0620  2.8238
    4CHL1    C8  236   1.113   6.545   9.970 -0.3727 -0.6972 -0.3435
    4CHL1    H8  237   1.061   6.643   9.976 -3.1426 -2.1013  0.4341
    4CHL1   C14  238   1.140   6.525   9.821 -0.4033  0.7422  0.2011
    4CHL1   H14  239   1.198   6.433   9.803  0.7423  1.2883  1.0176
    4CHL1   C15  240   1.228   6.635   9.751  0.2380 -0.1459  0.0789
    4CHL1  H15A  241   1.194   6.738   9.775 -0.0934 -0.5903  1.6084
    4CHL1  H15B  242   1.333   6.616   9.782 -0.1765  0.7677  2.1334
    4CHL1   C16  243   1.202   6.607   9.601 -0.0144 -0.1668  0.4321
    4CHL1  H16A  244   1.190   6.702   9.546 -1.4067 -0.2876  0.4850
    4CHL1  H16B  245   1.292   6.552   9.565  0.0942 -0.4773  1.1396
    4CHL1   C17  246   1.072   6.520   9.585  0.7256 -0.4983 -0.1838
    4CHL1   H17  247   1.107   6.417   9.565  1.4224 -0.3217  0.1073
    4CHL1   C13  248   1.013   6.518   9.728 -0.2317  0.6467 -0.5194
    4CHL1   C18  249   0.933   6.648   9.742  0.6414 -0.0598  0.4724
    4CHL1  H18A  250   0.844   6.633   9.677  1.5104 -1.6383 -0.4188
    4CHL1  H18B  251   0.893   6.669   9.844  2.4735  0.9323  1.0303
    4CHL1  H18C  252   0.983   6.738   9.701  1.3152 -0.1324  1.1128
    4CHL1   C12  253   0.940   6.393   9.772 -0.1751 -0.5399 -0.4522
    4CHL1  H12A  254   0.847   6.373   9.715 -1.9660 -1.2704  2.4830
    4CHL1  H12B  255   1.011   6.309   9.758  1.5221  0.9398 -1.0200
    4CHL1   C11  256   0.898   6.404   9.927  0.6973  0.4115 -0.5077
    4CHL1  H11A  257   0.822   6.484   9.937  0.8478  0.3214  1.8871
    4CHL1  H11B  258   0.849   6.308   9.956  4.0139 -0.4406  3.0322
    4CHL1    C9  259   1.013   6.436  10.019 -0.1679  0.1375  0.3719
    4CHL1    H9  260   1.080   6.347  10.024  0.3263  0.5053  0.3121
    4CHL1   C10  261   0.960   6.456  10.164 -0.1113 -1.2782 -0.4441
    4CHL1   C19  262   0.852   6.561  10.181 -0.3123  0.2194 -0.3706
    4CHL1  H19A  263   0.883   6.656  10.132  0.0001  0.5419  0.4365
    4CHL1  H19B  264   0.749   6.527  10.156  0.3121 -0.5488 -2.0665
    4CHL1  H19C  265   0.845   6.579  10.290  1.5998 -0.7541 -0.0606
    4CHL1    C1  266   0.905   6.319  10.203 -0.1537 -0.2889 -0.4561
    4CHL1   H1A  267   0.806   6.295  10.157  0.1123  0.3591 -1.4104
    4CHL1   H1B  268   0.980   6.243  10.171 -0.6961 -0.7823 -0.5656
    4CHL1    C2  269   0.897   6.302  10.355 -0.0798  0.5107 -0.5192
    4CHL1   H2A  270   0.866   6.200  10.386 -2.0931  0.8576 -1.1996
    4CHL1   H2B  271   0.813   6.364  10.392  0.3714  1.9353 -1.7571
    4CHL1   C20  272   0.975   6.558   9.473 -0.9237  0.7284  0.3551
    4CHL1   H20  273   0.952   6.666   9.480 -0.7297  0.7848  0.1220
    4CHL1   C21  274   0.844   6.476   9.469  0.3637  0.4722 -0.3673
    4CHL1  H21A  275   0.858   6.370   9.437  0.0426  0.2025  0.3705
    4CHL1  H21B  276   0.783   6.518   9.386  0.2079 -2.1657 -1.6828
    4CHL1  H21C  277   0.782   6.487   9.560 -0.4630 -0.0503 -0.8563
    4CHL1   C22  278   1.037   6.544   9.330  0.6895  0.1585 -0.0849
    4CHL1  H22A  279   0.964   6.597   9.265  2.4007  1.6051 -0.9026
    4CHL1  H22B  280   1.133   6.600   9.324  1.1290 -0.6508 -0.6952
    4CHL1   C23  281   1.069   6.400   9.274  0.0789  0.4202  0.2012
    4CHL1  H23A  282   1.124   6.338   9.348 -2.0854 -0.0469  1.4913
    4CHL1  H23B  283   0.978   6.347   9.239  1.4901 -0.5240 -2.3528
    4CHL1   C24  284   1.160   6.411   9.150  0.3039 -0.1602  0.3534
    4CHL1  H24A  285   1.260   6.452   9.179 -1.0581  1.9303  2.5717
    4CHL1  H24B  286   1.174   6.309   9.109 -2.1264  0.1482 -1.4479
    4CHL1   C25  287   1.109   6.491   9.034  0.8128  0.2873  0.5881
    4CHL1   H25  288   1.089   6.594   9.072  1.4400  0.4140  0.5796
    4CHL1   C26  289   1.204   6.501   8.919 -0.2015  0.7316 -0.2954
    4CHL1  H26A  290   1.296   6.551   8.957  0.3498  0.1625 -0.8506
    4CHL1  H26B  291   1.238   6.403   8.879  1.7128  1.4615 -0.5786
    4CHL1  H26C  292   1.168   6.567   8.837  0.3035  1.3851 -0.0016
    4CHL1   C27  293   0.982   6.434   8.980  0.3827  0.2527 -0.0066
    4CHL1  H27A  294   0.900   6.419   9.053 -0.4476 -0.3412 -1.0242
    4CHL1  H27B  295   0.937   6.504   8.906 -0.4846 -0.1797  0.1037
    4CHL1  H27C  296   0.989   6.339   8.922 -1.1907  1.0204 -1.5672
    5CHL1    C3  297   0.071   2.775  10.108 -0.0991 -0.0871  0.4678
    5CHL1    H3  298   0.097   2.877  10.072  1.8988 -0.6324  0.2405
    5CHL1    O3  299   0.115   2.771  10.239  0.5025  0.2319 -0.6028
    5CHL1   H3'  300   0.072   2.689  10.263 -0.1265  0.9092  0.7579
    5CHL1    C4  301  -0.081   2.763  10.096 -0.0076  0.0541 -0.2815
    5CHL1   H4A  302  -0.124   2.672  10.142  1.3925 -0.9479 -0.8813
    5CHL1   H4B  303  -0.131   2.841  10.157  0.4880 -0.9949  1.5389
    5CHL1    C5  304  -0.128   2.758   9.954  0.9509 -0.3701 -0.6534
    5CHL1    C6  305  -0.230   2.843   9.920 -0.5797  0.4822  0.1682
    5CHL1    H6  306  -0.277   2.903  10.000 -1.9188  1.1538 -1.0750
    5CHL1    C7  307  -0.278   2.850   9.783  0.4383  0.7197  0.0468
    5CHL1   H7A  308  -0.389   2.843   9.787  0.5579 -2.2000  1.1652
    5CHL1   H7B  309  -0.248   2.942   9.729 -0.8199  1.8358  1.1478
    5CHL1    C8  310  -0.237   2.718   9.704  0.2673  0.3474  0.2685
    5CHL1    H8  311  -0.303   2.637   9.741  0.4850 -0.0847 -0.2768
    5CHL1   C14  312  -0.269   2.727   9.556 -0.5102 -1.1587  0.4570
    5CHL1   H14  313  -0.192   2.803   9.528 -2.7222  1.3044  0.6842
    5CHL1   C15  314  -0.410   2.774   9.517 -0.1904 -0.2336  0.5585
    5CHL1  H15A  315  -0.487   2.713   9.568  1.2288 -2.1625  0.4871
    5CHL1  H15B  316  -0.427   2.880   9.545 -0.3725  0.1329 -0.8909
    5CHL1   C16  317  -0.412   2.751   9.367 -0.2587 -0.1729 -0.5205
    5CHL1  H16A  318  -0.499   2.685   9.350 -0.8293  0.4804 -0.2053
    5CHL1  H16B  319  -0.422   2.851   9.320  3.7369 -0.2825 -1.9576
    5CHL1   C17  320  -0.286   2.666   9.333  0.5046 -0.0823  0.5397
    5CHL1   H17  321  -0.216   2.746   9.302 -1.8445  2.2550  0.8980
    5CHL1   C13  322  -0.230   2.607   9.469 -0.6697 -0.0259  0.5706
    5CHL1   C18  323  -0.314   2.481   9.504  0.7426 -0.1344  0.0975
    5CHL1  H18A  324  -0.424   2.494   9.490  0.9962  2.4960  0.0892
    5CHL1  H18B  325  -0.286   2.402   9.430  0.7742  0.9797 -1.1165
    5CHL1  H18C  326  -0.296   2.445   9.607  1.4528 -1.7951 -0.5583
    5CHL1   C12  327  -0.080   2.577   9.482  0.8312  0.0244 -0.4954
    5CHL1  H12A  328  -0.062   2.479   9.433 -1.3396  0.0366 -1.4341
    5CHL1  H12B  329  -0.015   2.654   9.436  2.8118 -1.3050 -0.0442
    5CHL1   C11  330  -0.051   2.548   9.629 -0.4826 -0.0207 -0.7795
    5CHL1  H11A  331  -0.107   2.457   9.659  0.0161 -0.3465 -0.8248
    5CHL1  H11B  332   0.056   2.523   9.647 -0.9383 -1.8233 -0.3413
    5CHL1    C9  333  -0.089   2.674   9.718 -0.6351  0.2013 -0.1345
    5CHL1    H9  334  -0.029   2.756   9.673  0.1692 -0.1364  0.2996
    5CHL1   C10  335  -0.046   2.665   9.865 -0.2815 -0.4656 -0.2938
    5CHL1   C19  336  -0.080   2.522   9.908  0.6229  0.2581  0.0097
    5CHL1  H19A  337  -0.010   2.449   9.861 -1.8592  0.4127 -4.4891
    5CHL1  H19B  338  -0.077   2.504  10.017 -0.3831 -0.0990 -0.0070
    5CHL1  H19C  339  -0.182   2.491   9.875 -0.5570  3.4977  0.2870
    5CHL1    C1  340   0.109   2.681   9.884 -0.1202  0.9562 -0.6035
    5CHL1   H1A  341   0.163   2.597   9.836  0.0457 -0.5137  2.0033
    5CHL1   H1B  342   0.149   2.780   9.854  0.0107  1.5841  1.5137
    5CHL1    C2  343   0.155   2.675  10.033  0.0054  0.2285  0.2336
    5CHL1   H2A  344   0.264   2.695  10.037  1.1786 -4.8692  1.2797
    5CHL1   H2B  345   0.144   2.571  10.071  0.5254  0.2730  0.4981
    5CHL1   C20  346  -0.297   2.572   9.218 -0.2132  0.0229 -0.4540
    5CHL1   H20  347  -0.354   2.483   9.250  0.0138 -0.3253 -1.0062
    5CHL1   C21  348  -0.155   2.522   9.166 -0.3776  0.4125 -0.0218
    5CHL1  H21A  349  -0.096   2.610   9.133  0.1832  0.3847  0.8744
    5CHL1  H21B  350  -0.174   2.455   9.080 -1.6739 -0.9073  1.2388
    5CHL1  H21C  351  -0.118   2.461   9.251 -0.3745  0.6899  0.1752
    5CHL1   C22  352  -0.378   2.629   9.100  0.2161 -0.3002  0.2065
    5CHL1  H22A  353  -0.486   2.635   9.123  0.6722  1.6421  2.1410
    5CHL1  H22B  354  -0.341   2.731   9.078  1.2306 -0.4970  0.9263
    5CHL1   C23  355  -0.363   2.546   8.967 -0.2053  0.2735  0.0424
    5CHL1  H23A  356  -0.257   2.550   8.934 -0.5752 -0.6156 -1.3455
    5CHL1  H23B  357  -0.370   2.438   8.993  0.4026 -0.0788 -1.1810
    5CHL1   C24  358  -0.450   2.589   8.853  0.0798  0.9087 -0.1387
    5CHL1  H24A  359  -0.554   2.564   8.882  0.5351 -0.2963  0.5168
    5CHL1  H24B  360  -0.434   2.698   8.839  1.9683  0.9223  1.5478
    5CHL1   C25  361  -0.432   2.510   8.723 -1.0569 -0.3765 -0.1836
    5CHL1   H25  362  -0.328   2.470   8.720 -1.1609 -0.6070 -0.6937
    5CHL1   C26  363  -0.537   2.398   8.715  0.3480  0.2833  0.4819
    5CHL1  H26A  364  -0.530   2.333   8.625 -1.5354 -0.2689  0.6880
    5CHL1  H26B  365  -0.525   2.324   8.798 -1.1759 -1.5720 -0.8456
    5CHL1  H26C  366  -0.638   2.442   8.724  0.5748  0.7070  1.0088
    5CHL1   C27  367  -0.438   2.601   8.598 -0.3440  0.1574 -0.0375
    5CHL1  H27A  368  -0.366   2.685   8.593 -0.6516  0.3689 -1.0527
    5CHL1  H27B  369  -0.419   2.535   8.511  0.2812  1.0309 -0.5733
    5CHL1  H27C  370  -0.538   2.647   8.586  0.8435  2.9056 -0.1047
    6CHL1    C3  371   6.729   1.043  10.307  0.1736 -0.5854 -0.5759
    6CHL1    H3  372   6.764   1.145  10.282 -0.7478  0.4208  1.8556
    6CHL1    O3  373   6.705   1.028  10.445  0.0279  0.6992  0.1130
    6CHL1   H3'  374   6.621   1.072  10.459 -0.0972 -0.0733  1.9966
    6CHL1    C4  375   6.605   1.018  10.221 -0.1470 -1.0873 -0.3911
    6CHL1   H4A  376   6.553   0.924  10.248  0.0192 -0.6603  1.5783
    6CHL1   H4B  377   6.536   1.102  10.243  0.6843 -0.7338  1.0421
    6CHL1    C5  378   6.641   1.008  10.069 -0.3150 -0.3703 -0.6209
    6CHL1    C6  379   6.566   1.072   9.981  0.1975  0.0763  0.4140
    6CHL1    H6  380   6.488   1.140  10.016 -1.0263 -1.4428  0.7303
    6CHL1    C7  381   6.578   1.053   9.836  0.5284  0.0062  0.3201
    6CHL1   H7A  382   6.480   1.024   9.791 -0.6783  2.7291  0.9772
    6CHL1   H7B  383   6.602   1.149   9.786 -0.6705 -0.3613 -1.0497
    6CHL1    C8  384   6.667   0.932   9.790  0.0268 -0.3456  0.0909
    6CHL1    H8  385   6.607   0.840   9.805 -1.5743  0.5408 -0.6874
    6CHL1   C14  386   6.703   0.944   9.650  0.4478  0.2356  0.6685
    6CHL1   H14  387   6.747   1.046   9.643  0.9611  0.0422  1.0239
    6CHL1   C15  388   6.585   0.957   9.547 -0.1778  0.5191  0.6617
    6CHL1  H15A  389   6.536   0.858   9.559  2.0760 -0.6956  0.1879
    6CHL1  H15B  390   6.507   1.037   9.552 -0.6542  0.2923 -1.9190
    6CHL1   C16  391   6.666   0.972   9.411  0.4173 -0.1993 -0.0673
    6CHL1  H16A  392   6.602   0.916   9.340  0.4257  0.7696 -0.8518
    6CHL1  H16B  393   6.655   1.078   9.381 -0.1044 -0.5028 -0.9578
    6CHL1   C17  394   6.807   0.913   9.440  0.2736  0.3907  0.1462
    6CHL1   H17  395   6.864   1.008   9.445 -2.2518  2.3040 -2.8971
    6CHL1   C13  396   6.797   0.850   9.583 -0.4176 -0.1931  0.1804
    6CHL1   C18  397   6.739   0.705   9.579  0.5534 -0.6227  0.6013
    6CHL1  H18A  398   6.683   0.684   9.672 -2.4410 -1.4184 -1.2424
    6CHL1  H18B  399   6.661   0.695   9.500 -2.3669 -1.2164  3.3572
    6CHL1  H18C  400   6.817   0.628   9.560 -0.8132 -1.8298 -0.3523
    6CHL1   C12  401   6.933   0.847   9.665 -0.5680  0.4771 -0.0141
    6CHL1  H12A  402   6.995   0.767   9.619  0.0251  0.0714  1.4275
    6CHL1  H12B  403   6.995   0.938   9.658  0.0508 -0.0925 -3.1182
    6CHL1   C11  404   6.900   0.822   9.817  0.5137  0.8032 -0.0051
    6CHL1  H11A  405   6.862   0.718   9.827  2.0922 -0.0085 -1.8345
    6CHL1  H11B  406   6.986   0.817   9.887  0.5470  0.5440 -0.0636
    6CHL1    C9  407   6.796   0.924   9.880  0.2530 -0.9238 -0.5696
    6CHL1    H9  408   6.847   1.022   9.865  1.1694 -1.4793 -1.1178
    6CHL1   C10  409   6.752   0.910  10.031 -0.2082 -0.4540 -0.3000
    6CHL1   C19  410   6.709   0.758  10.053 -1.0129 -0.4678  0.3858
    6CHL1  H19A  411   6.799   0.693  10.041 -0.7381 -0.2222  1.0795
    6CHL1  H19B  412   6.670   0.746  10.156 -2.7716  2.1823  0.1101
    6CHL1  H19C  413   6.641   0.709   9.980  0.8463 -2.8810  0.1352
    6CHL1    C1  414   6.880   0.939  10.122 -0.2357 -0.1205 -0.7171
    6CHL1   H1A  415   6.964   0.869  10.106  0.0534 -0.2014  0.9110
    6CHL1   H1B  416   6.917   1.041  10.098 -0.1037  0.5148  1.8729
    6CHL1    C2  417   6.838   0.943  10.273 -0.3874  0.1546 -0.7880
    6CHL1   H2A  418   6.935   0.959  10.324  0.5407 -0.7387 -2.2260
    6CHL1   H2B  419   6.792   0.848  10.308 -0.3435  1.0274  1.9278
    6CHL1   C20  420   6.867   0.834   9.322  0.0602  0.5293  0.1870
    6CHL1   H20  421   6.819   0.734   9.327  1.0719  0.0827  1.6243
    6CHL1   C21  422   7.019   0.801   9.342  0.2303  0.2688  0.2203
    6CHL1  H21A  423   7.029   0.705   9.398  0.0822 -1.7283 -2.9065
    6CHL1  H21B  424   7.076   0.888   9.381  1.0490 -0.6091  1.0739
    6CHL1  H21C  425   7.069   0.770   9.248  0.2901  1.1688 -0.0561
    6CHL1   C22  426   6.847   0.891   9.181  0.4926 -0.3847 -0.1093
    6CHL1  H22A  427   6.872   0.811   9.107 -2.7777  0.3784 -2.2423
    6CHL1  H22B  428   6.738   0.894   9.161  0.4531 -0.6277  0.0673
    6CHL1   C23  429   6.914   1.027   9.149  0.2440 -0.2510 -0.3372
    6CHL1  H23A  430   6.884   1.104   9.224 -1.4660 -2.9067  1.9350
    6CHL1  H23B  431   7.022   1.007   9.161  0.5058  0.2993 -1.6813
    6CHL1   C24  432   6.876   1.088   9.017  0.2226 -0.0034  0.3048
    6CHL1  H24A  433   6.766   1.082   9.001 -0.1262 -1.6418  2.8581
    6CHL1  H24B  434   6.913   1.193   9.008  1.5163 -0.3091  1.6521
    6CHL1   C25  435   6.945   1.010   8.899 -0.4115 -0.6174  0.6156
    6CHL1   H25  436   6.942   0.902   8.923  1.3194 -0.6754  0.7183
    6CHL1   C26  437   6.873   1.039   8.770  0.1041  0.0512 -0.0235
    6CHL1  H26A  438   6.769   1.002   8.778  0.6838 -1.3468  1.9203
    6CHL1  H26B  439   6.885   1.146   8.743  0.6550 -0.0589 -0.2409
    6CHL1  H26C  440   6.914   0.986   8.681  0.1970  1.0986 -0.6167
    6CHL1   C27  441   7.089   1.058   8.888 -0.2868 -0.1754 -0.0475
    6CHL1  H27A  442   7.143   1.046   8.985  0.0370 -0.0328 -0.2092
    6CHL1  H27B  443   7.142   1.009   8.804 -0.6167  2.0591 -1.6433
    6CHL1  H27C  444   7.089   1.165   8.856 -3.9739  0.7440  2.4251
    7CHL1    C3  445   6.230   6.401  10.270  0.5258  0.8477  0.2349
    7CHL1    H3  446   6.171   6.318  10.224  1.8714 -0.0030  0.0045
    7CHL1    O3  447   6.225   6.386  10.417  0.3955  0.0261  0.1305
    7CHL1   H3'  448   6.137   6.414  10.444  0.7595  2.0814 -0.6230
    7CHL1    C4  449   6.375   6.390  10.225 -0.6776  0.4386 -0.3618
    7CHL1   H4A  450   6.423   6.482  10.265  1.1500 -0.1012 -1.1813
    7CHL1   H4B  451   6.415   6.297  10.270  0.9326  0.5872 -1.3813
    7CHL1    C5  452   6.384   6.380  10.075  0.0334  0.2757  0.0967
    7CHL1    C6  453   6.438   6.279   9.997 -0.0550 -0.0319 -1.0818
    7CHL1    H6  454   6.497   6.201  10.048  1.3521  2.5578  1.5489
    7CHL1    C7  455   6.457   6.282   9.847 -0.7852  0.0099 -0.2581
    7CHL1   H7A  456   6.557   6.240   9.821 -0.5938 -0.5075  1.2114
    7CHL1   H7B  457   6.392   6.208   9.796  0.8384  0.5238 -3.3179
    7CHL1    C8  458   6.437   6.419   9.785 -0.1194  0.9103 -0.4998
    7CHL1    H8  459   6.537   6.460   9.811  1.1113 -0.8653 -2.1655
    7CHL1   C14  460   6.420   6.415   9.630 -0.0409 -0.0685 -0.5747
    7CHL1   H14  461   6.325   6.360   9.616  0.8679 -2.0683  0.6239
    7CHL1   C15  462   6.522   6.341   9.550 -0.2239  0.6627  0.2437
    7CHL1  H15A  463   6.626   6.370   9.579  0.0422  0.9259 -0.8859
    7CHL1  H15B  464   6.511   6.230   9.551  2.9332  0.2523  1.9241
    7CHL1   C16  465   6.496   6.388   9.407 -0.0943 -0.2185 -0.9706
    7CHL1  H16A  466   6.595   6.426   9.371  0.5633  1.2719  2.0798
    7CHL1  H16B  467   6.462   6.303   9.344  2.6430 -2.4841  0.3776
    7CHL1   C17  468   6.392   6.507   9.417  0.0166 -0.2666 -0.1766
    7CHL1   H17  469   6.288   6.474   9.397 -0.9601  1.5973  1.4987
    7CHL1   C13  470   6.395   6.549   9.567  0.3334  0.1478 -0.0591
    7CHL1   C18  471   6.516   6.645   9.581 -0.6040  0.5736  0.0176
    7CHL1  H18A  472   6.605   6.592   9.541 -1.9281 -1.7486 -0.0892
    7CHL1  H18B  473   6.507   6.743   9.529 -0.1938  0.5939 -0.0128
    7CHL1  H18C  474   6.530   6.666   9.689 -2.0090 -1.0443  0.5595
    7CHL1   C12  475   6.263   6.609   9.624 -0.4860 -0.2059 -0.1234
    7CHL1  H12A  476   6.248   6.706   9.571  0.6213  0.2597  0.3911
    7CHL1  H12B  477   6.175   6.542   9.613 -1.1045 -0.0371  3.0103
    7CHL1   C11  478   6.273   6.625   9.779  0.9376 -0.4525 -0.0217
    7CHL1  H11A  479   6.351   6.700   9.806 -1.2061  1.0870  2.3580
    7CHL1  H11B  480   6.180   6.661   9.827  0.3681 -0.6618 -0.9376
    7CHL1    C9  481   6.315   6.496   9.849 -0.4572 -0.0610 -0.3319
    7CHL1    H9  482   6.233   6.427   9.821  0.2957 -0.4812 -1.6220
    7CHL1   C10  483   6.327   6.505  10.006 -0.4166  0.8286  1.3008
    7CHL1   C19  484   6.419   6.628  10.041 -0.6645 -0.1146  0.2589
    7CHL1  H19A  485   6.383   6.725  10.002  1.9818  0.4582 -1.0415
    7CHL1  H19B  486   6.427   6.643  10.151  1.9807  1.3418 -0.0442
    7CHL1  H19C  487   6.520   6.614   9.996 -0.7389  0.5304 -0.1162
    7CHL1    C1  488   6.187   6.534  10.065  0.4964  0.5506  0.3169
    7CHL1   H1A  489   6.148   6.627  10.020 -0.2942  0.6125  1.1031
    7CHL1   H1B  490   6.119   6.454  10.029  0.1631  1.1959 -0.5119
    7CHL1    C2  491   6.174   6.530  10.217 -0.0802  0.1168 -0.0098
    7CHL1   H2A  492   6.071   6.561  10.243 -0.0837 -0.1370  0.2915
    7CHL1   H2B  493   6.235   6.610  10.266  0.8288 -0.7280  0.2839
    7CHL1   C20  494   6.417   6.608   9.307  0.1263 -0.3772  1.5176
    7CHL1   H20  495   6.519   6.652   9.312  0.0269  0.3421 -1.1183
    7CHL1   C21  496   6.314   6.723   9.304  0.1053  0.0846  0.1674
    7CHL1  H21A  497   6.343   6.794   9.384  1.2953 -0.1540 -0.0333
    7CHL1  H21B  498   6.213   6.685   9.332  0.3469 -0.6952  0.0157
    7CHL1  H21C  499   6.308   6.769   9.203 -0.5142  0.3128  0.3018
    7CHL1   C22  500   6.411   6.545   9.163 -0.5628  0.1297 -0.6848
    7CHL1  H22A  501   6.467   6.608   9.092  0.1414  1.1408  0.7197
    7CHL1  H22B  502   6.482   6.459   9.169  2.5617  2.5490 -0.5982
    7CHL1   C23  503   6.267   6.513   9.096  0.3005 -0.0126 -0.6292
    7CHL1  H23A  504   6.190   6.462   9.158  1.4325 -0.7069  0.2560
    7CHL1  H23B  505   6.223   6.609   9.061  0.0135  0.5286  1.1248
    7CHL1   C24  506   6.285   6.421   8.965 -0.7278 -0.3684  0.1877
    7CHL1  H24A  507   6.187   6.429   8.911 -2.2506  0.9912  2.9358
    7CHL1  H24B  508   6.369   6.454   8.900  1.1110  2.0077  3.4722
    7CHL1   C25  509   6.320   6.270   8.993 -0.3081 -0.2843  0.1817
    7CHL1   H25  510   6.395   6.256   9.073  0.3257  1.4357 -0.0718
    7CHL1   C26  511   6.191   6.195   9.030  0.2452  0.5410 -0.3183
    7CHL1  H26A  512   6.157   6.236   9.128 -0.4978  1.2551 -0.8666
    7CHL1  H26B  513   6.117   6.214   8.950  1.1507  1.3906 -0.9727
    7CHL1  H26C  514   6.205   6.085   9.045 -1.0260  0.4217  0.0694
    7CHL1   C27  515   6.379   6.204   8.865 -0.6004 -0.1179 -0.2876
    7CHL1  H27A  516   6.422   6.104   8.886 -0.3137  0.0736  0.0596
    7CHL1  H27B  517   6.304   6.187   8.785 -0.2285 -2.5135 -0.1787
    7CHL1  H27C  518   6.459   6.274   8.831  0.9222 -0.6295  1.9796
    8CHL1    C3  519   0.540   3.826  10.182 -0.2018  0.0113  0.0360
    8CHL1    H3  520   0.447   3.765  10.184 -0.0438 -0.2542 -0.5287
    8CHL1    O3  521   0.580   3.842  10.312 -0.4136  0.0406 -0.0632
    8CHL1   H3'  522   0.499   3.874  10.354  0.2497 -0.1585  1.4282
    8CHL1    C4  523   0.655   3.754  10.104 -0.5008 -0.3867 -0.0533
    8CHL1   H4A  524   0.745   3.820  10.110 -1.5349  1.1717 -1.0425
    8CHL1   H4B  525   0.676   3.653  10.146 -1.4578 -0.1987  0.9202
    8CHL1    C5  526   0.620   3.740   9.959  0.6103 -0.3005  0.6261
    8CHL1    C6  527   0.607   3.625   9.900 -0.0957 -0.0635  0.9383
    8CHL1    H6  528   0.619   3.530   9.954 -1.0679 -1.1624 -0.6798
    8CHL1    C7  529   0.588   3.604   9.751 -0.2358 -0.1839  0.0227
    8CHL1   H7A  530   0.653   3.528   9.702 -2.1696 -1.8220 -0.1552
    8CHL1   H7B  531   0.485   3.566   9.737  0.1784 -1.3467 -0.0436
    8CHL1    C8  532   0.613   3.736   9.676  0.5331 -0.3362 -0.2928
    8CHL1    H8  533   0.722   3.755   9.663  0.5433 -1.4736 -2.2471
    8CHL1   C14  534   0.556   3.713   9.536  0.2002  0.3715 -0.3656
    8CHL1   H14  535   0.447   3.702   9.553  0.0379 -0.4105 -1.7795
    8CHL1   C15  536   0.599   3.581   9.457  0.3521 -0.3059 -0.1405
    8CHL1  H15A  537   0.707   3.565   9.479  0.0569 -3.7846 -0.7162
    8CHL1  H15B  538   0.541   3.496   9.500  0.0055 -0.8976 -1.6971
    8CHL1   C16  539   0.542   3.612   9.317  0.1781 -0.6232 -0.1980
    8CHL1  H16A  540   0.620   3.577   9.246  1.3233 -0.5377  0.9875
    8CHL1  H16B  541   0.449   3.554   9.299  0.4059 -1.1685  0.3453
    8CHL1   C17  542   0.505   3.761   9.318  0.0485 -0.0009 -0.6054
    8CHL1   H17  543   0.397   3.778   9.339 -0.2625 -1.5289 -0.8208
    8CHL1   C13  544   0.567   3.827   9.438 -0.6848 -0.8773  0.6084
    8CHL1   C18  545   0.722   3.859   9.407  0.0634 -0.0623 -0.8759
    8CHL1  H18A  546   0.786   3.780   9.363 -0.6499 -0.0058 -2.0585
    8CHL1  H18B  547   0.720   3.950   9.343 -2.1882  1.7049  1.4918
    8CHL1  H18C  548   0.770   3.906   9.495 -0.9657  1.2007 -0.9535
    8CHL1   C12  549   0.505   3.954   9.501  0.6419 -0.2595  0.2059
    8CHL1  H12A  550   0.533   4.044   9.441  3.2054  1.1427  3.2063
    8CHL1  H12B  551   0.398   3.925   9.496  0.8312 -0.9934  0.2931
    8CHL1   C11  552   0.559   3.980   9.650 -0.1880 -0.2497 -0.5395
    8CHL1  H11A  553   0.666   4.009   9.647 -0.2547  0.4378  1.7726
    8CHL1  H11B  554   0.508   4.070   9.689  0.7518 -1.0387  2.8143
    8CHL1    C9  555   0.551   3.858   9.747  0.6039 -0.3182 -0.2253
    8CHL1    H9  556   0.442   3.838   9.756  0.1373  1.7885 -0.7637
    8CHL1   C10  557   0.606   3.881   9.892  0.3759  0.9253  0.6489
    8CHL1   C19  558   0.730   3.961   9.882  0.8054  0.5776 -0.2056
    8CHL1  H19A  559   0.703   4.064   9.850 -1.7848  0.8983  2.5284
    8CHL1  H19B  560   0.776   3.980   9.981  0.5036  0.4889 -0.0452
    8CHL1  H19C  561   0.800   3.914   9.810  0.0171 -0.4270 -0.3380
    8CHL1    C1  562   0.499   3.961   9.969  0.1654  0.3831 -0.2675
    8CHL1   H1A  563   0.493   4.056   9.912  0.2033  0.8573  0.5035
    8CHL1   H1B  564   0.406   3.908   9.940  0.4719  0.4912 -1.5059
    8CHL1    C2  565   0.515   3.969  10.124  0.3378 -0.2022 -0.0031
    8CHL1   H2A  566   0.418   4.014  10.153 -0.3144 -1.2439 -0.4902
    8CHL1   H2B  567   0.595   4.040  10.155 -1.4856  1.4651  1.0893
    8CHL1   C20  568   0.521   3.832   9.182 -0.4123  0.8002  0.1493
    8CHL1   H20  569   0.629   3.817   9.160 -0.3049  1.8883 -0.1096
    8CHL1   C21  570   0.495   3.979   9.193  0.3826 -0.2585  0.6893
    8CHL1  H21A  571   0.579   4.036   9.239 -0.2144 -0.6569  2.3433
    8CHL1  H21B  572   0.400   4.000   9.247 -0.0493 -1.1439  0.2918
    8CHL1  H21C  573   0.481   4.027   9.094  1.5835 -0.5266  0.3648
    8CHL1   C22  574   0.437   3.771   9.068  0.8381  0.2746  0.1860
    8CHL1  H22A  575   0.479   3.670   9.052  1.0231  0.7471 -2.9327
    8CHL1  H22B  576   0.328   3.772   9.088  0.8320  3.4781  0.6403
    8CHL1   C23  577   0.458   3.828   8.927  0.3733 -0.4257 -0.8103
    8CHL1  H23A  578   0.425   3.933   8.914  1.2845  0.2271  1.6603
    8CHL1  H23B  579   0.564   3.833   8.896  0.3482 -1.3701 -1.1005
    8CHL1   C24  580   0.388   3.735   8.830  0.6776 -0.4322 -0.0167
    8CHL1  H24A  581   0.409   3.628   8.851 -1.1651 -0.5438  1.5479
    8CHL1  H24B  582   0.280   3.759   8.845  0.8920  0.7982 -0.3034
    8CHL1   C25  583   0.424   3.767   8.689  0.3338 -0.2595  0.3063
    8CHL1   H25  584   0.446   3.875   8.686 -0.3302 -0.0966  1.1177
    8CHL1   C26  585   0.558   3.693   8.649  0.1276 -0.4926  0.4888
    8CHL1  H26A  586   0.558   3.582   8.652 -1.0821 -0.5075  0.1552
    8CHL1  H26B  587   0.577   3.718   8.543  1.7408 -2.2495  0.3177
    8CHL1  H26C  588   0.647   3.739   8.698  0.8941  0.7821 -1.9359
    8CHL1   C27  589   0.312   3.733   8.580  0.4693 -0.2733 -0.1210
    8CHL1  H27A  590   0.283   3.626   8.573 -1.4663  0.1795  0.4448
    8CHL1  H27B  591   0.225   3.801   8.580  0.5099 -0.2211 -0.9348
    8CHL1  H27C  592   0.347   3.749   8.476 -1.3981  0.5846 -0.6467
    9CHL1    C3  593   2.309   2.922  10.112 -0.4200 -0.3516  0.1250
    9CHL1    H3  594   2.356   3.022  10.110  0.7857 -0.8743  0.7713
    9CHL1    O3  595   2.270   2.885  10.244  0.5984  0.0826 -0.8466
    9CHL1   H3'  596   2.191   2.830  10.236  0.1341  0.3440  1.2818
    9CHL1    C4  597   2.181   2.913  10.020  0.3673  0.1303 -0.2995
    9CHL1   H4A  598   2.129   2.816  10.035 -1.9626  1.4380  0.5111
    9CHL1   H4B  599   2.118   2.994  10.061  1.0748 -0.8903  3.0881
    9CHL1    C5  600   2.214   2.931   9.875 -0.4108 -0.1046  0.0400
    9CHL1    C6  601   2.168   3.038   9.802 -0.2269  0.5215  0.1012
    9CHL1    H6  602   2.099   3.114   9.843 -1.5126  0.0963 -1.1778
    9CHL1    C7  603   2.191   3.039   9.650 -0.5892 -0.4422 -0.2903
    9CHL1   H7A  604   2.094   3.051   9.597 -1.1119 -0.9189  0.5247
    9CHL1   H7B  605   2.260   3.122   9.622 -1.2520  0.3517  0.3695
    9CHL1    C8  606   2.243   2.903   9.589  0.1493 -0.0402  0.2391
    9CHL1    H8  607   2.153   2.838   9.598 -0.0518  0.2330  0.2013
    9CHL1   C14  608   2.299   2.934   9.454  0.5051 -0.0257  0.4496
    9CHL1   H14  609   2.387   2.999   9.473  0.4223  0.2426 -0.0603
    9CHL1   C15  610   2.207   3.008   9.352 -0.5275  0.0458 -0.4936
    9CHL1  H15A  611   2.100   2.977   9.354 -0.9668  1.2095 -2.7695
    9CHL1  H15B  612   2.220   3.117   9.371 -0.1066 -0.1984  0.7198
    9CHL1   C16  613   2.274   2.976   9.216  0.0420  0.4797  0.2264
    9CHL1  H16A  614   2.201   2.921   9.154  0.5318  0.6139 -0.4849
    9CHL1  H16B  615   2.301   3.072   9.166 -1.2416  2.0265  2.3403
    9CHL1   C17  616   2.393   2.885   9.241 -0.7232  0.6960 -0.1316
    9CHL1   H17  617   2.478   2.953   9.262 -1.0415  0.5858  1.6303
    9CHL1   C13  618   2.359   2.816   9.380 -0.3363  0.3625 -0.0106
    9CHL1   C18  619   2.255   2.703   9.367 -0.0638 -0.0980  0.0004
    9CHL1  H18A  620   2.297   2.628   9.296  2.1577  1.1254 -0.0445
    9CHL1  H18B  621   2.238   2.658   9.467 -1.9194 -0.0293 -0.2430
    9CHL1  H18C  622   2.154   2.739   9.338 -0.9413 -1.1252  1.6196
    9CHL1   C12  623   2.475   2.763   9.450 -0.5433  0.3004  0.2216
    9CHL1  H12A  624   2.526   2.676   9.405 -2.1531 -0.6248  0.0984
    9CHL1  H12B  625   2.544   2.849   9.460 -1.7272  1.5523 -1.7247
    9CHL1   C11  626   2.447   2.739   9.599  0.0794  0.6962  0.0267
    9CHL1  H11A  627   2.399   2.640   9.611 -1.2993  1.4639  1.2397
    9CHL1  H11B  628   2.548   2.720   9.642 -0.9161  1.8600  3.1882
    9CHL1    C9  629   2.362   2.847   9.674 -0.1175 -0.5045  0.1917
    9CHL1    H9  630   2.438   2.929   9.678  0.8209 -1.3675  2.3991
    9CHL1   C10  631   2.314   2.821   9.824  0.2815  0.5790  0.1928
    9CHL1   C19  632   2.252   2.681   9.832 -0.2747  0.5095 -0.2584
    9CHL1  H19A  633   2.227   2.645   9.935 -1.0294  1.3929 -0.1156
    9CHL1  H19B  634   2.160   2.674   9.771 -1.6699  1.1044  1.6743
    9CHL1  H19C  635   2.322   2.612   9.781 -0.6654  0.3483 -0.5781
    9CHL1    C1  636   2.438   2.829   9.915  0.1795 -0.4026  1.3956
    9CHL1   H1A  637   2.515   2.758   9.879 -0.3090  0.4434 -1.6086
    9CHL1   H1B  638   2.487   2.929   9.906 -0.5793 -0.2024 -1.3618
    9CHL1    C2  639   2.407   2.812  10.062  0.4604 -0.0859 -0.1676
    9CHL1   H2A  640   2.499   2.814  10.124  1.3863  1.6475 -1.5181
    9CHL1   H2B  641   2.355   2.714  10.065  0.8110 -0.2806 -0.4407
    9CHL1   C20  642   2.429   2.795   9.118 -0.5865 -0.0843  0.2843
    9CHL1   H20  643   2.344   2.724   9.108  0.5666 -1.4547 -0.1515
    9CHL1   C21  644   2.558   2.708   9.140 -0.3841 -0.2266  0.5789
    9CHL1  H21A  645   2.548   2.635   9.223  1.2391 -1.7682 -0.5063
    9CHL1  H21B  646   2.652   2.768   9.139  0.7576 -1.9155  0.9636
    9CHL1  H21C  647   2.569   2.639   9.053  1.4963  2.5117 -1.5346
    9CHL1   C22  648   2.444   2.874   8.979  0.5573  0.0893  0.3842
    9CHL1  H22A  649   2.484   2.790   8.918  0.2607 -0.3167  0.7364
    9CHL1  H22B  650   2.342   2.899   8.942  1.0708  0.9807 -0.4579
    9CHL1   C23  651   2.532   2.996   8.967  0.6887  0.7679 -0.7195
    9CHL1  H23A  652   2.500   3.079   9.034  3.0053  0.0841  1.3888
    9CHL1  H23B  653   2.635   2.977   9.005  0.7037  0.0382 -1.1090
    9CHL1   C24  654   2.550   3.035   8.817  0.0252 -0.5179  0.0828
    9CHL1  H24A  655   2.590   2.953   8.753  1.9822  1.3082 -1.1649
    9CHL1  H24B  656   2.447   3.061   8.785  0.2165 -0.2001 -0.2763
    9CHL1   C25  657   2.647   3.163   8.793  0.8132  0.0950 -0.2604
    9CHL1   H25  658   2.705   3.163   8.887 -0.3359 -0.9006  0.4800
    9CHL1   C26  659   2.735   3.138   8.673  0.2545 -0.1606  0.5051
    9CHL1  H26A  660   2.664   3.131   8.587 -1.5763  0.4360  1.8878
    9CHL1  H26B  661   2.801   3.225   8.658  0.5550  0.0365  2.6699
    9CHL1  H26C  662   2.790   3.041   8.680  1.2661  0.3351 -0.2733
    9CHL1   C27  663   2.566   3.291   8.786 -0.5422 -0.2915 -0.6510
    9CHL1  H27A  664   2.517   3.300   8.687 -2.3312 -2.5473 -0.0535
    9CHL1  H27B  665   2.481   3.279   8.857 -1.1435 -0.5083 -1.3999
    9CHL1  H27C  666   2.635   3.374   8.812 -0.7067  0.1843 -1.6860
   10CHL1    C3  667   4.110   6.413  10.236 -0.3056  0.2389  0.2764
   10CHL1    H3  668   4.158   6.499  10.186 -0.0617 -1.3330 -2.3470
   10CHL1    O3  669   4.129   6.430  10.375 -0.0654  0.4347 -0.0202
   10CHL1   H3'  670   4.069   6.377  10.428 -0.0559  2.3141  2.0281
   10CHL1    C4  671   3.959   6.430  10.213 -0.8750  0.1924  0.0030
   10CHL1   H4A  672   3.904   6.350  10.268  0.5504 -2.9428 -2.7508
   10CHL1   H4B  673   3.939   6.532  10.252  1.5558 -0.6977  4.1675
   10CHL1    C5  674   3.934   6.414  10.066  0.0475  0.0410  0.2439
   10CHL1    C6  675   3.885   6.513   9.994  0.4797  0.3085 -0.1460
   10CHL1    H6  676   3.865   6.609  10.044 -2.2398 -0.4207  0.3268
   10CHL1    C7  677   3.845   6.496   9.850 -0.3443  0.3412  0.1808
   10CHL1   H7A  678   3.743   6.541   9.843 -0.2594  0.4492 -0.4706
   10CHL1   H7B  679   3.921   6.559   9.798  0.9003 -0.7979  0.5941
   10CHL1    C8  680   3.843   6.346   9.799  0.8504 -0.2829 -0.1654
   10CHL1    H8  681   3.757   6.291   9.841 -0.2518  0.3785 -1.5082
   10CHL1   C14  682   3.840   6.337   9.653  0.3294  0.0685 -0.5509
   10CHL1   H14  683   3.941   6.366   9.617 -0.0187  0.9371 -0.8667
   10CHL1   C15  684   3.740   6.434   9.587 -0.5019  0.3842  0.5008
   10CHL1  H15A  685   3.637   6.427   9.628 -0.1520 -1.8395  1.1545
   10CHL1  H15B  686   3.781   6.537   9.582 -1.8982  1.1253  2.8191
   10CHL1   C16  687   3.741   6.368   9.443 -0.7883 -0.5967  0.3999
   10CHL1  H16A  688   3.642   6.325   9.418 -0.0950 -1.5127 -0.8546
   10CHL1  H16B  689   3.780   6.440   9.369 -0.4579  0.5811  1.6877
   10CHL1   C17  690   3.834   6.246   9.436 -0.5121 -0.1204 -0.1259
   10CHL1   H17  691   3.938   6.280   9.419 -0.2336 -0.6713  0.4455
   10CHL1   C13  692   3.832   6.203   9.584  0.5415 -0.3097  0.2202
   10CHL1   C18  693   3.692   6.143   9.618  0.0367 -0.9286  0.2291
   10CHL1  H18A  694   3.599   6.198   9.591  0.4711 -0.6025 -0.6527
   10CHL1  H18B  695   3.684   6.048   9.562 -0.8372 -1.7199  1.6330
   10CHL1  H18C  696   3.680   6.125   9.727  1.1331  0.4365  0.6147
   10CHL1   C12  697   3.947   6.121   9.638 -0.3001  0.4535 -0.7705
   10CHL1  H12A  698   3.944   6.012   9.614 -0.2086 -0.2481  2.1081
   10CHL1  H12B  699   4.040   6.156   9.588  1.5826 -0.3824  1.9359
   10CHL1   C11  700   3.955   6.110   9.793 -0.3101 -0.7601  0.1033
   10CHL1  H11A  701   3.870   6.057   9.840  0.0931 -1.2288  0.3237
   10CHL1  H11B  702   4.049   6.058   9.823  0.9971  1.7491  0.5508
   10CHL1    C9  703   3.955   6.261   9.857 -0.1126  0.4558 -0.0702
   10CHL1    H9  704   4.048   6.305   9.816  0.7702  0.5333  1.9163
   10CHL1   C10  705   3.966   6.278  10.008  0.3647 -0.2153 -0.1292
   10CHL1   C19  706   3.874   6.164  10.071  0.1398  0.0143  0.1267
   10CHL1  H19A  707   3.912   6.065  10.039 -0.2795 -1.0768  2.7430
   10CHL1  H19B  708   3.876   6.168  10.182 -2.1442  0.2894  0.2116
   10CHL1  H19C  709   3.768   6.166  10.038  0.4170  1.0809 -0.7985
   10CHL1    C1  710   4.120   6.248  10.038  1.1334 -0.1512 -1.4135
   10CHL1   H1A  711   4.131   6.139  10.020 -1.2817 -0.5881 -0.6110
   10CHL1   H1B  712   4.167   6.312   9.961 -1.3879  2.2649 -1.0833
   10CHL1    C2  713   4.160   6.276  10.182  0.3610 -0.1395 -0.0096
   10CHL1   H2A  714   4.267   6.259  10.206  0.4896 -0.6402 -0.9122
   10CHL1   H2B  715   4.097   6.207  10.243  0.6422  0.0506  0.5004
   10CHL1   C20  716   3.801   6.143   9.328  0.6763  0.2435 -1.0458
   10CHL1   H20  717   3.699   6.101   9.343  0.9382 -1.2003 -2.8879
   10CHL1   C21  718   3.896   6.023   9.327  0.0591 -0.5270  0.3266
   10CHL1  H21A  719   3.878   5.975   9.426 -0.1004 -0.6973  0.2138
   10CHL1  H21B  720   4.003   6.054   9.335  0.5248 -0.7687 -3.4182
   10CHL1  H21C  721   3.894   5.956   9.239 -1.1706 -0.6555  0.4378
   10CHL1   C22  722   3.804   6.198   9.189  1.4384  0.2017  0.4456
   10CHL1  H22A  723   3.785   6.110   9.123 -2.3523  1.4336 -0.3719
   10CHL1  H22B  724   3.715   6.259   9.162  1.1171 -1.1185 -1.7163
   10CHL1   C23  725   3.931   6.274   9.148 -0.3321  0.0060 -0.5920
   10CHL1  H23A  726   3.932   6.372   9.200  0.3387 -0.8910  1.1989
   10CHL1  H23B  727   4.023   6.220   9.180 -0.6496 -0.2739 -0.1314
   10CHL1   C24  728   3.932   6.291   8.994 -0.0093 -0.4795  0.1939
   10CHL1  H24A  729   3.941   6.194   8.942 -4.9336 -0.5383 -0.9930
   10CHL1  H24B  730   3.835   6.323   8.951  0.1645 -3.1313 -2.4624
   10CHL1   C25  731   4.042   6.383   8.934 -0.5178  0.6191  0.9017
   10CHL1   H25  732   4.038   6.487   8.973 -0.8745  0.6661  0.7494
   10CHL1   C26  733   4.183   6.318   8.963  0.6946 -0.6428 -0.1265
   10CHL1  H26A  734   4.196   6.301   9.072 -2.0661 -1.2212  0.1786
   10CHL1  H26B  735   4.174   6.216   8.921  0.2695 -1.5625  2.0577
   10CHL1  H26C  736   4.251   6.376   8.897 -1.0059  1.3274 -0.2724
   10CHL1   C27  737   4.018   6.408   8.778  0.1989 -0.5373  0.7645
   10CHL1  H27A  738   4.107   6.461   8.740 -0.2392  0.4406  1.0869
   10CHL1  H27B  739   4.003   6.317   8.716  0.8661 -0.1896  0.0808
   10CHL1  H27C  740   3.927   6.470   8.766  1.5652  1.3556 -0.2591
   11CHL1    C3  741   0.043   4.683   9.990  0.3942 -0.0285 -0.4042
   11CHL1    H3  742   0.121   4.603   9.996  0.3843  0.0977  3.6116
   11CHL1    O3  743   0.006   4.706  10.121 -0.1024  0.2876 -0.6360
   11CHL1   H3'  744   0.039   4.792  10.148  1.7367 -1.0514  1.8207
   11CHL1    C4  745   0.084   4.818   9.931 -0.4690  0.3006 -0.1207
   11CHL1   H4A  746  -0.006   4.883   9.935 -2.7846 -2.6297 -1.0970
   11CHL1   H4B  747   0.172   4.854   9.989 -1.5570  0.3670  1.5840
   11CHL1    C5  748   0.122   4.804   9.788 -0.2583  0.4358 -0.0525
   11CHL1    C6  749   0.243   4.825   9.732  1.1093 -0.3260  0.0777
   11CHL1    H6  750   0.325   4.861   9.797  0.3494 -1.0296  1.4667
   11CHL1    C7  751   0.271   4.823   9.582  0.2318 -0.5695 -0.5078
   11CHL1   H7A  752   0.316   4.921   9.552 -1.0067  0.2231  0.1581
   11CHL1   H7B  753   0.333   4.733   9.565  2.2423  0.9103 -1.5430
   11CHL1    C8  754   0.145   4.823   9.498 -0.3885 -0.2917 -0.0545
   11CHL1    H8  755   0.104   4.926   9.494  0.9736  0.4444  2.4060
   11CHL1   C14  756   0.185   4.777   9.354  0.2186 -0.4708 -0.4159
   11CHL1   H14  757   0.221   4.672   9.358  2.7268  0.2315 -2.2630
   11CHL1   C15  758   0.286   4.866   9.295  0.3661  0.0325  0.2336
   11CHL1  H15A  759   0.272   4.974   9.319  0.7835  0.0928  0.2214
   11CHL1  H15B  760   0.384   4.831   9.334  1.6954  3.2503  0.1341
   11CHL1   C16  761   0.276   4.850   9.141  0.4884 -0.0786  0.5950
   11CHL1  H16A  762   0.260   4.943   9.083  0.6688 -1.5419 -1.9250
   11CHL1  H16B  763   0.365   4.798   9.102  0.9959  2.9014 -2.7395
   11CHL1   C17  764   0.155   4.750   9.120 -0.2977 -0.2188 -0.2017
   11CHL1   H17  765   0.194   4.647   9.129  0.0827  0.1214  3.9926
   11CHL1   C13  766   0.069   4.770   9.249 -0.4835 -0.7122  0.4813
   11CHL1   C18  767   0.003   4.912   9.242  0.2595 -0.3507 -0.5102
   11CHL1  H18A  768   0.066   4.995   9.204 -1.1474  1.2357  0.4878
   11CHL1  H18B  769  -0.090   4.918   9.183  0.7145  1.4141 -1.0877
   11CHL1  H18C  770  -0.032   4.963   9.334  2.8832 -0.1280  0.4584
   11CHL1   C12  771  -0.024   4.661   9.301  0.2143  0.1550  0.9224
   11CHL1  H12A  772  -0.123   4.675   9.253  0.5063  0.4156  0.3788
   11CHL1  H12B  773   0.017   4.561   9.275  0.2007  0.6620 -1.2558
   11CHL1   C11  774  -0.064   4.680   9.449  0.4897  0.0858 -0.2103
   11CHL1  H11A  775  -0.138   4.762   9.443 -0.2696 -0.6619 -1.4145
   11CHL1  H11B  776  -0.122   4.592   9.484 -0.0286  0.7210  0.5868
   11CHL1    C9  777   0.044   4.725   9.556  0.0892 -0.2279  0.8716
   11CHL1    H9  778   0.107   4.634   9.553  3.3736  1.9173 -1.4692
   11CHL1   C10  779   0.002   4.753   9.700 -0.4341 -0.3289  0.6133
   11CHL1   C19  780  -0.107   4.859   9.698 -0.2853  0.1535  0.1038
   11CHL1  H19A  781  -0.147   4.890   9.797 -0.3547  0.2345  0.0504
   11CHL1  H19B  782  -0.061   4.951   9.658 -0.3226  0.3752  0.5606
   11CHL1  H19C  783  -0.198   4.834   9.640 -0.6119  4.1366 -1.3759
   11CHL1    C1  784  -0.061   4.625   9.760 -0.4486 -0.1859 -0.3289
   11CHL1   H1A  785  -0.160   4.616   9.709  0.3681 -0.6334 -1.9080
   11CHL1   H1B  786   0.009   4.543   9.733 -0.5001  0.0550 -1.2255
   11CHL1    C2  787  -0.082   4.624   9.913  0.8636 -0.5762  0.5066
   11CHL1   H2A  788  -0.122   4.529   9.954 -0.6158 -0.0910  0.2381
   11CHL1   H2B  789  -0.163   4.699   9.926 -1.5758 -2.7044 -1.3818
   11CHL1   C20  790   0.086   4.767   8.982 -0.6141 -0.6785 -0.7357
   11CHL1   H20  791   0.027   4.861   8.989  2.1866  1.1101  0.5810
   11CHL1   C21  792  -0.016   4.654   8.953  0.0894 -0.0270  0.5903
   11CHL1  H21A  793  -0.114   4.674   9.003 -0.5664 -1.4577 -0.0629
   11CHL1  H21B  794   0.004   4.553   8.994 -0.8033 -0.5288 -0.1508
   11CHL1  H21C  795  -0.024   4.643   8.843  0.5905  1.6517  0.3509
   11CHL1   C22  796   0.184   4.774   8.864  0.3258 -0.2895  0.7843
   11CHL1  H22A  797   0.124   4.784   8.770  0.0338 -0.2126  0.9769
   11CHL1  H22B  798   0.238   4.871   8.863  2.6079 -1.4586 -1.8794
   11CHL1   C23  799   0.271   4.654   8.854  0.2623  0.2374 -0.4722
   11CHL1  H23A  800   0.354   4.657   8.928 -0.0866 -2.7498  0.1759
   11CHL1  H23B  801   0.210   4.566   8.885  0.2903  0.7574  1.1318
   11CHL1   C24  802   0.320   4.631   8.706  0.1210  0.5031 -0.4570
   11CHL1  H24A  803   0.381   4.538   8.709  3.4508  2.5725  0.3801
   11CHL1  H24B  804   0.244   4.615   8.627 -0.3023  2.7762 -0.5731
   11CHL1   C25  805   0.415   4.736   8.650 -0.9085 -0.0394  0.3329
   11CHL1   H25  806   0.362   4.834   8.658  1.2468  1.3031 -0.8068
   11CHL1   C26  807   0.556   4.742   8.718  0.2418  0.3689  0.1810
   11CHL1  H26A  808   0.542   4.777   8.823 -1.0171  2.7242 -0.6866
   11CHL1  H26B  809   0.615   4.649   8.708 -1.1790 -0.3505 -2.5231
   11CHL1  H26C  810   0.621   4.818   8.669  1.5805 -2.0422 -1.9917
   11CHL1   C27  811   0.430   4.718   8.496 -0.2657  0.5299  0.2147
   11CHL1  H27A  812   0.469   4.617   8.470  1.1602  0.9673  0.5454
   11CHL1  H27B  813   0.335   4.737   8.442 -0.1238  0.3150 -0.1185
   11CHL1  H27C  814   0.501   4.789   8.449 -0.5432 -0.2330 -1.4625
   12CHL1    C3  815   3.099   4.788  10.256 -0.5293  0.3122 -0.4264
   12CHL1    H3  816   3.203   4.751  10.244 -1.0064 -1.7416  1.2383
   12CHL1    O3  817   3.083   4.825  10.391  0.6526 -0.2380  0.0419
   12CHL1   H3'  818   3.134   4.905  10.406  0.8538  0.0592 -2.0266
   12CHL1    C4  819   3.072   4.915  10.166 -0.4478  0.2324 -0.3223
   12CHL1   H4A  820   2.976   4.966  10.187  0.8911  3.5145 -1.5534
   12CHL1   H4B  821   3.143   4.994  10.197 -0.5646  0.4302 -0.5502
   12CHL1    C5  822   3.092   4.884  10.011  1.4386  0.6693 -0.5881
   12CHL1    C6  823   3.188   4.950   9.946  0.4343  0.7826 -0.3556
   12CHL1    H6  824   3.253   5.016  10.005 -0.0542 -0.3810  1.6060
   12CHL1    C7  825   3.201   4.937   9.794  0.0289 -0.2219 -0.3688
   12CHL1   H7A  826   3.198   5.036   9.743 -1.0315  0.5148  1.0749
   12CHL1   H7B  827   3.304   4.901   9.773  0.0483  0.1040 -0.8520
   12CHL1    C8  828   3.097   4.838   9.733  0.1007 -0.4925 -0.0806
   12CHL1    H8  829   2.997   4.887   9.732 -0.7691 -2.1141  1.5656
   12CHL1   C14  830   3.144   4.790   9.598  0.2147  0.0381 -0.2883
   12CHL1   H14  831   3.231   4.726   9.621 -0.9094 -0.9319  1.4169
   12CHL1   C15  832   3.182   4.889   9.489  0.5917  0.0836 -0.0312
   12CHL1  H15A  833   3.100   4.962   9.477 -0.7560 -1.5798 -1.4276
   12CHL1  H15B  834   3.272   4.948   9.517 -1.0442  3.0236 -0.5439
   12CHL1   C16  835   3.196   4.795   9.366 -0.7511  0.1289  0.4011
   12CHL1  H16A  836   3.137   4.838   9.282 -0.2196 -1.0471 -0.6023
   12CHL1  H16B  837   3.304   4.779   9.344 -1.2114 -1.8582 -0.6283
   12CHL1   C17  838   3.126   4.656   9.401 -0.0044  0.8166 -0.2416
   12CHL1   H17  839   3.201   4.585   9.443 -2.1373 -1.1980  0.3973
   12CHL1   C13  840   3.048   4.686   9.532  0.0662  0.1152  0.2255
   12CHL1   C18  841   2.911   4.758   9.497 -0.2764  0.3558  0.2823
   12CHL1  H18A  842   2.846   4.693   9.435  1.4502 -1.3814  0.2037
   12CHL1  H18B  843   2.860   4.787   9.592 -0.0400 -1.1608  0.8987
   12CHL1  H18C  844   2.920   4.850   9.436 -1.9521 -0.9997 -2.1865
   12CHL1   C12  845   3.037   4.561   9.623  0.1444  0.4350 -0.2833
   12CHL1  H12A  846   2.965   4.497   9.569  0.5467  1.6383 -2.3403
   12CHL1  H12B  847   3.136   4.512   9.638  0.0549  1.0980  3.5599
   12CHL1   C11  848   2.986   4.605   9.758 -0.3035 -0.1783  0.2197
   12CHL1  H11A  849   2.882   4.644   9.761  0.1083  0.8766  2.0501
   12CHL1  H11B  850   2.977   4.520   9.828 -1.4870 -0.9822 -0.8500
   12CHL1    C9  851   3.059   4.725   9.827 -0.0958  0.2344  0.5934
   12CHL1    H9  852   3.160   4.682   9.843  0.1693  0.3055 -0.7629
   12CHL1   C10  853   2.999   4.769   9.966 -0.5019 -0.3618 -0.1207
   12CHL1   C19  854   2.857   4.807   9.967  0.4815  0.3419 -0.0886
   12CHL1  H19A  855   2.787   4.722   9.950 -0.5672  1.4864 -1.7226
   12CHL1  H19B  856   2.814   4.857  10.057 -2.0903 -0.6129 -0.6897
   12CHL1  H19C  857   2.840   4.874   9.880 -0.6751  0.9728  0.6011
   12CHL1    C1  858   3.019   4.647  10.063 -0.0245 -0.0901 -0.6512
   12CHL1   H1A  859   2.939   4.572  10.042 -1.1348  1.0402 -0.6092
   12CHL1   H1B  860   3.125   4.615  10.054  0.1335 -0.3079  1.4923
   12CHL1    C2  861   3.005   4.680  10.215  0.0431  0.4889  0.6713
   12CHL1   H2A  862   3.032   4.588  10.270  1.0205 -0.9667 -2.0411
   12CHL1   H2B  863   2.899   4.704  10.235 -1.0409 -2.4211 -1.0754
   12CHL1   C20  864   3.064   4.587   9.279  0.3119 -0.2541  0.2083
   12CHL1   H20  865   2.981   4.646   9.236  1.0012 -0.8119 -2.0397
   12CHL1   C21  866   3.002   4.452   9.309  0.2108 -0.0665  0.2062
   12CHL1  H21A  867   3.078   4.384   9.353  0.9092  0.4674 -0.1466
   12CHL1  H21B  868   2.970   4.400   9.216 -1.4385 -0.3980  0.9305
   12CHL1  H21C  869   2.920   4.458   9.384  0.4581 -0.9000  0.5437
   12CHL1   C22  870   3.156   4.588   9.158 -0.8014  0.0968  0.2084
   12CHL1  H22A  871   3.107   4.525   9.081 -0.3922  0.1452 -0.0961
   12CHL1  H22B  872   3.174   4.689   9.114  1.7855 -0.3992 -0.0366
   12CHL1   C23  873   3.295   4.521   9.182 -0.2610  0.4785  0.1228
   12CHL1  H23A  874   3.366   4.594   9.225 -1.9948  1.7018  1.0505
   12CHL1  H23B  875   3.283   4.438   9.255 -1.2025  0.6365  0.1661
   12CHL1   C24  876   3.356   4.452   9.055 -0.2271  0.0061  0.4105
   12CHL1  H24A  877   3.288   4.378   9.009 -0.6717 -0.7580  2.2406
   12CHL1  H24B  878   3.376   4.533   8.981  0.6520 -0.6699 -0.1086
   12CHL1   C25  879   3.491   4.382   9.073  0.3693  0.1772 -1.0211
   12CHL1   H25  880   3.496   4.328   9.171 -0.7223  3.0448  0.7294
   12CHL1   C26  881   3.520   4.291   8.952  0.3101  0.4570  0.3864
   12CHL1  H26A  882   3.506   4.343   8.855  1.6549  2.0066  0.9917
   12CHL1  H26B  883   3.628   4.267   8.963 -0.0673 -2.4649 -1.3244
   12CHL1  H26C  884   3.462   4.195   8.955 -0.7441  1.0496 -0.3588
   12CHL1   C27  885   3.615   4.484   9.090 -0.0256  0.3168 -0.5233
   12CHL1  H27A  886   3.713   4.434   9.104 -0.5044 -0.8977 -1.3986
   12CHL1  H27B  887   3.621   4.543   8.996 -0.1052  1.0961 -0.0552
   12CHL1  H27C  888   3.595   4.548   9.180  1.8156  0.4681 -0.1812
   13CHL1    C3  889   3.541   0.817  10.094  0.0790 -0.3556  0.1268
   13CHL1    H3  890   3.643   0.781  10.069  0.0899  0.1613 -0.6038
   13CHL1    O3  891   3.510   0.819  10.236 -0.3214 -0.3601 -0.0438
   13CHL1   H3'  892   3.590   0.859  10.271  0.7453 -2.4817  0.0741
   13CHL1    C4  893   3.542   0.967  10.045 -0.1008  0.8174 -0.4701
   13CHL1   H4A  894   3.444   1.008  10.076 -0.7671 -1.0382  0.0057
   13CHL1   H4B  895   3.621   1.025  10.099  1.0524  0.3163 -1.5705
   13CHL1    C5  896   3.542   0.983   9.896  0.7850  0.2427 -0.0893
   13CHL1    C6  897   3.630   1.063   9.841 -0.5952 -0.1130  0.1425
   13CHL1    H6  898   3.702   1.117   9.904  0.4307 -0.9633 -0.2605
   13CHL1    C7  899   3.636   1.077   9.692 -0.0501  1.4388  0.4880
   13CHL1   H7A  900   3.673   1.176   9.658 -0.4564  0.8319 -1.8626
   13CHL1   H7B  901   3.714   1.013   9.647 -0.9111 -0.8784  2.1087
   13CHL1    C8  902   3.509   1.046   9.613  0.1045 -0.0312 -0.2600
   13CHL1    H8  903   3.432   1.119   9.646 -0.5038 -1.2529  1.1442
   13CHL1   C14  904   3.537   1.035   9.466  0.2682 -0.1660  0.0641
   13CHL1   H14  905   3.615   0.962   9.434  0.5392  0.8028 -1.6399
   13CHL1   C15  906   3.587   1.166   9.404 -0.3919  0.1257 -0.3689
   13CHL1  H15A  907   3.536   1.256   9.446 -2.3643  0.3444 -3.0016
   13CHL1  H15B  908   3.697   1.169   9.420 -0.7385  1.7209  2.5129
   13CHL1   C16  909   3.555   1.148   9.253  0.0748 -0.3889  0.2542
   13CHL1  H16A  910   3.496   1.233   9.214 -0.8869  0.1224  2.6353
   13CHL1  H16B  911   3.648   1.132   9.193  0.7744 -1.3835  1.5514
   13CHL1   C17  912   3.461   1.024   9.241 -1.5977 -0.0741  0.4900
   13CHL1   H17  913   3.532   0.942   9.218 -1.3167  0.4672 -0.6543
   13CHL1   C13  914   3.409   0.994   9.384  0.3572 -0.2117 -0.1770
   13CHL1   C18  915   3.289   1.087   9.417 -0.1235  0.0838  1.3975
   13CHL1  H18A  916   3.300   1.186   9.367 -0.6972 -0.0842  0.9272
   13CHL1  H18B  917   3.197   1.043   9.372  0.9693 -2.2490  1.2712
   13CHL1  H18C  918   3.261   1.114   9.521  0.6542  1.9026  1.1607
   13CHL1   C12  919   3.355   0.855   9.422 -0.9246  0.1941  0.3177
   13CHL1  H12A  920   3.264   0.823   9.369 -0.4009  0.2505 -0.6419
   13CHL1  H12B  921   3.428   0.771   9.417  0.6470  1.5526 -0.8377
   13CHL1   C11  922   3.330   0.855   9.578 -0.0547 -0.5977 -0.1790
   13CHL1  H11A  923   3.242   0.919   9.600 -0.1757 -0.2613 -1.5610
   13CHL1  H11B  924   3.309   0.751   9.613  1.5948 -0.1595  2.3610
   13CHL1    C9  925   3.454   0.911   9.655 -0.1173  0.5847 -0.0808
   13CHL1    H9  926   3.535   0.840   9.628 -0.9457 -1.2352  1.9337
   13CHL1   C10  927   3.437   0.907   9.809 -0.3780  0.0186  0.4196
   13CHL1   C19  928   3.306   0.990   9.841  0.3616 -0.2720 -1.0087
   13CHL1  H19A  929   3.321   1.099   9.830 -2.2749  0.2546 -0.1630
   13CHL1  H19B  930   3.218   0.950   9.786  1.6229 -2.0287 -1.8629
   13CHL1  H19C  931   3.280   0.992   9.949 -1.6590  0.2855 -1.4541
   13CHL1    C1  932   3.437   0.762   9.869 -0.2534 -0.2576  0.8335
   13CHL1   H1A  933   3.343   0.712   9.836 -0.9468  1.9952 -0.8427
   13CHL1   H1B  934   3.524   0.704   9.830  0.0756 -0.7210  2.1918
   13CHL1    C2  935   3.433   0.737  10.025 -0.1275  0.5791 -0.0370
   13CHL1   H2A  936   3.428   0.628  10.043 -0.1952  0.3028 -1.6463
   13CHL1   H2B  937   3.342   0.785  10.067  1.0226  3.6181 -0.7298
   13CHL1   C20  938   3.369   1.036   9.116  0.7708  0.3242 -0.1871
   13CHL1   H20  939   3.290   1.112   9.133 -0.1387 -0.6454  0.0226
   13CHL1   C21  940   3.298   0.903   9.089  0.0073 -0.4554  0.4911
   13CHL1  H21A  941   3.237   0.914   8.997  2.0930  0.2049 -0.8799
   13CHL1  H21B  942   3.228   0.875   9.171  1.1459  0.4083  1.7972
   13CHL1  H21C  943   3.371   0.823   9.062 -0.3307 -1.2259  1.7430
   13CHL1   C22  944   3.450   1.078   8.987 -0.1363 -0.2344  0.9501
   13CHL1  H22A  945   3.368   1.075   8.912  0.0392  1.7501  0.6284
   13CHL1  H22B  946   3.503   1.175   8.992 -1.0415  0.3716 -0.6016
   13CHL1   C23  947   3.559   0.986   8.936 -0.7311  0.1411  0.0417
   13CHL1  H23A  948   3.625   0.959   9.021  0.9804  1.0252 -0.9629
   13CHL1  H23B  949   3.518   0.891   8.894  2.9720 -0.8955 -1.6295
   13CHL1   C24  950   3.637   1.053   8.823 -0.4272  0.5889 -0.1140
   13CHL1  H24A  951   3.669   1.154   8.857  0.6543 -0.3867  1.9815
   13CHL1  H24B  952   3.730   0.994   8.817 -0.6734  0.3223 -1.5575
   13CHL1   C25  953   3.553   1.069   8.695 -0.4439 -0.3236  0.1741
   13CHL1   H25  954   3.463   1.131   8.713 -0.2090  0.2738 -0.6735
   13CHL1   C26  955   3.630   1.132   8.582  0.2553  0.2322 -0.3891
   13CHL1  H26A  956   3.715   1.071   8.546 -1.1491 -1.3208 -1.2298
   13CHL1  H26B  957   3.574   1.153   8.488 -0.4120 -0.6714 -0.2023
   13CHL1  H26C  958   3.665   1.230   8.620 -0.8313  0.3893  0.2558
   13CHL1   C27  959   3.494   0.936   8.638  0.1375 -0.3877 -0.3107
   13CHL1  H27A  960   3.582   0.876   8.607  0.3314 -1.1391  1.5266
   13CHL1  H27B  961   3.453   0.866   8.714  1.8621 -1.6953 -0.5243
   13CHL1  H27C  962   3.415   0.956   8.563 -0.3019 -0.0442  0.2337
   14CHL1    C3  963   1.517   6.110  10.560  0.1495  0.4771  0.5381
   14CHL1    H3  964   1.617   6.111  10.511  0.7879 -1.9825  1.6405
   14CHL1    O3  965   1.529   6.154  10.696 -0.2505 -0.4245  0.2064
   14CHL1   H3'  966   1.452   6.122  10.744 -0.6872  0.0394 -0.1632
   14CHL1    C4  967   1.408   6.188  10.489  0.3339  0.0756 -0.0150
   14CHL1   H4A  968   1.318   6.185  10.554 -0.1094  1.5480 -0.5226
   14CHL1   H4B  969   1.450   6.290  10.475 -0.6557  0.3974 -0.7527
   14CHL1    C5  970   1.363   6.133  10.357  1.1885  1.1178  0.5165
   14CHL1    C6  971   1.373   6.206  10.244  0.0781  0.1540  0.3258
   14CHL1    H6  972   1.419   6.306  10.240  1.0988 -0.2794  0.8833
   14CHL1    C7  973   1.322   6.161  10.111 -0.1524 -0.0661 -0.2935
   14CHL1   H7A  974   1.264   6.243  10.063 -1.3460 -0.3137  0.6997
   14CHL1   H7B  975   1.405   6.145  10.039 -0.9329  1.7375 -1.6634
   14CHL1    C8  976   1.241   6.024  10.114  0.4067  0.4772 -0.4464
   14CHL1    H8  977   1.138   6.044  10.150  0.1793  0.0405 -0.8398
   14CHL1   C14  978   1.240   5.960   9.976  0.0311  0.3002 -0.6121
   14CHL1   H14  979   1.347   5.958   9.947  1.1173  1.2412  2.8687
   14CHL1   C15  980   1.185   6.052   9.865  0.7254 -0.2955  0.4293
   14CHL1  H15A  981   1.091   6.099   9.902  1.2270  1.5418 -0.5218
   14CHL1  H15B  982   1.256   6.127   9.824 -0.4427 -0.1206 -1.3737
   14CHL1   C16  983   1.156   5.946   9.754 -0.2640 -0.3243 -0.0390
   14CHL1  H16A  984   1.052   5.972   9.723 -0.0677  2.0493  1.0787
   14CHL1  H16B  985   1.224   5.969   9.670 -2.3560  0.3681 -1.6464
   14CHL1   C17  986   1.184   5.806   9.813 -0.4532 -0.0275  0.0120
   14CHL1   H17  987   1.288   5.775   9.788 -1.1820 -1.3851 -1.3984
   14CHL1   C13  988   1.173   5.826   9.965  0.2927  0.2837 -0.0752
   14CHL1   C18  989   1.024   5.832  10.005  0.3443 -1.0615  0.6593
   14CHL1  H18A  990   0.971   5.918   9.958  1.4163  0.1660  1.6382
   14CHL1  H18B  991   0.977   5.733   9.991  1.9160 -1.6183 -1.1326
   14CHL1  H18C  992   1.024   5.849  10.114 -0.3404 -0.0039  0.5076
   14CHL1   C12  993   1.248   5.727  10.060 -0.6341  0.1313  0.8434
   14CHL1  H12A  994   1.201   5.627  10.058  1.2758 -0.8161 -2.0006
   14CHL1  H12B  995   1.354   5.720  10.026 -0.5535 -2.5048  1.4468
   14CHL1   C11  996   1.257   5.772  10.205  0.1023  0.3310 -0.8235
   14CHL1  H11A  997   1.155   5.759  10.248  0.5014 -0.0454  0.0403
   14CHL1  H11B  998   1.327   5.705  10.260 -1.3753  0.0388  0.8101
   14CHL1    C9  999   1.307   5.919  10.214 -0.0882 -0.1011 -0.0801
   14CHL1    H9 1000   1.407   5.912  10.166  0.6199  3.0373  0.7234
   14CHL1   C10 1001   1.324   5.974  10.353  0.4077 -0.3477 -0.1856
   14CHL1   C19 1002   1.180   5.967  10.415 -0.2488 -0.4292  0.2798
   14CHL1  H19A 1003   1.128   6.055  10.370  1.3288  1.6068  2.1890
   14CHL1  H19B 1004   1.139   5.864  10.418  1.6033 -1.2582 -1.0670
   14CHL1  H19C 1005   1.177   5.991  10.524 -0.3951 -0.6329  0.3203
   14CHL1    C1 1006   1.436   5.897  10.432  0.6625  0.2778  0.4156
   14CHL1   H1A 1007   1.410   5.789  10.437 -3.4752  1.0554 -0.0643
   14CHL1   H1B 1008   1.517   5.889  10.357  1.4524  0.4705  1.2360
   14CHL1    C2 1009   1.478   5.961  10.567 -0.0114  0.6788  0.6160
   14CHL1   H2A 1010   1.555   5.901  10.620 -0.5938  0.3653  1.1307
   14CHL1   H2B 1011   1.396   5.952  10.642 -0.3058  1.7072  0.4313
   14CHL1   C20 1012   1.093   5.708   9.744  0.8388  0.9257 -0.4563
   14CHL1   H20 1013   0.987   5.738   9.755  0.0173 -1.8993  0.2050
   14CHL1   C21 1014   1.105   5.567   9.814 -0.3067  0.8678  0.0034
   14CHL1  H21A 1015   1.054   5.567   9.912 -0.9864  1.4378 -0.3397
   14CHL1  H21B 1016   1.209   5.532   9.831 -0.3532  0.8057  0.1511
   14CHL1  H21C 1017   1.067   5.485   9.749  1.6655 -1.2111  1.3360
   14CHL1   C22 1018   1.117   5.706   9.590 -0.0361  0.3133  0.2213
   14CHL1  H22A 1019   1.139   5.805   9.545 -1.0044 -0.0201 -1.0599
   14CHL1  H22B 1020   1.216   5.657   9.573 -0.0170  0.4409 -0.0502
   14CHL1   C23 1021   1.015   5.631   9.500 -0.2957 -0.3416  0.2267
   14CHL1  H23A 1022   1.004   5.529   9.542  1.0895  0.2614  2.2263
   14CHL1  H23B 1023   0.922   5.691   9.511  0.9914  1.9104 -0.3625
   14CHL1   C24 1024   1.062   5.638   9.358  0.1500  0.1183 -0.7336
   14CHL1  H24A 1025   1.041   5.744   9.332 -1.1633  0.7244  2.2699
   14CHL1  H24B 1026   1.165   5.604   9.337  0.6245  0.2064  1.2537
   14CHL1   C25 1027   0.973   5.550   9.274 -0.0378 -0.0107  0.4495
   14CHL1   H25 1028   0.869   5.560   9.310 -0.0662 -0.7534  0.5953
   14CHL1   C26 1029   0.987   5.582   9.119 -0.2962 -0.4110  0.0586
   14CHL1  H26A 1030   1.094   5.564   9.094 -0.2616 -0.7671  0.4461
   14CHL1  H26B 1031   0.916   5.522   9.059 -1.5998 -0.5914  1.6935
   14CHL1  H26C 1032   0.962   5.687   9.095  0.1672 -0.8861 -2.8861
   14CHL1   C27 1033   1.019   5.404   9.292 -0.4506  0.1631  0.2551
   14CHL1  H27A 1034   0.970   5.359   9.381 -1.0608 -2.9014 -1.5127
   14CHL1  H27B 1035   0.976   5.336   9.215  1.6462 -1.5975  0.5454
   14CHL1  H27C 1036   1.130   5.396   9.295 -0.4296  0.4592  0.3175
   15CHL1    C3 1037   0.694   2.586  10.126  0.0846  0.0693  0.6864
   15CHL1    H3 1038   0.798   2.549  10.118 -0.6235 -1.8431 -0.1439
   15CHL1    O3 1039   0.661   2.600  10.260 -0.0267  0.1368 -0.0854
   15CHL1   H3' 1040   0.566   2.610  10.263  0.1519  1.8933  0.7425
   15CHL1    C4 1041   0.689   2.716  10.045 -0.4876 -0.5169 -0.0287
   15CHL1   H4A 1042   0.583   2.746  10.053  0.2956  2.1361  1.5064
   15CHL1   H4B 1043   0.755   2.789  10.096  1.3676 -2.4412  0.4616
   15CHL1    C5 1044   0.721   2.692   9.897 -0.3746  0.2824  0.0651
   15CHL1    C6 1045   0.835   2.748   9.850  0.2802  0.2552 -0.1376
   15CHL1    H6 1046   0.898   2.810   9.915  0.6709  1.1695 -1.3475
   15CHL1    C7 1047   0.881   2.735   9.707 -0.3440  0.9062  0.2251
   15CHL1   H7A 1048   0.918   2.829   9.661  0.1563  1.0015  0.8035
   15CHL1   H7B 1049   0.963   2.660   9.707  0.3389  1.6074 -1.4438
   15CHL1    C8 1050   0.769   2.687   9.610  0.3400  0.6251 -0.0677
   15CHL1    H8 1051   0.699   2.773   9.600 -0.3683 -0.0893 -1.5267
   15CHL1   C14 1052   0.823   2.656   9.471  0.3563 -0.1857  1.0710
   15CHL1   H14 1053   0.887   2.566   9.487  0.2806 -0.5064 -0.2946
   15CHL1   C15 1054   0.911   2.760   9.395 -0.1754  0.4815 -0.1878
   15CHL1  H15A 1055   0.874   2.862   9.417  0.2559  0.2753  1.7659
   15CHL1  H15B 1056   1.017   2.762   9.431 -0.3620 -0.4636  0.4584
   15CHL1   C16 1057   0.907   2.707   9.250 -0.3220  0.7033  0.0388
   15CHL1  H16A 1058   0.880   2.793   9.185 -0.4352 -0.1642 -1.0938
   15CHL1  H16B 1059   1.007   2.667   9.221 -0.9365 -0.4831 -0.5402
   15CHL1   C17 1060   0.803   2.583   9.243 -0.5021  0.1290  0.3949
   15CHL1   H17 1061   0.858   2.488   9.261 -3.7280 -1.8822  0.2597
   15CHL1   C13 1062   0.715   2.610   9.372  0.3290 -0.3586 -0.3539
   15CHL1   C18 1063   0.618   2.728   9.331 -0.3322  0.0674 -0.2535
   15CHL1  H18A 1064   0.582   2.786   9.420  0.8029 -0.1629  0.3675
   15CHL1  H18B 1065   0.667   2.806   9.269  1.5768  0.4273  1.5857
   15CHL1  H18C 1066   0.523   2.705   9.278 -0.1033  1.0733 -1.1358
   15CHL1   C12 1067   0.640   2.492   9.429  0.1568  0.4096 -0.1883
   15CHL1  H12A 1068   0.550   2.473   9.367 -0.9231  0.5124  1.2825
   15CHL1  H12B 1069   0.712   2.408   9.420  1.5399  1.5561 -0.0574
   15CHL1   C11 1070   0.586   2.515   9.572  0.5427  0.6748  0.2154
   15CHL1  H11A 1071   0.498   2.584   9.565  0.0566  0.4352  2.7345
   15CHL1  H11B 1072   0.550   2.420   9.617  1.1931  0.8376  1.1015
   15CHL1    C9 1073   0.692   2.576   9.675 -0.0443 -0.1310 -0.0279
   15CHL1    H9 1074   0.763   2.492   9.689 -0.4740 -0.5341 -0.2505
   15CHL1   C10 1075   0.634   2.595   9.816 -0.4585 -0.5223  0.3261
   15CHL1   C19 1076   0.487   2.651   9.809 -0.1206  0.1990 -0.3347
   15CHL1  H19A 1077   0.441   2.672   9.908 -0.5852 -1.2044 -0.2259
   15CHL1  H19B 1078   0.479   2.737   9.740 -1.9719  1.4481  1.3238
   15CHL1  H19C 1079   0.413   2.574   9.778 -0.8318  0.4397  0.7234
   15CHL1    C1 1080   0.649   2.467   9.904 -0.2478  1.0502  0.5630
   15CHL1   H1A 1081   0.586   2.388   9.857  0.2900  0.8580  0.1473
   15CHL1   H1B 1082   0.755   2.434   9.904 -0.9000 -1.2069 -0.3686
   15CHL1    C2 1083   0.600   2.486  10.053  0.1527 -0.2380  0.1158
   15CHL1   H2A 1084   0.597   2.385  10.098  0.2363  0.7525  2.4919
   15CHL1   H2B 1085   0.495   2.522  10.053  0.6987  1.5331 -0.8936
   15CHL1   C20 1086   0.739   2.575   9.101 -0.5823 -0.3523 -0.1603
   15CHL1   H20 1087   0.679   2.665   9.077 -0.6472 -0.2956  0.1976
   15CHL1   C21 1088   0.632   2.464   9.089 -0.5790 -0.1213 -0.4450
   15CHL1  H21A 1089   0.676   2.364   9.108  0.8597  0.8705  1.9831
   15CHL1  H21B 1090   0.594   2.469   8.985  0.3434 -1.5103 -0.8723
   15CHL1  H21C 1091   0.546   2.485   9.157  0.4100  2.5381  0.1019
   15CHL1   C22 1092   0.852   2.557   8.995  0.4625  0.0045 -0.7558
   15CHL1  H22A 1093   0.953   2.550   9.040  0.8006 -0.6229 -1.5852
   15CHL1  H22B 1094   0.844   2.455   8.951 -0.2791 -0.5133  0.5188
   15CHL1   C23 1095   0.864   2.657   8.877  0.1266 -0.1408 -0.3580
   15CHL1  H23A 1096   0.763   2.685   8.843  0.0976 -0.0782 -0.2205
   15CHL1  H23B 1097   0.887   2.759   8.914 -1.6540 -0.1590  0.8761
   15CHL1   C24 1098   0.959   2.614   8.777 -0.3378 -1.0388 -0.2864
   15CHL1  H24A 1099   1.065   2.623   8.809 -0.4507 -0.8426  0.0312
   15CHL1  H24B 1100   0.944   2.506   8.753  3.1422 -1.7190  0.1037
   15CHL1   C25 1101   0.959   2.694   8.643  0.5841 -0.1704  0.5612
   15CHL1   H25 1102   0.854   2.714   8.613  1.0366  0.6106 -0.5783
   15CHL1   C26 1103   1.025   2.835   8.661 -0.0199 -0.0088 -0.0407
   15CHL1  H26A 1104   1.133   2.812   8.669  0.1042  0.7729  0.6260
   15CHL1  H26B 1105   1.003   2.894   8.570 -0.9866  2.2716  1.5721
   15CHL1  H26C 1106   0.990   2.893   8.749 -0.2838 -0.3580  0.0853
   15CHL1   C27 1107   1.031   2.610   8.536  0.3653  0.0940  0.1023
   15CHL1  H27A 1108   1.033   2.668   8.442 -1.0378 -1.9968 -1.3113
   15CHL1  H27B 1109   1.136   2.588   8.566 -0.2146 -2.1028  0.7507
   15CHL1  H27C 1110   0.983   2.509   8.533 -0.2683  0.3157  1.8333
   16CHL1    C3 1111   1.179   2.361  10.068  1.2526  0.3345 -0.1975
   16CHL1    H3 1112   1.168   2.251  10.061 -3.5765  0.3831  2.5279
   16CHL1    O3 1113   1.152   2.397  10.203 -0.0687 -0.0384  0.1909
   16CHL1   H3' 1114   1.140   2.493  10.201  2.1457  0.3976  2.5499
   16CHL1    C4 1115   1.323   2.410  10.039  0.1713  0.0133  0.1203
   16CHL1   H4A 1116   1.337   2.512  10.081 -0.4994 -0.1447  0.7455
   16CHL1   H4B 1117   1.391   2.347  10.100  0.4754 -0.6265 -0.8508
   16CHL1    C5 1118   1.366   2.412   9.893 -0.1738 -0.3443 -0.2649
   16CHL1    C6 1119   1.480   2.360   9.843 -0.7237  0.0307 -0.4951
   16CHL1    H6 1120   1.566   2.328   9.904  0.1565  0.6706 -1.3740
   16CHL1    C7 1121   1.531   2.371   9.702  0.1799  0.4099  0.8207
   16CHL1   H7A 1122   1.633   2.416   9.704  1.1320 -1.6365  2.7240
   16CHL1   H7B 1123   1.539   2.267   9.664 -3.4098  0.1008  0.5649
   16CHL1    C8 1124   1.433   2.457   9.616 -0.5997  0.6630 -0.4271
   16CHL1    H8 1125   1.464   2.562   9.635 -1.5799  0.7624  0.7206
   16CHL1   C14 1126   1.461   2.434   9.468  0.8165 -0.6946  0.0003
   16CHL1   H14 1127   1.429   2.330   9.450 -0.6061 -0.5260  1.3303
   16CHL1   C15 1128   1.605   2.456   9.422 -0.5584 -0.4811 -0.5018
   16CHL1  H15A 1129   1.633   2.555   9.463 -0.6585 -0.1022 -1.3424
   16CHL1  H15B 1130   1.684   2.382   9.448 -0.8183 -0.1750  1.2858
   16CHL1   C16 1131   1.592   2.467   9.276  0.3321 -0.3569  0.3402
   16CHL1  H16A 1132   1.666   2.535   9.228 -0.3308 -0.4825 -0.9075
   16CHL1  H16B 1133   1.625   2.367   9.240 -0.0326 -0.5344  0.4950
   16CHL1   C17 1134   1.444   2.495   9.246  0.1689 -0.0155 -0.0334
   16CHL1   H17 1135   1.399   2.400   9.209 -2.6699  1.6198 -1.1646
   16CHL1   C13 1136   1.372   2.523   9.374 -0.5890 -0.3679  0.6259
   16CHL1   C18 1137   1.394   2.674   9.402 -0.3494  0.3727  0.5049
   16CHL1  H18A 1138   1.390   2.694   9.511  0.9438  0.0828  0.6279
   16CHL1  H18B 1139   1.498   2.705   9.376  0.0154  0.5835  2.1594
   16CHL1  H18C 1140   1.328   2.743   9.344 -2.3972 -0.3161  1.9131
   16CHL1   C12 1141   1.230   2.472   9.402 -0.4373 -0.1995  0.2096
   16CHL1  H12A 1142   1.148   2.515   9.341 -2.6137 -0.6907  2.6059
   16CHL1  H12B 1143   1.234   2.363   9.380  0.7110 -0.5678  2.0400
   16CHL1   C11 1144   1.189   2.504   9.550 -0.0880 -0.7025  1.0682
   16CHL1  H11A 1145   1.190   2.613   9.565 -0.5843 -0.0383 -2.6179
   16CHL1  H11B 1146   1.086   2.466   9.566 -1.1638  0.3841 -2.3836
   16CHL1    C9 1147   1.285   2.444   9.658  0.5124  0.1578  0.7371
   16CHL1    H9 1148   1.264   2.336   9.643  0.1748  0.3202  0.0167
   16CHL1   C10 1149   1.254   2.483   9.804 -0.7671 -0.6099  0.7175
   16CHL1   C19 1150   1.260   2.633   9.822 -0.5341 -0.1489 -0.1364
   16CHL1  H19A 1151   1.262   2.666   9.928 -2.2816 -0.7937  0.1331
   16CHL1  H19B 1152   1.347   2.677   9.770 -1.1082  2.1132  0.7147
   16CHL1  H19C 1153   1.169   2.675   9.774  0.1168  0.9057 -0.4723
   16CHL1    C1 1154   1.116   2.428   9.841 -0.0568  0.1117 -0.2130
   16CHL1   H1A 1155   1.037   2.473   9.778  1.1157  1.1131 -0.9950
   16CHL1   H1B 1156   1.119   2.321   9.812 -1.4389  0.4039 -1.5411
   16CHL1    C2 1157   1.075   2.437   9.988 -0.3966 -0.3675  0.3478
   16CHL1   H2A 1158   0.975   2.390  10.002  0.0337 -2.7790 -3.1332
   16CHL1   H2B 1159   1.052   2.543  10.012 -2.6317 -0.8102  0.3442
   16CHL1   C20 1160   1.425   2.590   9.127 -0.0379 -0.2479 -0.4409
   16CHL1   H20 1161   1.460   2.693   9.148  0.8179 -0.7710  0.8484
   16CHL1   C21 1162   1.281   2.615   9.082 -0.8152  0.1150 -0.3837
   16CHL1  H21A 1163   1.276   2.691   9.002 -0.5358  1.2596  0.6549
   16CHL1  H21B 1164   1.219   2.644   9.170 -1.7522 -2.5580 -0.0719
   16CHL1  H21C 1165   1.242   2.519   9.042  2.8059 -0.8753 -1.9382
   16CHL1   C22 1166   1.509   2.544   8.996 -0.7782 -0.1176  0.0213
   16CHL1  H22A 1167   1.605   2.507   9.037 -0.9874  0.6643  1.2905
   16CHL1  H22B 1168   1.456   2.459   8.948  0.0754 -0.8017  0.2652
   16CHL1   C23 1169   1.550   2.654   8.902  0.5100  0.0277 -0.3127
   16CHL1  H23A 1170   1.456   2.689   8.854  0.3977  0.5935  0.3070
   16CHL1  H23B 1171   1.595   2.740   8.956 -3.3221  1.2310  1.3494
   16CHL1   C24 1172   1.646   2.601   8.787 -0.1238  0.0191  0.1616
   16CHL1  H24A 1173   1.737   2.568   8.842  0.0432 -1.3431 -0.8988
   16CHL1  H24B 1174   1.590   2.517   8.740 -2.9857  1.3384  0.9789
   16CHL1   C25 1175   1.674   2.712   8.678  0.3138 -0.1796  0.3478
   16CHL1   H25 1176   1.579   2.742   8.629  0.5813  0.0370 -0.0388
   16CHL1   C26 1177   1.754   2.839   8.723  0.6185 -0.4130  0.1353
   16CHL1  H26A 1178   1.693   2.891   8.800 -1.9444 -0.7594 -1.4981
   16CHL1  H26B 1179   1.857   2.814   8.754  0.5753  2.3036  3.0587
   16CHL1  H26C 1180   1.766   2.919   8.646 -1.8989  0.4577  0.5301
   16CHL1   C27 1181   1.748   2.640   8.565 -0.6623 -0.2485  0.5866
   16CHL1  H27A 1182   1.694   2.549   8.532  0.3256 -0.3593 -0.8529
   16CHL1  H27B 1183   1.776   2.710   8.482  5.5737 -2.5231  0.2234
   16CHL1  H27C 1184   1.847   2.603   8.598  1.9620  3.0436 -2.6541
   17CHL1    C3 1185   4.539   1.915  10.341 -0.1850  0.3664  0.3444
   17CHL1    H3 1186   4.431   1.889  10.328 -0.1656  0.1539  0.6106
   17CHL1    O3 1187   4.564   1.912  10.482  0.3606 -0.3683 -0.5986
   17CHL1   H3' 1188   4.656   1.934  10.498  0.1431  1.4010 -1.5061
   17CHL1    C4 1189   4.635   1.807  10.290 -0.5420 -0.6100 -0.3784
   17CHL1   H4A 1190   4.728   1.828  10.346 -2.0438  4.0243  0.8616
   17CHL1   H4B 1191   4.598   1.708  10.323 -1.5707 -0.2821 -0.5056
   17CHL1    C5 1192   4.644   1.797  10.139  0.0723  0.1969 -0.4394
   17CHL1    C6 1193   4.618   1.680  10.078 -0.3177  0.3161  0.3987
   17CHL1    H6 1194   4.596   1.589  10.134 -2.7934  2.1087  2.5762
   17CHL1    C7 1195   4.627   1.659   9.928  0.4710  0.3358 -0.3358
   17CHL1   H7A 1196   4.671   1.559   9.912 -1.7625 -1.1696  2.0991
   17CHL1   H7B 1197   4.531   1.669   9.873 -0.1202  3.5507  1.0042
   17CHL1    C8 1198   4.709   1.774   9.865 -0.2380 -0.2335 -0.3786
   17CHL1    H8 1199   4.814   1.761   9.901 -0.7373  1.0542  1.7359
   17CHL1   C14 1200   4.704   1.765   9.715  0.4409 -0.1557 -0.2269
   17CHL1   H14 1201   4.599   1.796   9.698  0.5897  0.8394  0.6272
   17CHL1   C15 1202   4.745   1.634   9.647  0.4811 -0.7132 -0.1086
   17CHL1  H15A 1203   4.835   1.591   9.696 -0.8206 -1.6867  1.5370
   17CHL1  H15B 1204   4.661   1.562   9.655 -0.5003  0.4347  0.1676
   17CHL1   C16 1205   4.774   1.672   9.501  0.2408 -0.2185  0.5297
   17CHL1  H16A 1206   4.867   1.642   9.449 -1.6961  0.4362 -3.7993
   17CHL1  H16B 1207   4.686   1.637   9.442  0.5505 -2.3274  1.2176
   17CHL1   C17 1208   4.772   1.836   9.501 -0.7378  0.0585  0.6760
   17CHL1   H17 1209   4.674   1.871   9.462 -0.9492 -0.3068  0.8791
   17CHL1   C13 1210   4.795   1.874   9.651 -0.1508  0.6253 -0.1153
   17CHL1   C18 1211   4.938   1.849   9.686 -0.0671 -0.5846 -0.4706
   17CHL1  H18A 1212   4.961   1.855   9.795  0.7375  1.3868 -0.7168
   17CHL1  H18B 1213   4.974   1.750   9.651  0.6528  0.0838 -1.7052
   17CHL1  H18C 1214   5.000   1.931   9.646  0.3425 -0.1247  1.0349
   17CHL1   C12 1215   4.722   2.010   9.691 -0.8217  0.8695  0.1188
   17CHL1  H12A 1216   4.769   2.102   9.652  0.1350 -0.0232 -0.9024
   17CHL1  H12B 1217   4.616   2.000   9.657 -0.4429 -0.6393 -0.7024
   17CHL1   C11 1218   4.721   2.031   9.845  0.4568 -0.3750 -0.1917
   17CHL1  H11A 1219   4.826   2.051   9.876  0.2482  0.4599  0.0128
   17CHL1  H11B 1220   4.672   2.128   9.868  0.0151 -0.9074  1.1949
   17CHL1    C9 1221   4.668   1.913   9.922  1.2324  0.7860  0.6821
   17CHL1    H9 1222   4.558   1.909   9.904  1.0967  1.3630  1.3342
   17CHL1   C10 1223   4.678   1.925  10.070  0.1980  0.1067 -0.2946
   17CHL1   C19 1224   4.829   1.961  10.110  0.1149 -0.0659 -1.2455
   17CHL1  H19A 1225   4.899   1.881  10.077  0.9707 -1.0123  2.4169
   17CHL1  H19B 1226   4.859   2.058  10.066 -0.6901  0.6397 -0.2819
   17CHL1  H19C 1227   4.844   1.963  10.220  1.8016 -1.1329 -1.4235
   17CHL1    C1 1228   4.596   2.047  10.125 -0.4670 -0.2503 -0.4826
   17CHL1   H1A 1229   4.644   2.138  10.084 -0.1552  1.3006  2.9276
   17CHL1   H1B 1230   4.493   2.035  10.084 -1.4347  1.0715  1.3989
   17CHL1    C2 1231   4.586   2.051  10.280  0.5262  0.7880 -0.1932
   17CHL1   H2A 1232   4.523   2.127  10.331 -1.5170 -0.3624 -0.8690
   17CHL1   H2B 1233   4.693   2.069  10.305  1.2209 -0.0552 -2.3937
   17CHL1   C20 1234   4.881   1.892   9.399 -0.1738 -0.4673  0.3755
   17CHL1   H20 1235   4.976   1.836   9.415  0.7412  0.8852 -0.2058
   17CHL1   C21 1236   4.896   2.047   9.395 -0.0860 -0.2971 -0.5545
   17CHL1  H21A 1237   4.970   2.091   9.325  0.3260  2.5038  1.4912
   17CHL1  H21B 1238   4.932   2.084   9.494  0.3573  1.3044 -1.2856
   17CHL1  H21C 1239   4.792   2.085   9.384 -0.5710 -1.1759  0.7571
   17CHL1   C22 1240   4.852   1.850   9.261  0.1240  0.4870  0.3646
   17CHL1  H22A 1241   4.819   1.744   9.253 -0.7303  0.8381 -1.1417
   17CHL1  H22B 1242   4.761   1.901   9.225  0.1043 -0.4104 -0.9388
   17CHL1   C23 1243   4.960   1.875   9.156  0.9260 -0.0203 -0.2649
   17CHL1  H23A 1244   4.984   1.983   9.152 -0.3215  0.4300  2.3636
   17CHL1  H23B 1245   5.048   1.810   9.180 -0.4528 -1.9748 -0.2345
   17CHL1   C24 1246   4.925   1.827   9.012 -0.2624  0.0864 -1.0254
   17CHL1  H24A 1247   4.863   1.736   9.028  0.4205 -0.2999 -0.5373
   17CHL1  H24B 1248   4.867   1.909   8.964 -1.4507  0.5743  1.1120
   17CHL1   C25 1249   5.037   1.802   8.916  0.1404  0.2535 -0.4961
   17CHL1   H25 1250   5.124   1.757   8.968 -0.9515  0.0597  1.2418
   17CHL1   C26 1251   4.998   1.703   8.804 -0.1621  0.1163  0.4065
   17CHL1  H26A 1252   4.987   1.607   8.858  0.4077 -0.0368  0.2579
   17CHL1  H26B 1253   4.905   1.726   8.748 -0.1291 -0.5364  0.0764
   17CHL1  H26C 1254   5.087   1.694   8.738 -0.3143 -0.1853  0.2392
   17CHL1   C27 1255   5.079   1.937   8.853  0.6833 -0.3412  0.3747
   17CHL1  H27A 1256   5.171   1.925   8.791  0.2453 -1.2170 -0.1346
   17CHL1  H27B 1257   5.010   1.975   8.775  3.6449  0.7948 -1.8862
   17CHL1  H27C 1258   5.098   2.018   8.927  0.9897 -3.2476  3.7809
   18CHL1    C3 1259   4.523   6.645  10.139 -0.4721 -0.5577 -0.3152
   18CHL1    H3 1260   4.451   6.728  10.158 -0.4463 -0.7667  0.7609
   18CHL1    O3 1261   4.571   6.605  10.267  0.5764 -0.2408  0.1938
   18CHL1   H3' 1262   4.647   6.660  10.287  0.7276 -0.5195  0.3960
   18CHL1    C4 1263   4.456   6.525  10.077 -0.2641  0.0453  0.2894
   18CHL1   H4A 1264   4.530   6.442  10.077  0.7572  0.9217 -0.7487
   18CHL1   H4B 1265   4.377   6.499  10.151  1.5118  0.0690  2.2883
   18CHL1    C5 1266   4.408   6.561   9.936 -0.0371 -0.0066  0.2292
   18CHL1    C6 1267   4.277   6.567   9.912 -0.2151  0.4275  0.6451
   18CHL1    H6 1268   4.211   6.551   9.999  0.9255 -0.7716  1.3169
   18CHL1    C7 1269   4.216   6.601   9.780  0.8746  0.6466  0.1382
   18CHL1   H7A 1270   4.136   6.527   9.765  2.3123 -0.7274 -1.1898
   18CHL1   H7B 1271   4.189   6.709   9.781 -0.5604  0.3056  0.4080
   18CHL1    C8 1272   4.319   6.591   9.661  0.6889 -0.1453 -0.0517
   18CHL1    H8 1273   4.331   6.482   9.642  0.1119 -0.2615  0.2249
   18CHL1   C14 1274   4.261   6.646   9.533 -0.6089 -0.3577 -0.1403
   18CHL1   H14 1275   4.249   6.755   9.546 -1.3327 -0.0894 -2.5847
   18CHL1   C15 1276   4.120   6.603   9.486  0.8361  0.4158 -0.1624
   18CHL1  H15A 1277   4.109   6.493   9.480 -0.7162  0.5528 -0.0947
   18CHL1  H15B 1278   4.038   6.630   9.556  0.0818 -2.5760  0.2396
   18CHL1   C16 1279   4.114   6.662   9.347  0.5308 -0.5192 -0.2524
   18CHL1  H16A 1280   4.078   6.586   9.274  0.3754  0.7545 -1.5424
   18CHL1  H16B 1281   4.042   6.746   9.337 -0.3760 -0.7803  3.0048
   18CHL1   C17 1282   4.257   6.705   9.299 -0.7760 -0.3689 -0.0252
   18CHL1   H17 1283   4.274   6.814   9.307  0.0664 -0.4503 -0.5802
   18CHL1   C13 1284   4.345   6.638   9.408 -0.5116  0.3855 -0.0246
   18CHL1   C18 1285   4.373   6.494   9.360  0.1122  0.5424  0.1284
   18CHL1  H18A 1286   4.462   6.482   9.294 -1.2163 -0.6908 -1.5460
   18CHL1  H18B 1287   4.395   6.432   9.450  0.8204  3.1475  1.8746
   18CHL1  H18C 1288   4.293   6.445   9.301 -1.0409  0.3236  1.8284
   18CHL1   C12 1289   4.479   6.711   9.442  0.5675  0.2153  0.0779
   18CHL1  H12A 1290   4.549   6.724   9.357  0.5474 -0.3131 -0.0236
   18CHL1  H12B 1291   4.455   6.816   9.469 -1.5525  0.0432 -0.9460
   18CHL1   C11 1292   4.549   6.657   9.569  0.4822  0.7475 -0.6892
   18CHL1  H11A 1293   4.591   6.557   9.546 -2.6535 -0.7453 -0.5176
   18CHL1  H11B 1294   4.632   6.727   9.595  0.2666  0.4100  1.0081
   18CHL1    C9 1295   4.458   6.650   9.696 -0.3230  0.1789  0.2858
   18CHL1    H9 1296   4.443   6.758   9.713  0.9769  0.4564 -0.2258
   18CHL1   C10 1297   4.514   6.601   9.831 -0.2764 -0.1080 -0.6581
   18CHL1   C19 1298   4.611   6.483   9.802 -0.0161 -0.4224  0.1331
   18CHL1  H19A 1299   4.696   6.523   9.744  0.3238 -1.6935 -0.2823
   18CHL1  H19B 1300   4.651   6.448   9.900  1.7903  1.1240 -0.0004
   18CHL1  H19C 1301   4.554   6.399   9.756 -0.8771 -0.4457  1.1803
   18CHL1    C1 1302   4.586   6.721   9.898 -0.3759  0.2384 -0.3492
   18CHL1   H1A 1303   4.674   6.759   9.843 -0.2450  0.9694  0.3444
   18CHL1   H1B 1304   4.521   6.812   9.899  1.0669  1.4199 -2.9842
   18CHL1    C2 1305   4.634   6.702  10.050 -0.5590 -0.3490 -0.1231
   18CHL1   H2A 1306   4.655   6.804  10.089  0.4996 -0.8314  0.5959
   18CHL1   H2B 1307   4.728   6.646  10.061 -0.6473 -0.0385  2.9778
   18CHL1   C20 1308   4.286   6.674   9.147  0.4995  0.1186 -0.2626
   18CHL1   H20 1309   4.270   6.565   9.130  1.8056 -0.0944 -0.2600
   18CHL1   C21 1310   4.437   6.703   9.108 -0.4151 -0.0931 -0.3542
   18CHL1  H21A 1311   4.451   6.709   8.998  0.9164  1.5764 -0.1308
   18CHL1  H21B 1312   4.513   6.634   9.149  0.2714 -0.0781 -1.5472
   18CHL1  H21C 1313   4.454   6.808   9.140  0.6093 -0.0616 -0.9587
   18CHL1   C22 1314   4.189   6.748   9.055 -0.2466  0.5422 -0.2543
   18CHL1  H22A 1315   4.209   6.721   8.949 -0.9215  1.0396 -0.5185
   18CHL1  H22B 1316   4.088   6.711   9.082  0.8454 -1.9341  0.6546
   18CHL1   C23 1317   4.176   6.903   9.065 -0.3816 -0.1377 -0.4804
   18CHL1  H23A 1318   4.160   6.940   9.169  2.0029  0.5425 -0.2889
   18CHL1  H23B 1319   4.274   6.952   9.048  0.1192 -0.1410  2.0341
   18CHL1   C24 1320   4.066   6.954   8.972  0.1378 -0.1382 -0.5631
   18CHL1  H24A 1321   4.078   6.913   8.869  1.3478  0.9687 -0.8907
   18CHL1  H24B 1322   3.979   6.905   9.021 -0.3183 -1.3017 -2.4187
   18CHL1   C25 1323   4.049   7.106   8.966 -0.8458 -0.0842  0.3196
   18CHL1   H25 1324   4.152   7.147   8.951 -1.4541  1.6421  0.6092
   18CHL1   C26 1325   3.969   7.145   8.841 -0.4759 -0.5865  0.0925
   18CHL1  H26A 1326   3.866   7.104   8.839 -1.9823  2.9285 -1.1152
   18CHL1  H26B 1327   3.964   7.252   8.812 -0.7161 -0.6808 -0.2144
   18CHL1  H26C 1328   4.034   7.105   8.760  0.0165  1.0173 -0.3259
   18CHL1   C27 1329   4.002   7.155   9.104 -0.3928  1.0898 -0.1509
   18CHL1  H27A 1330   4.019   7.265   9.110  3.2416  0.8028 -2.1861
   18CHL1  H27B 1331   3.893   7.134   9.115  0.0579 -0.6896  1.3866
   18CHL1  H27C 1332   4.070   7.114   9.181  0.3373 -2.6324 -2.5200
   19CHL1    C3 1333   0.794   2.087  10.075 -0.1337  0.4848 -0.0344
   19CHL1    H3 1334   0.789   2.198  10.079 -2.0716  0.4571 -0.3855
   19CHL1    O3 1335   0.753   2.032  10.201 -0.3069  0.3763  0.4535
   19CHL1   H3' 1336   0.823   1.967  10.211  0.9356  1.0966 -2.4757
   19CHL1    C4 1337   0.698   2.039   9.970 -0.0685  0.2288 -0.4581
   19CHL1   H4A 1338   0.686   1.931   9.991  1.4669  0.2060  0.4221
   19CHL1   H4B 1339   0.597   2.082   9.988  0.2683  0.8238  0.0796
   19CHL1    C5 1340   0.749   2.069   9.833 -0.1537  0.2291 -0.5764
   19CHL1    C6 1341   0.670   2.130   9.747 -0.3377  0.4326  0.0157
   19CHL1    H6 1342   0.566   2.150   9.779 -0.4816  3.2858 -1.8486
   19CHL1    C7 1343   0.693   2.149   9.602  0.0317  0.8164 -0.1542
   19CHL1   H7A 1344   0.594   2.130   9.555 -0.3969 -3.6435  1.9648
   19CHL1   H7B 1345   0.714   2.257   9.591  0.7947  0.8414  1.4398
   19CHL1    C8 1346   0.824   2.082   9.555  0.1689  0.7042  0.4089
   19CHL1    H8 1347   0.794   1.979   9.525 -3.3593  2.0353 -1.1824
   19CHL1   C14 1348   0.873   2.147   9.427 -0.1221 -0.2293 -0.5529
   19CHL1   H14 1349   0.905   2.250   9.453  0.5861 -0.9322  1.5204
   19CHL1   C15 1350   0.771   2.150   9.311 -0.6654 -0.2332  0.3262
   19CHL1  H15A 1351   0.717   2.053   9.308  0.5076 -1.0165  2.2015
   19CHL1  H15B 1352   0.697   2.233   9.304 -1.5276 -0.7867  2.2674
   19CHL1   C16 1353   0.863   2.155   9.186  0.1766 -0.3399  0.4495
   19CHL1  H16A 1354   0.834   2.070   9.120  1.5836 -0.9088  0.5373
   19CHL1  H16B 1355   0.843   2.251   9.134 -0.6812 -0.5785  0.3198
   19CHL1   C17 1356   1.014   2.150   9.233  0.3966  0.3171  0.0055
   19CHL1   H17 1357   1.036   2.257   9.250  1.9756 -0.0485  0.4348
   19CHL1   C13 1358   1.003   2.080   9.369  0.6922  0.2115 -0.1309
   19CHL1   C18 1359   0.975   1.930   9.343  0.6977 -0.6220 -0.0395
   19CHL1  H18A 1360   1.075   1.894   9.311  2.5240  3.8649 -0.1182
   19CHL1  H18B 1361   0.943   1.886   9.440  1.2477  1.7932  1.3288
   19CHL1  H18C 1362   0.893   1.910   9.271  0.1706  2.3383 -0.3714
   19CHL1   C12 1363   1.115   2.098   9.472  0.6253 -0.2460  0.5316
   19CHL1  H12A 1364   1.210   2.053   9.436  1.6561  2.9545 -1.1383
   19CHL1  H12B 1365   1.133   2.207   9.479  0.7363 -0.2596  0.4563
   19CHL1   C11 1366   1.084   2.049   9.610 -0.3407  0.4241 -0.3881
   19CHL1  H11A 1367   1.090   1.939   9.617 -2.1099  0.2487 -1.0288
   19CHL1  H11B 1368   1.145   2.100   9.687  0.0327 -1.9292  0.9453
   19CHL1    C9 1369   0.937   2.090   9.666 -0.6907 -0.2489 -0.0865
   19CHL1    H9 1370   0.955   2.198   9.684 -1.7521 -0.2989  1.3924
   19CHL1   C10 1371   0.896   2.035   9.799 -0.6025  0.0110 -0.0621
   19CHL1   C19 1372   0.918   1.878   9.804  0.7117 -0.0187 -0.0802
   19CHL1  H19A 1373   1.025   1.850   9.802  0.7583  0.1485  0.1280
   19CHL1  H19B 1374   0.880   1.839   9.901 -2.5092 -0.4075 -1.3595
   19CHL1  H19C 1375   0.861   1.826   9.723  1.3896 -0.1675 -0.4673
   19CHL1    C1 1376   0.980   2.097   9.908 -0.5328 -0.2419 -0.3838
   19CHL1   H1A 1377   1.089   2.095   9.888 -0.6595 -0.5949 -1.0553
   19CHL1   H1B 1378   0.953   2.205   9.901 -0.9624 -0.4421 -2.5562
   19CHL1    C2 1379   0.944   2.050  10.049 -1.0753  0.9190 -0.8971
   19CHL1   H2A 1380   1.005   2.093  10.131 -2.2518  1.6969 -0.4126
   19CHL1   H2B 1381   0.949   1.940  10.063 -1.7761  1.0275  0.3021
   19CHL1   C20 1382   1.123   2.110   9.127  0.2412  0.5524  0.0497
   19CHL1   H20 1383   1.101   2.005   9.099 -0.1690  0.8012 -0.5914
   19CHL1   C21 1384   1.265   2.123   9.182  0.3980 -0.1672  0.2201
   19CHL1  H21A 1385   1.344   2.110   9.105 -1.9016 -3.1158 -1.8546
   19CHL1  H21B 1386   1.284   2.047   9.261  2.2660 -0.6845 -0.6804
   19CHL1  H21C 1387   1.264   2.231   9.210 -1.1462 -0.2523  0.5936
   19CHL1   C22 1388   1.113   2.204   9.002  0.7472 -0.0750 -0.1130
   19CHL1  H22A 1389   1.010   2.193   8.960  0.3006  1.4270  0.5005
   19CHL1  H22B 1390   1.107   2.309   9.037  0.0012 -0.4593  1.0045
   19CHL1   C23 1391   1.205   2.186   8.885  0.2245 -0.4377 -0.0267
   19CHL1  H23A 1392   1.307   2.217   8.915  0.5225 -3.3266  2.3598
   19CHL1  H23B 1393   1.209   2.081   8.849 -1.3639  0.1644 -2.1858
   19CHL1   C24 1394   1.169   2.282   8.770  0.4842  0.0813 -0.3863
   19CHL1  H24A 1395   1.066   2.258   8.734 -0.0911  1.1136  0.5234
   19CHL1  H24B 1396   1.176   2.388   8.801 -0.5320  0.8440 -2.5324
   19CHL1   C25 1397   1.263   2.275   8.651  0.0339  0.5253  0.1271
   19CHL1   H25 1398   1.227   2.332   8.563  0.9045 -0.9583 -1.2574
   19CHL1   C26 1399   1.394   2.343   8.683  0.8736 -0.3288 -0.0042
   19CHL1  H26A 1400   1.439   2.304   8.777  0.4659 -3.9380 -1.1566
   19CHL1  H26B 1401   1.462   2.334   8.596  0.8603  1.7239 -0.2832
   19CHL1  H26C 1402   1.377   2.453   8.691  0.7763 -0.2861 -0.7353
   19CHL1   C27 1403   1.299   2.129   8.599  0.1317 -0.6162  0.0560
   19CHL1  H27A 1404   1.215   2.079   8.547  0.7242 -0.7761 -0.7620
   19CHL1  H27B 1405   1.384   2.148   8.530 -0.1687  1.3707  0.1741
   19CHL1  H27C 1406   1.346   2.073   8.682  0.5984  0.5452  0.6038
   20CHL1    C3 1407   2.867   3.092  10.183 -0.7501  0.4390  0.2883
   20CHL1    H3 1408   2.890   3.197  10.210 -0.8973  0.5410  0.0196
   20CHL1    O3 1409   2.877   3.032  10.302  0.3037 -0.1621  0.2952
   20CHL1   H3' 1410   2.971   3.029  10.321  0.7833  0.0753 -1.7956
   20CHL1    C4 1411   2.730   3.094  10.125 -0.3056  0.3580  0.0651
   20CHL1   H4A 1412   2.679   2.995  10.124 -1.4592  0.9239  0.5767
   20CHL1   H4B 1413   2.663   3.146  10.197 -1.4337 -0.4685 -0.3594
   20CHL1    C5 1414   2.726   3.167   9.996  0.3577  0.3548  0.0289
   20CHL1    C6 1415   2.627   3.246   9.958 -0.4827  0.4233 -0.5580
   20CHL1    H6 1416   2.555   3.276  10.036  0.2422 -1.3289  0.8521
   20CHL1    C7 1417   2.594   3.287   9.824 -0.0870 -0.4894  0.3289
   20CHL1   H7A 1418   2.486   3.270   9.804  0.2379 -1.3527 -0.7534
   20CHL1   H7B 1419   2.622   3.394   9.818 -2.2078  0.2284  1.8672
   20CHL1    C8 1420   2.666   3.210   9.712  1.1186 -0.3357  0.1748
   20CHL1    H8 1421   2.607   3.117   9.699  1.4141 -0.6134  0.7891
   20CHL1   C14 1422   2.651   3.287   9.578  0.4227  0.4701 -1.1306
   20CHL1   H14 1423   2.700   3.382   9.609 -0.8927  0.3710  1.4440
   20CHL1   C15 1424   2.513   3.327   9.528  0.1555  0.0369  0.1788
   20CHL1  H15A 1425   2.461   3.229   9.530  1.5437 -0.7671 -1.1310
   20CHL1  H15B 1426   2.469   3.399   9.600 -0.1603 -0.0602  0.0882
   20CHL1   C16 1427   2.545   3.388   9.384  0.2656  0.3839 -0.4293
   20CHL1  H16A 1428   2.469   3.340   9.318 -0.0538  0.2225  0.0479
   20CHL1  H16B 1429   2.523   3.497   9.384 -3.8292 -0.2869 -0.5470
   20CHL1   C17 1430   2.697   3.356   9.361 -0.2514 -0.1067  0.4106
   20CHL1   H17 1431   2.751   3.449   9.387  0.1433 -0.2734  0.1901
   20CHL1   C13 1432   2.734   3.241   9.457  0.1375  0.7063 -0.4122
   20CHL1   C18 1433   2.686   3.101   9.401 -0.8179  0.5903  0.4163
   20CHL1  H18A 1434   2.604   3.107   9.325 -0.0433  0.0829 -0.4778
   20CHL1  H18B 1435   2.760   3.035   9.351 -0.1150  0.9409  0.9865
   20CHL1  H18C 1436   2.657   3.047   9.494  2.2044 -2.1175 -0.0650
   20CHL1   C12 1437   2.876   3.235   9.507  0.4569 -0.0610  0.6733
   20CHL1  H12A 1438   2.936   3.201   9.420  0.2511  0.9710  0.1071
   20CHL1  H12B 1439   2.910   3.340   9.520  2.8263 -0.4128 -1.8819
   20CHL1   C11 1440   2.900   3.144   9.630 -0.5768  0.7751 -0.7559
   20CHL1  H11A 1441   2.884   3.037   9.605  0.6943 -0.0753  1.7368
   20CHL1  H11B 1442   3.007   3.140   9.659 -0.5782  0.9767 -0.7185
   20CHL1    C9 1443   2.812   3.188   9.755 -0.8850  0.5775  0.3424
   20CHL1    H9 1444   2.857   3.287   9.779 -1.7917  0.7733  1.3400
   20CHL1   C10 1445   2.819   3.113   9.883  0.2279 -0.1649 -1.2793
   20CHL1   C19 1446   2.795   2.960   9.845  0.1260 -0.1622  0.6013
   20CHL1  H19A 1447   2.696   2.952   9.795  0.0887 -1.2863  0.8270
   20CHL1  H19B 1448   2.879   2.922   9.784 -0.0754  2.1897 -1.2682
   20CHL1  H19C 1449   2.787   2.896   9.936  1.6127  0.8734  1.5007
   20CHL1    C1 1450   2.951   3.129   9.951 -0.2000 -0.8430 -0.7969
   20CHL1   H1A 1451   3.032   3.092   9.885  0.4258 -1.7081  0.4073
   20CHL1   H1B 1452   2.979   3.234   9.974  0.3760 -1.2253  0.3765
   20CHL1    C2 1453   2.974   3.050  10.082 -0.0001 -0.5511 -0.1616
   20CHL1   H2A 1454   3.072   3.081  10.124 -0.8659  2.7212 -0.2677
   20CHL1   H2B 1455   2.958   2.943  10.058  0.9239 -0.6710 -0.2777
   20CHL1   C20 1456   2.727   3.341   9.216 -0.6693  0.0753 -0.2815
   20CHL1   H20 1457   2.676   3.247   9.185  0.0412 -0.7944  1.0872
   20CHL1   C21 1458   2.868   3.299   9.175  0.3154  0.1599 -0.1933
   20CHL1  H21A 1459   2.951   3.352   9.226 -0.6509  2.9155 -1.2937
   20CHL1  H21B 1460   2.877   3.291   9.065 -1.4226  0.5423 -0.3944
   20CHL1  H21C 1461   2.877   3.193   9.210 -1.2777  0.0340 -0.0896
   20CHL1   C22 1462   2.670   3.451   9.119 -0.1553 -0.0131 -0.2604
   20CHL1  H22A 1463   2.674   3.400   9.020  1.9495  2.7171 -1.7247
   20CHL1  H22B 1464   2.560   3.463   9.124 -0.3723 -1.5576 -0.6728
   20CHL1   C23 1465   2.730   3.595   9.112 -0.4929 -0.3365 -0.3383
   20CHL1  H23A 1466   2.705   3.647   9.206  1.7967 -2.3320  1.5068
   20CHL1  H23B 1467   2.840   3.584   9.118 -0.5041  0.0554  0.8112
   20CHL1   C24 1468   2.676   3.680   8.999 -0.1750 -0.2827  0.1321
   20CHL1  H24A 1469   2.705   3.641   8.900 -2.7315 -3.4520  0.4694
   20CHL1  H24B 1470   2.566   3.665   9.001 -0.9930  3.4199 -3.4914
   20CHL1   C25 1471   2.719   3.821   8.997 -0.6873 -0.2425  0.0943
   20CHL1   H25 1472   2.668   3.881   9.075  0.8624  1.9868 -0.5004
   20CHL1   C26 1473   2.865   3.837   9.048 -0.9508 -0.3803  0.3422
   20CHL1  H26A 1474   2.869   3.789   9.149 -0.3285 -0.9606  0.0492
   20CHL1  H26B 1475   2.941   3.787   8.984 -1.4488 -2.8013  1.4997
   20CHL1  H26C 1476   2.891   3.944   9.057 -0.2858 -0.5266  0.2293
   20CHL1   C27 1477   2.712   3.887   8.852 -0.1693 -0.1008  0.3231
   20CHL1  H27A 1478   2.609   3.891   8.811  0.5015  0.8063 -1.3564
   20CHL1  H27B 1479   2.756   3.988   8.859  1.6299 -0.9193  1.4578
   20CHL1  H27C 1480   2.773   3.821   8.787  1.3956  0.4410  1.1895
   21CHL1    C3 1481   2.272   0.606  10.257  0.4752  0.7385 -0.1366
   21CHL1    H3 1482   2.257   0.498  10.281 -2.9933  1.0195 -0.5747
   21CHL1    O3 1483   2.264   0.672  10.378  0.3429  0.3406 -0.0112
   21CHL1   H3' 1484   2.258   0.767  10.364  0.9476  0.8328  2.5559
   21CHL1    C4 1485   2.408   0.615  10.189  0.2869  0.2446 -0.1974
   21CHL1   H4A 1486   2.452   0.717  10.186  1.8498 -0.3972  0.0913
   21CHL1   H4B 1487   2.485   0.566  10.252  1.0356 -0.6347 -1.7410
   21CHL1    C5 1488   2.412   0.559  10.049  0.0200 -0.4677 -0.3253
   21CHL1    C6 1489   2.508   0.465  10.015 -0.1851 -0.0552 -0.4063
   21CHL1    H6 1490   2.574   0.431  10.096 -0.4961  0.7872  0.2091
   21CHL1    C7 1491   2.519   0.398   9.876 -0.7535 -0.5257 -0.2312
   21CHL1   H7A 1492   2.625   0.403   9.842 -1.2763  0.1984 -1.8928
   21CHL1   H7B 1493   2.481   0.294   9.874  2.2370 -1.6862 -1.1117
   21CHL1    C8 1494   2.434   0.477   9.775  1.1464  0.0764  0.4818
   21CHL1    H8 1495   2.485   0.575   9.761  0.2641  0.8299  2.1892
   21CHL1   C14 1496   2.422   0.394   9.648  0.4304  0.0450 -0.3881
   21CHL1   H14 1497   2.386   0.290   9.664 -0.4979  0.5751  1.2228
   21CHL1   C15 1498   2.553   0.361   9.574  0.6670  0.0980  0.4612
   21CHL1  H15A 1499   2.615   0.451   9.554  0.7793 -0.1181 -0.2111
   21CHL1  H15B 1500   2.619   0.289   9.628  1.4302 -1.6109 -2.5016
   21CHL1   C16 1501   2.499   0.304   9.436 -0.7360 -0.2065 -0.1320
   21CHL1  H16A 1502   2.558   0.354   9.357 -0.8266  3.0522  1.6770
   21CHL1  H16B 1503   2.532   0.199   9.425  0.8498  0.3935 -1.5361
   21CHL1   C17 1504   2.345   0.339   9.426 -0.4604  0.3441 -0.2641
   21CHL1   H17 1505   2.289   0.249   9.457  2.0668 -1.2023  0.1297
   21CHL1   C13 1506   2.332   0.447   9.536 -0.4226 -0.5019  0.2861
   21CHL1   C18 1507   2.381   0.592   9.485  0.0430 -0.3348 -0.1052
   21CHL1  H18A 1508   2.379   0.662   9.572 -2.0808 -2.9750  2.1696
   21CHL1  H18B 1509   2.473   0.595   9.424  1.8713  2.5387  2.4911
   21CHL1  H18C 1510   2.314   0.628   9.404  1.0378 -1.1511 -1.3101
   21CHL1   C12 1511   2.187   0.461   9.596 -0.4403 -0.0613  0.0735
   21CHL1  H12A 1512   2.128   0.507   9.514  1.5626 -0.0060 -1.4259
   21CHL1  H12B 1513   2.150   0.360   9.623  0.2132 -0.0862  0.9230
   21CHL1   C11 1514   2.186   0.551   9.724  0.0458 -0.1679  0.3016
   21CHL1  H11A 1515   2.191   0.661   9.705 -2.1182  0.2933  1.9846
   21CHL1  H11B 1516   2.086   0.536   9.771 -1.3338  2.5915 -1.4537
   21CHL1    C9 1517   2.295   0.507   9.824 -0.3350 -0.4725 -0.4100
   21CHL1    H9 1518   2.263   0.408   9.862 -1.0443  0.2898  1.0742
   21CHL1   C10 1519   2.301   0.609   9.947  0.4332  0.4710 -0.2402
   21CHL1   C19 1520   2.352   0.750   9.912  0.0894 -0.3906  0.3034
   21CHL1  H19A 1521   2.369   0.818   9.997  1.6622  0.5997 -0.7567
   21CHL1  H19B 1522   2.451   0.744   9.862  0.5806 -0.9812  1.3106
   21CHL1  H19C 1523   2.270   0.797   9.853 -0.4490 -0.8121  0.7011
   21CHL1    C1 1524   2.162   0.613  10.019  0.6096  0.6513 -0.3067
   21CHL1   H1A 1525   2.103   0.677   9.950 -0.3698 -1.3025 -1.3671
   21CHL1   H1B 1526   2.120   0.510  10.017 -0.9880  1.2889 -0.7329
   21CHL1    C2 1527   2.164   0.665  10.166  0.6396  0.1248 -0.1210
   21CHL1   H2A 1528   2.066   0.654  10.218  1.1163 -0.7823  0.6100
   21CHL1   H2B 1529   2.196   0.771  10.155  1.0691  0.0781  0.6031
   21CHL1   C20 1530   2.295   0.367   9.282  0.0714 -0.0649  0.6006
   21CHL1   H20 1531   2.347   0.456   9.242  1.2646 -0.6410  0.8236
   21CHL1   C21 1532   2.149   0.392   9.282 -0.4048 -0.4350 -0.7474
   21CHL1  H21A 1533   2.097   0.324   9.353  0.0883  2.0122  2.1555
   21CHL1  H21B 1534   2.108   0.375   9.180 -1.2749 -1.8934 -0.1818
   21CHL1  H21C 1535   2.128   0.495   9.318  0.3858 -0.4797 -0.1414
   21CHL1   C22 1536   2.315   0.245   9.190 -0.3808 -0.3692 -0.1119
   21CHL1  H22A 1537   2.382   0.164   9.226  0.2111  0.1050 -0.1368
   21CHL1  H22B 1538   2.218   0.191   9.188  1.2181 -3.5046 -2.7677
   21CHL1   C23 1539   2.362   0.272   9.045  0.0437  0.3223 -0.3912
   21CHL1  H23A 1540   2.345   0.188   8.976  1.8788  0.1737 -0.7136
   21CHL1  H23B 1541   2.304   0.349   8.990 -0.9478  1.3907  1.9911
   21CHL1   C24 1542   2.512   0.300   9.040  0.1273  0.1665 -0.5301
   21CHL1  H24A 1543   2.538   0.397   9.087  0.7843 -1.1823  2.0799
   21CHL1  H24B 1544   2.557   0.222   9.105 -0.9980  1.2671  1.7184
   21CHL1   C25 1545   2.575   0.311   8.900 -0.2573 -0.4210  0.4642
   21CHL1   H25 1546   2.683   0.288   8.907 -0.3898 -1.3510 -0.3498
   21CHL1   C26 1547   2.523   0.202   8.802  0.1879  0.1763 -0.0427
   21CHL1  H26A 1548   2.420   0.226   8.769  0.5493  2.6235  0.4046
   21CHL1  H26B 1549   2.584   0.201   8.710  0.3662  0.0443  0.0763
   21CHL1  H26C 1550   2.528   0.096   8.837 -1.9551 -0.7385 -2.1979
   21CHL1   C27 1551   2.547   0.452   8.837  0.6689  0.1683  0.6831
   21CHL1  H27A 1552   2.604   0.449   8.742  0.4805 -1.2274  0.5913
   21CHL1  H27B 1553   2.443   0.480   8.809  0.1111 -1.1679  1.3390
   21CHL1  H27C 1554   2.590   0.535   8.897 -1.4753  2.2349 -0.4659
   22CHL1    C3 1555   3.384   2.173  10.042 -1.0446 -0.4251 -0.2799
   22CHL1    H3 1556   3.489   2.179  10.006 -0.8637  1.2716  0.4529
   22CHL1    O3 1557   3.375   2.215  10.180  0.4077 -1.0362  0.3575
   22CHL1   H3' 1558   3.285   2.208  10.213 -0.4052 -2.7546 -1.9199
   22CHL1    C4 1559   3.306   2.282   9.954 -0.1034  0.6846 -0.3575
   22CHL1   H4A 1560   3.207   2.290  10.004 -0.2712  3.6036 -0.9821
   22CHL1   H4B 1561   3.361   2.376   9.975 -0.2193  0.3674  1.5531
   22CHL1    C5 1562   3.296   2.251   9.806 -0.0243 -0.0673 -0.3377
   22CHL1    C6 1563   3.329   2.332   9.710 -0.9419 -0.5044 -0.1488
   22CHL1    H6 1564   3.367   2.431   9.741  1.1477 -1.5170  0.7509
   22CHL1    C7 1565   3.302   2.307   9.561 -0.5836  0.2536  0.0891
   22CHL1   H7A 1566   3.290   2.401   9.502 -1.8133 -1.7902 -3.1807
   22CHL1   H7B 1567   3.395   2.262   9.519 -1.3207 -0.9495 -0.2757
   22CHL1    C8 1568   3.195   2.192   9.545 -0.2417 -0.3215  0.3764
   22CHL1    H8 1569   3.099   2.238   9.576 -0.2684 -0.9451  1.2418
   22CHL1   C14 1570   3.178   2.152   9.402  0.1621  0.0795 -0.0528
   22CHL1   H14 1571   3.277   2.133   9.355  0.8625  0.0487  1.3744
   22CHL1   C15 1572   3.099   2.267   9.324 -0.6412  0.0904 -0.2091
   22CHL1  H15A 1573   3.020   2.320   9.381  0.1994  1.8787 -0.6397
   22CHL1  H15B 1574   3.181   2.340   9.308 -0.9085  0.9347  1.9682
   22CHL1   C16 1575   3.063   2.190   9.201  0.5484  0.3892 -0.5899
   22CHL1  H16A 1576   2.954   2.205   9.193  0.5711  1.7334  1.1189
   22CHL1  H16B 1577   3.117   2.224   9.110  1.3470  1.6282  0.3165
   22CHL1   C17 1578   3.091   2.033   9.229  0.2033 -0.6170  0.2009
   22CHL1   H17 1579   3.186   2.021   9.172 -1.5601  0.2850 -3.1309
   22CHL1   C13 1580   3.094   2.028   9.385  0.1942 -0.3898 -0.2370
   22CHL1   C18 1581   2.949   2.046   9.434  0.3165  1.0511 -0.5911
   22CHL1  H18A 1582   2.958   2.090   9.536 -0.3123  1.3180 -0.6416
   22CHL1  H18B 1583   2.887   2.117   9.375  1.2892  2.0373 -0.4594
   22CHL1  H18C 1584   2.893   1.951   9.444  1.3296  0.5370  0.4109
   22CHL1   C12 1585   3.164   1.916   9.447  0.8530 -0.4082 -0.6023
   22CHL1  H12A 1586   3.109   1.821   9.437 -0.4150 -0.1761  2.7507
   22CHL1  H12B 1587   3.260   1.904   9.391  0.8517  0.5812 -0.8356
   22CHL1   C11 1588   3.184   1.936   9.600  0.0650 -0.1443  0.2210
   22CHL1  H11A 1589   3.084   1.915   9.644 -0.9250 -0.0180 -1.8386
   22CHL1  H11B 1590   3.247   1.849   9.629  0.4647 -0.0187 -0.2422
   22CHL1    C9 1591   3.242   2.074   9.630 -0.4205 -0.5637  0.3492
   22CHL1    H9 1592   3.348   2.057   9.601  0.2178 -1.2743  2.8789
   22CHL1   C10 1593   3.235   2.109   9.778 -0.0948 -0.1637  0.3309
   22CHL1   C19 1594   3.087   2.112   9.829  0.2230  0.3621 -0.0918
   22CHL1  H19A 1595   3.026   2.150   9.744  0.9570 -0.3193 -0.9342
   22CHL1  H19B 1596   3.059   2.005   9.846 -2.4357  0.9422 -0.3416
   22CHL1  H19C 1597   3.066   2.170   9.921  0.9741  0.9397 -0.2864
   22CHL1    C1 1598   3.322   2.007   9.861 -0.2239  0.2694 -0.3567
   22CHL1   H1A 1599   3.288   1.902   9.851  0.6192 -0.1642  1.0992
   22CHL1   H1B 1600   3.426   2.021   9.824  0.4682 -2.2315  0.4589
   22CHL1    C2 1601   3.321   2.032  10.016 -0.0131  0.4623  0.0559
   22CHL1   H2A 1602   3.370   1.949  10.071 -0.0260 -0.0273 -0.6657
   22CHL1   H2B 1603   3.218   2.044  10.057 -0.4839 -1.1345 -0.5722
   22CHL1   C20 1604   2.990   1.948   9.157  0.0430  0.0587 -0.0912
   22CHL1   H20 1605   2.888   1.985   9.183  0.0598  0.6373 -0.8026
   22CHL1   C21 1606   2.996   1.806   9.196  0.0453 -0.3714 -0.7285
   22CHL1  H21A 1607   2.927   1.746   9.132 -1.4202  0.2172  0.2300
   22CHL1  H21B 1608   2.951   1.796   9.297 -2.5083 -0.8743 -1.8227
   22CHL1  H21C 1609   3.095   1.757   9.201  0.9274  1.4247  0.7595
   22CHL1   C22 1610   2.994   1.956   8.999  0.1084 -0.2620 -0.3708
   22CHL1  H22A 1611   2.903   1.903   8.964 -1.6852  1.0938  1.9192
   22CHL1  H22B 1612   2.995   2.062   8.965 -2.0511  0.1027  0.5238
   22CHL1   C23 1613   3.118   1.900   8.937 -0.6634  0.3410  0.3212
   22CHL1  H23A 1614   3.197   1.974   8.959 -1.2256  0.7044  1.1997
   22CHL1  H23B 1615   3.157   1.808   8.986  1.3958  0.1972 -1.4605
   22CHL1   C24 1616   3.095   1.892   8.782 -0.1133 -0.1332  0.1361
   22CHL1  H24A 1617   3.055   1.986   8.740  1.0591 -0.9143 -2.9744
   22CHL1  H24B 1618   3.194   1.884   8.732 -1.3049  1.6051 -2.7191
   22CHL1   C25 1619   3.014   1.762   8.733 -0.6790  0.0849  0.1412
   22CHL1   H25 1620   2.918   1.759   8.790  0.7476  0.3801  2.6886
   22CHL1   C26 1621   2.985   1.757   8.588 -0.7714  0.7664 -0.0669
   22CHL1  H26A 1622   2.924   1.666   8.570 -1.1272  0.9852  0.0390
   22CHL1  H26B 1623   2.923   1.842   8.553 -0.5285  0.7327 -0.5899
   22CHL1  H26C 1624   3.075   1.757   8.523 -1.1401  2.4573 -0.6180
   22CHL1   C27 1625   3.088   1.633   8.767 -0.0297  0.6450  0.2376
   22CHL1  H27A 1626   3.175   1.607   8.703 -2.7344 -0.8396 -3.1109
   22CHL1  H27B 1627   3.109   1.634   8.876  0.6631 -0.4267  0.1280
   22CHL1  H27C 1628   3.019   1.550   8.742  0.7122  0.6508 -2.0408
   23CHL1    C3 1629   5.636   2.205  10.024  0.4436 -0.1457  0.2179
   23CHL1    H3 1630   5.584   2.301  10.003 -1.3036 -1.3856 -1.4496
   23CHL1    O3 1631   5.677   2.177  10.162 -0.2594 -0.1450  0.0025
   23CHL1   H3' 1632   5.618   2.113  10.203 -1.0997  1.1591  0.9280
   23CHL1    C4 1633   5.538   2.090   9.974 -0.3980  0.4551 -0.1655
   23CHL1   H4A 1634   5.599   2.002  10.003  0.5447  0.7520 -1.1645
   23CHL1   H4B 1635   5.455   2.096  10.048  1.4466  0.3534  2.0564
   23CHL1    C5 1636   5.501   2.090   9.824 -0.5160 -0.0266  0.3682
   23CHL1    C6 1637   5.375   2.098   9.774 -0.3456  0.4022 -0.1016
   23CHL1    H6 1638   5.297   2.080   9.849  0.5362 -1.7559  0.3856
   23CHL1    C7 1639   5.331   2.112   9.634 -1.2842 -0.0696  0.4976
   23CHL1   H7A 1640   5.243   2.046   9.618 -1.1698 -0.1618  0.2542
   23CHL1   H7B 1641   5.296   2.216   9.614 -2.0008 -0.7484 -2.1926
   23CHL1    C8 1642   5.450   2.072   9.543  0.2693 -0.2695  0.5155
   23CHL1    H8 1643   5.456   1.961   9.541 -2.3764 -0.4622 -0.8517
   23CHL1   C14 1644   5.414   2.109   9.398  0.5556 -0.4180 -0.4295
   23CHL1   H14 1645   5.400   2.219   9.405  1.1143 -0.3974  0.4583
   23CHL1   C15 1646   5.278   2.056   9.348  0.3756 -0.5563 -0.2138
   23CHL1  H15A 1647   5.260   1.950   9.377  2.0476 -1.1050 -1.0769
   23CHL1  H15B 1648   5.195   2.124   9.378  0.8975  0.7592 -1.6678
   23CHL1   C16 1649   5.296   2.067   9.195 -0.3235  0.2780  0.7112
   23CHL1  H16A 1650   5.290   1.965   9.153 -0.1656  0.1715  0.9407
   23CHL1  H16B 1651   5.225   2.144   9.160  2.0695  2.7688  0.9346
   23CHL1   C17 1652   5.445   2.122   9.167  0.0454 -0.4312  0.0491
   23CHL1   H17 1653   5.435   2.233   9.167  0.8668 -0.3553 -0.2673
   23CHL1   C13 1654   5.518   2.079   9.293 -0.2213  0.4967  0.0543
   23CHL1   C18 1655   5.550   1.932   9.288  0.8000  0.5740  0.2378
   23CHL1  H18A 1656   5.588   1.911   9.390 -0.1166  1.4063  0.7780
   23CHL1  H18B 1657   5.458   1.872   9.266  1.3670 -1.2629  2.5595
   23CHL1  H18C 1658   5.620   1.907   9.206 -1.1677 -0.1714 -1.3037
   23CHL1   C12 1659   5.643   2.162   9.332  0.3253 -0.1274  0.1197
   23CHL1  H12A 1660   5.729   2.137   9.266 -0.6280 -1.0230 -0.8362
   23CHL1  H12B 1661   5.613   2.269   9.324 -0.5006 -0.3661 -0.1261
   23CHL1   C11 1662   5.689   2.140   9.473 -0.3550 -1.1159  0.0704
   23CHL1  H11A 1663   5.740   2.041   9.471 -1.1419 -1.5175 -0.6874
   23CHL1  H11B 1664   5.758   2.224   9.499 -0.4876 -0.0013 -2.8171
   23CHL1    C9 1665   5.584   2.137   9.585  0.2606  0.6701  0.8555
   23CHL1    H9 1666   5.557   2.244   9.598  1.6487  1.0025  1.0959
   23CHL1   C10 1667   5.627   2.097   9.730 -0.4321  0.2944  0.2279
   23CHL1   C19 1668   5.702   1.960   9.729 -0.8628  1.2032 -0.5669
   23CHL1  H19A 1669   5.626   1.889   9.690 -0.1986 -0.4071  0.9221
   23CHL1  H19B 1670   5.794   1.964   9.666 -1.1236  3.4745 -0.8705
   23CHL1  H19C 1671   5.733   1.936   9.833  0.7275  1.2944 -0.9836
   23CHL1    C1 1672   5.727   2.205   9.782 -0.4360 -0.0266  0.3990
   23CHL1   H1A 1673   5.820   2.177   9.727 -0.9476 -1.7008  0.3193
   23CHL1   H1B 1674   5.683   2.305   9.763 -2.4221 -0.6934  1.2013
   23CHL1    C2 1675   5.762   2.200   9.933  0.0030 -0.0677  0.2891
   23CHL1   H2A 1676   5.824   2.289   9.954  2.1205 -1.2544 -0.5700
   23CHL1   H2B 1677   5.817   2.107   9.962 -2.2697 -1.3507  0.7257
   23CHL1   C20 1678   5.519   2.099   9.037  0.3561 -0.2309  0.1674
   23CHL1   H20 1679   5.626   2.123   9.059  0.4596  0.7023 -1.2063
   23CHL1   C21 1680   5.479   2.211   8.937 -0.6421 -0.1298  0.2689
   23CHL1  H21A 1681   5.507   2.315   8.965 -1.0020 -0.2391  1.0483
   23CHL1  H21B 1682   5.369   2.213   8.924 -0.7026 -1.9725  0.2317
   23CHL1  H21C 1683   5.528   2.180   8.842  0.4015 -0.5269  0.9133
   23CHL1   C22 1684   5.503   1.962   8.968 -0.6688  0.0139  0.3709
   23CHL1  H22A 1685   5.494   1.880   9.042 -2.2332 -0.3305 -0.1700
   23CHL1  H22B 1686   5.404   1.964   8.918 -0.2064  0.2149 -0.5547
   23CHL1   C23 1687   5.608   1.932   8.865  0.1097 -0.4450 -0.2418
   23CHL1  H23A 1688   5.639   2.025   8.813 -1.7644  0.1001 -0.4236
   23CHL1  H23B 1689   5.704   1.903   8.914 -0.3319 -0.5591  0.5749
   23CHL1   C24 1690   5.589   1.829   8.752  0.1689  0.3924  0.2379
   23CHL1  H24A 1691   5.514   1.876   8.685  0.9363  1.4378  0.0910
   23CHL1  H24B 1692   5.687   1.810   8.704  0.2381 -1.1281  0.9426
   23CHL1   C25 1693   5.536   1.690   8.795  0.4177  0.2498 -0.8494
   23CHL1   H25 1694   5.486   1.697   8.893  0.3143 -0.3169 -0.8573
   23CHL1   C26 1695   5.432   1.632   8.700  0.2881 -0.0825  0.2888
   23CHL1  H26A 1696   5.469   1.613   8.597  2.8495 -2.5864  1.5115
   23CHL1  H26B 1697   5.403   1.533   8.741  1.1821  0.5162  2.5198
   23CHL1  H26C 1698   5.341   1.693   8.712 -0.6807 -1.5553  0.7332
   23CHL1   C27 1699   5.652   1.585   8.814 -0.3794 -0.8088 -0.4281
   23CHL1  H27A 1700   5.714   1.591   8.722  2.2728  0.6164  1.3437
   23CHL1  H27B 1701   5.729   1.616   8.888  0.0824  1.1799 -1.6721
   23CHL1  H27C 1702   5.618   1.481   8.833  0.1149 -1.5669 -3.2074
   24CHL1    C3 1703   0.011   3.985  10.196  0.5046 -0.4444 -0.1386
   24CHL1    H3 1704   0.074   4.076  10.201 -0.9298  0.5545  0.4024
   24CHL1    O3 1705  -0.033   3.945  10.327 -0.1024 -0.6467  0.2453
   24CHL1   H3' 1706  -0.078   4.013  10.379 -0.0270 -0.3824 -0.0361
   24CHL1    C4 1707  -0.107   4.031  10.114  0.2466 -0.6027 -0.5619
   24CHL1   H4A 1708  -0.200   3.971  10.124 -0.0709  0.1026  1.2275
   24CHL1   H4B 1709  -0.137   4.122  10.169 -1.0601 -0.7141 -1.0611
   24CHL1    C5 1710  -0.080   4.081   9.977  0.8703  1.0403 -0.2515
   24CHL1    C6 1711  -0.112   4.198   9.925 -0.9449  0.3952 -0.0003
   24CHL1    H6 1712  -0.158   4.278   9.986  0.5515  1.0075  0.3767
   24CHL1    C7 1713  -0.084   4.231   9.778  0.0555  0.3867 -0.2641
   24CHL1   H7A 1714  -0.163   4.303   9.747  1.7010  1.9251 -1.0891
   24CHL1   H7B 1715   0.006   4.295   9.764 -0.2285  1.3657  2.0359
   24CHL1    C8 1716  -0.071   4.103   9.691 -0.3298 -1.0281  0.2616
   24CHL1    H8 1717  -0.175   4.067   9.674 -0.8410  0.4901  0.0078
   24CHL1   C14 1718  -0.011   4.149   9.558  0.0639 -0.1154 -0.2571
   24CHL1   H14 1719   0.091   4.182   9.584 -0.4806  2.5845 -1.2351
   24CHL1   C15 1720  -0.061   4.275   9.486 -0.4105 -0.3322  0.3894
   24CHL1  H15A 1721  -0.172   4.276   9.489 -0.4626 -1.9069  0.2289
   24CHL1  H15B 1722  -0.010   4.359   9.538  2.1636 -1.9911  0.7249
   24CHL1   C16 1723  -0.012   4.259   9.338  0.3166  0.7381  0.5607
   24CHL1  H16A 1724  -0.107   4.284   9.287  0.4491  1.3182  0.5865
   24CHL1  H16B 1725   0.065   4.333   9.307 -1.0335  1.8493 -0.2590
   24CHL1   C17 1726   0.050   4.119   9.323  0.6650  0.7238  0.0006
   24CHL1   H17 1727   0.157   4.129   9.351  0.5308 -0.5383  1.0959
   24CHL1   C13 1728   0.004   4.038   9.453  0.7799 -0.1557 -0.0642
   24CHL1   C18 1729  -0.137   3.980   9.414  0.1157  0.2274  0.3499
   24CHL1  H18A 1730  -0.204   4.055   9.366 -0.0294  0.1864  0.4883
   24CHL1  H18B 1731  -0.120   3.895   9.344  2.1170  1.9952 -1.4678
   24CHL1  H18C 1732  -0.189   3.930   9.498  0.6953 -2.4280 -0.7838
   24CHL1   C12 1733   0.106   3.931   9.509  0.6631 -0.4288  0.4778
   24CHL1  H12A 1734   0.112   3.847   9.437  1.2467 -1.0965  1.2772
   24CHL1  H12B 1735   0.206   3.978   9.520 -0.1549  1.8162 -1.0852
   24CHL1   C11 1736   0.055   3.888   9.648 -0.0581 -0.2272 -0.1911
   24CHL1  H11A 1737  -0.033   3.822   9.630  0.9838 -0.8893 -3.6888
   24CHL1  H11B 1738   0.130   3.822   9.694  0.2180  1.5357  2.0699
   24CHL1    C9 1739   0.024   4.006   9.755  0.1658  1.1857  0.1911
   24CHL1    H9 1740   0.123   4.056   9.763  0.3495  0.7279  0.9042
   24CHL1   C10 1741  -0.012   3.961   9.903 -0.0076  0.2764 -0.1703
   24CHL1   C19 1742  -0.119   3.850   9.890  0.7895 -0.5420 -0.1699
   24CHL1  H19A 1743  -0.202   3.878   9.821 -1.1292  2.0675  2.9054
   24CHL1  H19B 1744  -0.076   3.756   9.849  0.7759 -0.3340 -0.6725
   24CHL1  H19C 1745  -0.163   3.827   9.989 -0.6360 -1.1202 -0.9130
   24CHL1    C1 1746   0.116   3.910   9.983 -0.3607 -1.1363  0.3826
   24CHL1   H1A 1747   0.162   3.830   9.922 -1.9843 -1.1629 -0.8783
   24CHL1   H1B 1748   0.182   4.000   9.986  1.6540 -2.5037 -0.7850
   24CHL1    C2 1749   0.084   3.874  10.127  0.0221 -0.3228  0.1594
   24CHL1   H2A 1750   0.178   3.847  10.180  0.2500  0.3310  0.0937
   24CHL1   H2B 1751   0.027   3.780  10.140  0.3574 -0.3100  2.0314
   24CHL1   C20 1752   0.039   4.073   9.175 -0.0546 -0.3505  0.0244
   24CHL1   H20 1753  -0.069   4.082   9.149  0.4624  0.4032 -2.1305
   24CHL1   C21 1754   0.089   3.931   9.152 -0.2862  0.1255 -0.0820
   24CHL1  H21A 1755   0.034   3.848   9.201  1.6321 -1.1899 -0.0333
   24CHL1  H21B 1756   0.181   3.920   9.213  0.9660  3.3262 -1.1838
   24CHL1  H21C 1757   0.102   3.908   9.044 -0.5349 -0.9612  0.1168
   24CHL1   C22 1758   0.108   4.176   9.077  0.5215 -0.2119  0.9468
   24CHL1  H22A 1759   0.056   4.273   9.095  0.6092 -0.2270  1.2819
   24CHL1  H22B 1760   0.215   4.194   9.101  0.4766 -0.3244  1.2469
   24CHL1   C23 1761   0.104   4.150   8.922  0.1535  0.0160 -0.6056
   24CHL1  H23A 1762   0.195   4.103   8.880  2.5459  0.1737  3.9081
   24CHL1  H23B 1763   0.011   4.089   8.912 -1.1930  1.6228  1.2402
   24CHL1   C24 1764   0.058   4.274   8.836  0.5582 -0.6788  0.0186
   24CHL1  H24A 1765  -0.039   4.314   8.871  0.4262 -2.2214  1.5970
   24CHL1  H24B 1766   0.137   4.352   8.837  0.9950 -1.0878 -1.1036
   24CHL1   C25 1767   0.037   4.242   8.691  0.1861 -0.7761 -0.1361
   24CHL1   H25 1768  -0.045   4.168   8.682 -0.5362  0.0904 -0.9274
   24CHL1   C26 1769  -0.011   4.372   8.625 -0.4219 -0.6995  0.8349
   24CHL1  H26A 1770  -0.039   4.338   8.523 -2.2956 -1.1164  1.4495
   24CHL1  H26B 1771  -0.098   4.424   8.670 -1.1331 -0.0333 -1.1814
   24CHL1  H26C 1772   0.075   4.442   8.616 -0.4424 -0.7811 -0.1711
   24CHL1   C27 1773   0.158   4.193   8.617 -0.4147 -0.0722  0.4363
   24CHL1  H27A 1774   0.171   4.087   8.650  0.5347 -0.4088 -0.9565
   24CHL1  H27B 1775   0.147   4.195   8.507 -1.1392  1.1816  0.5092
   24CHL1  H27C 1776   0.256   4.237   8.643 -0.3681 -0.1220  0.3455
   25CHL1    C3 1777   1.274   3.603  10.232 -0.7182 -0.5413  0.3961
   25CHL1    H3 1778   1.353   3.527  10.213 -1.4888 -1.2547 -0.0198
   25CHL1    O3 1779   1.270   3.634  10.368 -0.2116 -0.2997 -0.2703
   25CHL1   H3' 1780   1.195   3.695  10.368 -2.3433 -2.7667  0.2418
   25CHL1    C4 1781   1.301   3.734  10.148  0.0832 -0.4715  0.0907
   25CHL1   H4A 1782   1.220   3.805  10.173  1.4878 -0.3000  5.2904
   25CHL1   H4B 1783   1.390   3.779  10.197  0.0199 -2.0068  1.7203
   25CHL1    C5 1784   1.300   3.710   9.994  0.4007  0.0964 -0.3911
   25CHL1    C6 1785   1.401   3.751   9.919 -0.4238 -0.0837  0.2148
   25CHL1    H6 1786   1.486   3.803   9.965  0.6701 -0.7622 -0.9685
   25CHL1    C7 1787   1.400   3.749   9.770  0.3397  0.8510 -0.3199
   25CHL1   H7A 1788   1.438   3.843   9.723 -1.4135  1.4946 -0.5396
   25CHL1   H7B 1789   1.474   3.676   9.733  0.2141 -0.4765  1.8644
   25CHL1    C8 1790   1.259   3.713   9.721 -0.0417  0.3682  0.3830
   25CHL1    H8 1791   1.198   3.804   9.734  2.5850  2.1513  1.1140
   25CHL1   C14 1792   1.265   3.666   9.575 -0.9884  0.2354  0.3369
   25CHL1   H14 1793   1.337   3.582   9.569 -0.4183  0.7505 -0.1535
   25CHL1   C15 1794   1.339   3.762   9.471 -0.1596  0.2723 -0.2479
   25CHL1  H15A 1795   1.310   3.869   9.476  0.6270  0.5451 -1.1883
   25CHL1  H15B 1796   1.447   3.755   9.491 -0.2399  0.9504  0.4624
   25CHL1   C16 1797   1.280   3.709   9.337 -0.2942  0.5925 -0.2835
   25CHL1  H16A 1798   1.239   3.796   9.281 -0.9548  2.8192  3.3280
   25CHL1  H16B 1799   1.357   3.655   9.279 -0.0908 -1.8118  2.0265
   25CHL1   C17 1800   1.177   3.603   9.366 -0.1425  0.7513 -0.3069
   25CHL1   H17 1801   1.228   3.504   9.363 -2.4786 -0.5350 -2.1226
   25CHL1   C13 1802   1.125   3.628   9.509 -0.0899 -0.4090  0.2754
   25CHL1   C18 1803   1.035   3.751   9.508 -0.4243  0.0320 -0.0852
   25CHL1  H18A 1804   1.081   3.833   9.449 -0.2090 -0.1188 -0.1265
   25CHL1  H18B 1805   0.941   3.734   9.450 -0.7044 -1.6950  0.7979
   25CHL1  H18C 1806   1.005   3.778   9.612 -1.8887 -2.6286  0.2761
   25CHL1   C12 1807   1.061   3.517   9.590 -0.2177  0.2586  0.2313
   25CHL1  H12A 1808   0.960   3.491   9.551 -0.1983  1.2269 -0.5164
   25CHL1  H12B 1809   1.131   3.431   9.586 -0.9287 -0.4830  2.1958
   25CHL1   C11 1810   1.056   3.547   9.743 -0.3816 -0.4321  0.6166
   25CHL1  H11A 1811   0.977   3.624   9.758  0.7646  0.7167  1.0078
   25CHL1  H11B 1812   1.047   3.453   9.801  1.7843 -0.6269  0.7422
   25CHL1    C9 1813   1.186   3.608   9.803 -0.1794  0.6173 -0.1256
   25CHL1    H9 1814   1.261   3.526   9.808 -1.5395 -0.6457  0.1443
   25CHL1   C10 1815   1.168   3.642   9.947  0.4259  0.1422  0.2562
   25CHL1   C19 1816   1.045   3.738   9.970  0.0111 -0.2156  0.3366
   25CHL1  H19A 1817   1.025   3.806   9.884 -0.6037 -1.3885 -0.4686
   25CHL1  H19B 1818   0.959   3.671   9.991  1.1255 -2.1009 -0.9166
   25CHL1  H19C 1819   1.047   3.804  10.060 -0.3349 -0.2856  0.3973
   25CHL1    C1 1820   1.142   3.513  10.030 -0.5924  0.3854 -0.0356
   25CHL1   H1A 1821   1.041   3.471  10.013 -1.2734  1.0716  2.0431
   25CHL1   H1B 1822   1.225   3.442  10.010  0.0633  1.8916 -3.3452
   25CHL1    C2 1823   1.146   3.534  10.183  0.3090  1.1496 -0.3225
   25CHL1   H2A 1824   1.137   3.438  10.238  0.3027  1.0965 -0.4159
   25CHL1   H2B 1825   1.060   3.598  10.215 -1.3592 -1.1992  0.1611
   25CHL1   C20 1826   1.075   3.589   9.247  0.1072  0.0869 -0.5332
   25CHL1   H20 1827   0.996   3.667   9.252  0.8888  0.8165  1.4159
   25CHL1   C21 1828   1.013   3.452   9.262 -0.1460  0.1887 -0.4560
   25CHL1  H21A 1829   0.959   3.437   9.358  1.1354 -0.3312  0.1965
   25CHL1  H21B 1830   1.093   3.376   9.257 -0.9368 -0.6529 -0.6618
   25CHL1  H21C 1831   0.934   3.433   9.185 -1.2360  0.7447  0.4894
   25CHL1   C22 1832   1.136   3.605   9.102  0.5361 -0.4207 -0.3015
   25CHL1  H22A 1833   1.185   3.704   9.091 -0.2552 -0.0345 -0.4250
   25CHL1  H22B 1834   1.222   3.536   9.087  1.0789  0.2789 -0.4771
   25CHL1   C23 1835   1.034   3.589   8.986 -0.4346 -0.6846  0.2953
   25CHL1  H23A 1836   0.994   3.486   8.974 -3.4303  0.3685  0.4522
   25CHL1  H23B 1837   0.944   3.648   9.009 -0.1957 -0.4935  0.7504
   25CHL1   C24 1838   1.092   3.643   8.850 -0.0756 -0.0663  0.1304
   25CHL1  H24A 1839   1.150   3.734   8.875 -0.7331  0.4539 -0.2154
   25CHL1  H24B 1840   1.157   3.564   8.808 -1.4200  0.6627 -3.7135
   25CHL1   C25 1841   0.993   3.674   8.739 -0.4977  0.0115  0.2140
   25CHL1   H25 1842   1.066   3.694   8.657 -2.8816 -1.9545 -2.6152
   25CHL1   C26 1843   0.895   3.570   8.697  0.8450 -0.1869 -0.0914
   25CHL1  H26A 1844   0.832   3.601   8.611  0.0147  0.8843  0.8766
   25CHL1  H26B 1845   0.946   3.477   8.665 -3.4203 -2.9693  0.3949
   25CHL1  H26C 1846   0.838   3.547   8.789  0.0754  1.6684 -0.0612
   25CHL1   C27 1847   0.919   3.813   8.770 -0.8924  0.4984  0.2142
   25CHL1  H27A 1848   0.892   3.801   8.877 -1.1425 -0.8755  0.0256
   25CHL1  H27B 1849   0.990   3.897   8.755 -3.0036  1.8889 -3.1549
   25CHL1  H27C 1850   0.837   3.843   8.702 -0.8231 -0.6572 -0.4063
   26CHL1    C3 1851   3.002   0.775   9.996 -0.5314 -0.1768 -0.4191
   26CHL1    H3 1852   3.105   0.808   9.971 -0.4982 -0.9577 -1.3673
   26CHL1    O3 1853   2.989   0.794  10.140  0.1371 -0.3162  0.4073
   26CHL1   H3' 1854   2.908   0.745  10.157  0.8794 -1.4849  0.6644
   26CHL1    C4 1855   2.910   0.873   9.928  0.1819  0.2604 -0.2905
   26CHL1   H4A 1856   2.809   0.859   9.971 -0.0390  0.0614 -0.8579
   26CHL1   H4B 1857   2.940   0.976   9.956 -1.6297  0.2035  2.2333
   26CHL1    C5 1858   2.920   0.854   9.778 -0.2474 -0.3486  0.3364
   26CHL1    C6 1859   2.941   0.955   9.692 -0.4905  0.3917  0.0327
   26CHL1    H6 1860   2.948   1.057   9.732  2.6845  0.1156  0.4645
   26CHL1    C7 1861   2.944   0.940   9.544 -0.4704  0.0597 -0.0806
   26CHL1   H7A 1862   2.893   1.029   9.501  0.4759  0.2134 -0.9461
   26CHL1   H7B 1863   3.051   0.953   9.514 -1.0547  3.2805 -1.2186
   26CHL1    C8 1864   2.892   0.804   9.491 -0.4997  0.7011 -0.2701
   26CHL1    H8 1865   2.781   0.793   9.497 -0.4909  1.0858  0.9644
   26CHL1   C14 1866   2.935   0.785   9.349 -0.2265 -0.8587  0.4715
   26CHL1   H14 1867   3.046   0.781   9.345 -0.2301 -1.1527  0.5932
   26CHL1   C15 1868   2.895   0.888   9.246  0.3107  0.3039  0.0858
   26CHL1  H15A 1869   2.789   0.915   9.264  0.2007  0.2469 -0.4569
   26CHL1  H15B 1870   2.959   0.977   9.261  3.1957 -1.6386  0.1481
   26CHL1   C16 1871   2.914   0.815   9.108  0.3671 -0.4235 -0.1993
   26CHL1  H16A 1872   2.810   0.823   9.071  1.0660  0.2698 -2.0847
   26CHL1  H16B 1873   2.976   0.876   9.040 -1.3924  0.9270 -0.6581
   26CHL1   C17 1874   2.940   0.667   9.135  0.8206 -0.1860 -1.3251
   26CHL1   H17 1875   3.048   0.642   9.138  1.0082  0.6544  0.4720
   26CHL1   C13 1876   2.890   0.654   9.283  0.4589 -0.1298  0.0572
   26CHL1   C18 1877   2.733   0.645   9.288  0.2531 -0.1151 -0.0496
   26CHL1  H18A 1878   2.680   0.722   9.228 -0.6674  1.0773  2.1533
   26CHL1  H18B 1879   2.708   0.545   9.248 -1.5835  0.3323 -0.0986
   26CHL1  H18C 1880   2.697   0.653   9.393 -0.3952  0.2941 -0.2952
   26CHL1   C12 1881   2.960   0.539   9.360 -0.6269  0.0988  0.3854
   26CHL1  H12A 1882   2.931   0.441   9.317  1.8701 -0.5309  0.0050
   26CHL1  H12B 1883   3.070   0.545   9.348 -0.8852  3.1795 -1.6690
   26CHL1   C11 1884   2.926   0.542   9.511  0.0875  0.1267 -0.0117
   26CHL1  H11A 1885   2.818   0.520   9.529  0.8435 -2.4455  1.9662
   26CHL1  H11B 1886   2.983   0.461   9.561  0.0515 -1.3436 -2.1947
   26CHL1    C9 1887   2.947   0.688   9.575 -0.5361  0.2345  0.5077
   26CHL1    H9 1888   3.058   0.699   9.571 -0.4549 -0.7656 -2.4944
   26CHL1   C10 1889   2.908   0.707   9.731  0.3350 -0.2620  0.4837
   26CHL1   C19 1890   2.760   0.666   9.746 -0.3023 -0.2543 -0.4607
   26CHL1  H19A 1891   2.712   0.685   9.845  2.8645 -0.4401  1.2339
   26CHL1  H19B 1892   2.692   0.706   9.668 -1.0938  1.3887  1.0184
   26CHL1  H19C 1893   2.746   0.555   9.747 -0.3544 -0.3246  2.8430
   26CHL1    C1 1894   2.996   0.608   9.808 -0.2918 -1.3244  0.4676
   26CHL1   H1A 1895   2.964   0.503   9.790 -0.0821 -1.0472 -1.8545
   26CHL1   H1B 1896   3.103   0.625   9.783 -0.4331 -0.4579  0.4087
   26CHL1    C2 1897   2.977   0.629   9.957  0.1691  0.1141 -0.3909
   26CHL1   H2A 1898   3.043   0.562  10.016 -0.5358  0.2648  0.6024
   26CHL1   H2B 1899   2.875   0.600   9.991  0.4030 -0.2051  0.0519
   26CHL1   C20 1900   2.873   0.589   9.030  0.0098  0.5440 -0.1182
   26CHL1   H20 1901   2.762   0.585   9.030 -0.0030  0.8833 -0.1955
   26CHL1   C21 1902   2.916   0.440   9.041 -0.4627  0.1153  0.0131
   26CHL1  H21A 1903   2.900   0.387   8.945 -0.4712 -0.2889  0.2351
   26CHL1  H21B 1904   2.862   0.385   9.121 -0.1525 -0.9281 -0.4850
   26CHL1  H21C 1905   3.027   0.433   9.050 -0.5776 -0.7985  0.8448
   26CHL1   C22 1906   2.906   0.633   8.883 -0.3339 -0.6063  0.0961
   26CHL1  H22A 1907   2.860   0.557   8.815  0.4897 -1.5778  0.6064
   26CHL1  H22B 1908   2.861   0.729   8.851 -1.3939 -0.7616  1.0548
   26CHL1   C23 1909   3.058   0.634   8.856  0.6800 -0.5726 -0.0527
   26CHL1  H23A 1910   3.111   0.714   8.912 -0.8936  0.6591 -0.2606
   26CHL1  H23B 1911   3.095   0.536   8.893  0.7139 -0.1392  1.1012
   26CHL1   C24 1912   3.083   0.656   8.707  0.7019 -0.8431 -0.1230
   26CHL1  H24A 1913   3.031   0.573   8.654 -1.0875 -0.3105  0.7113
   26CHL1  H24B 1914   3.044   0.752   8.666  1.3452  0.5434  2.3367
   26CHL1   C25 1915   3.230   0.667   8.654  0.1938  0.0028 -0.0039
   26CHL1   H25 1916   3.264   0.760   8.704 -1.4691  1.2481 -1.0933
   26CHL1   C26 1917   3.315   0.547   8.706 -0.3053 -0.3105  0.4333
   26CHL1  H26A 1918   3.314   0.552   8.817  1.3849 -0.4458  0.4792
   26CHL1  H26B 1919   3.256   0.459   8.673 -3.9709  1.7395  0.9724
   26CHL1  H26C 1920   3.418   0.557   8.666  0.4530  2.2349  2.7500
   26CHL1   C27 1921   3.244   0.695   8.505  1.2239  0.0016 -0.2158
   26CHL1  H27A 1922   3.343   0.698   8.455  0.1435  0.5240 -2.4431
   26CHL1  H27B 1923   3.188   0.624   8.440  0.2012  0.7842 -0.2135
   26CHL1  H27C 1924   3.193   0.791   8.484  1.6821  0.3949  0.4449
   27CHL1    C3 1925   0.300   4.471  10.278 -0.1385  0.1451 -0.1649
   27CHL1    H3 1926   0.211   4.537  10.263 -1.0541 -0.7331  1.1773
   27CHL1    O3 1927   0.315   4.434  10.416 -0.1364 -0.3207 -1.0533
   27CHL1   H3' 1928   0.391   4.374  10.419  0.9318  1.0440  0.8117
   27CHL1    C4 1929   0.290   4.346  10.199 -0.3151  0.3447  0.0171
   27CHL1   H4A 1930   0.372   4.278  10.232  0.9370  1.9752  0.4102
   27CHL1   H4B 1931   0.201   4.281  10.211  2.3305 -3.8564 -0.7034
   27CHL1    C5 1932   0.316   4.366  10.047 -0.2553  0.1894  0.1800
   27CHL1    C6 1933   0.238   4.309   9.954 -0.4700 -0.2346  0.5091
   27CHL1    H6 1934   0.148   4.250   9.977  0.7037 -1.7603  1.3989
   27CHL1    C7 1935   0.271   4.320   9.805  0.4422 -0.1481  0.3220
   27CHL1   H7A 1936   0.240   4.228   9.750 -0.8776  1.4186 -1.6971
   27CHL1   H7B 1937   0.204   4.402   9.773  1.3327  1.3218  2.0670
   27CHL1    C8 1938   0.414   4.357   9.766 -0.4651 -0.3914  0.2280
   27CHL1    H8 1939   0.475   4.266   9.788 -0.3297 -0.2909  0.2664
   27CHL1   C14 1940   0.429   4.408   9.624  0.2373  0.0346  0.3071
   27CHL1   H14 1941   0.361   4.495   9.609 -1.2096 -1.1692 -0.4401
   27CHL1   C15 1942   0.372   4.308   9.524 -0.2844  0.2547 -0.9712
   27CHL1  H15A 1943   0.423   4.212   9.546 -0.2191 -0.1835 -2.8476
   27CHL1  H15B 1944   0.262   4.294   9.521 -0.2552  0.1127 -1.7920
   27CHL1   C16 1945   0.437   4.368   9.397  0.0993 -0.2238  0.0956
   27CHL1  H16A 1946   0.482   4.281   9.345 -1.7463 -0.6533 -0.8729
   27CHL1  H16B 1947   0.345   4.393   9.339 -1.2699 -2.9334  0.8850
   27CHL1   C17 1948   0.528   4.493   9.433  0.5199  0.7780  0.8608
   27CHL1   H17 1949   0.463   4.583   9.427 -0.9181 -0.2497  0.3782
   27CHL1   C13 1950   0.563   4.464   9.579  0.6923  0.2708  0.0855
   27CHL1   C18 1951   0.667   4.341   9.603  0.4988  0.6479  0.6699
   27CHL1  H18A 1952   0.699   4.323   9.708  0.9091  0.1423  0.4626
   27CHL1  H18B 1953   0.636   4.241   9.567  3.8343 -0.7791  1.3318
   27CHL1  H18C 1954   0.761   4.355   9.546 -0.6436  1.8330 -1.0153
   27CHL1   C12 1955   0.605   4.581   9.669  0.1490 -0.2275 -0.8595
   27CHL1  H12A 1956   0.711   4.605   9.646  0.2375 -1.1176 -1.4171
   27CHL1  H12B 1957   0.552   4.674   9.639  2.1012  0.5578 -2.0423
   27CHL1   C11 1958   0.599   4.541   9.820 -0.1385  0.2306 -0.1906
   27CHL1  H11A 1959   0.684   4.471   9.836  0.1440  0.6225  0.0239
   27CHL1  H11B 1960   0.632   4.619   9.891  0.2645 -2.8374  3.3178
   27CHL1    C9 1961   0.462   4.469   9.857  0.0070 -0.4135  0.4737
   27CHL1    H9 1962   0.394   4.556   9.844  1.5741  1.0204  1.4644
   27CHL1   C10 1963   0.448   4.437  10.008  0.9073 -0.4482 -0.3749
   27CHL1   C19 1964   0.564   4.344  10.048 -0.4968  0.2731 -1.1523
   27CHL1  H19A 1965   0.550   4.243  10.003 -2.8213 -0.3815  0.8268
   27CHL1  H19B 1966   0.668   4.375  10.021 -0.2519 -1.0707 -1.8677
   27CHL1  H19C 1967   0.567   4.326  10.158 -1.5624 -0.8708 -1.2922
   27CHL1    C1 1968   0.449   4.567  10.090  0.5322 -0.3895 -0.2432
   27CHL1   H1A 1969   0.544   4.623  10.079  0.1442 -0.0288 -2.0194
   27CHL1   H1B 1970   0.375   4.641  10.051  1.7044  1.5655  1.0720
   27CHL1    C2 1971   0.430   4.550  10.244  0.8047 -0.3893 -0.2611
   27CHL1   H2A 1972   0.435   4.646  10.300  0.7334 -0.8662  0.5777
   27CHL1   H2B 1973   0.519   4.495  10.281  0.9770  0.7059  1.0430
   27CHL1   C20 1974   0.649   4.506   9.332  0.3604 -0.3540 -0.6689
   27CHL1   H20 1975   0.720   4.424   9.354  2.1176  1.3102  0.2154
   27CHL1   C21 1976   0.717   4.644   9.343  0.2588  1.1704 -0.8526
   27CHL1  H21A 1977   0.765   4.678   9.249 -0.3360  2.7824 -0.5941
   27CHL1  H21B 1978   0.784   4.630   9.431 -0.8424 -3.8878 -0.4740
   27CHL1  H21C 1979   0.638   4.717   9.371 -0.7720 -0.3420  0.3853
   27CHL1   C22 1980   0.612   4.482   9.185 -0.4378  0.8133 -0.0830
   27CHL1  H22A 1981   0.560   4.386   9.169 -1.7349  1.5482 -0.4650
   27CHL1  H22B 1982   0.536   4.556   9.151 -1.8769 -0.2173  0.7674
   27CHL1   C23 1983   0.724   4.478   9.080  0.3085  0.5561 -0.3214
   27CHL1  H23A 1984   0.763   4.578   9.053  1.0295  0.5565  0.6635
   27CHL1  H23B 1985   0.802   4.415   9.128  0.4531  1.1290  0.2085
   27CHL1   C24 1986   0.670   4.417   8.949  0.6555 -0.2481  0.8398
   27CHL1  H24A 1987   0.569   4.459   8.931  0.2116 -1.5630  0.1392
   27CHL1  H24B 1988   0.732   4.461   8.868 -1.4757 -0.5625 -1.0465
   27CHL1   C25 1989   0.670   4.262   8.939 -0.1981  0.1362 -0.5722
   27CHL1   H25 1990   0.614   4.225   9.028 -2.3811  3.1746 -0.5426
   27CHL1   C26 1991   0.597   4.206   8.813  0.1764 -0.4531 -0.2595
   27CHL1  H26A 1992   0.629   4.265   8.724  1.2607  1.1088  1.0914
   27CHL1  H26B 1993   0.630   4.103   8.789 -0.1506 -0.7147  0.3684
   27CHL1  H26C 1994   0.487   4.204   8.831  0.1939 -3.7556  0.0476
   27CHL1   C27 1995   0.814   4.211   8.944 -0.5003 -0.3841 -0.2023
   27CHL1  H27A 1996   0.860   4.244   8.849 -0.4027 -1.3869 -0.5026
   27CHL1  H27B 1997   0.873   4.263   9.023 -0.3016 -0.7675 -0.0998
   27CHL1  H27C 1998   0.807   4.101   8.958 -0.0797 -0.2453  1.3466
   28CHL1    C3 1999   0.087   1.557  10.059  0.4926  0.2388  0.1363
   28CHL1    H3 2000   0.172   1.598  10.000 -0.3109 -0.9062 -1.9397
   28CHL1    O3 2001   0.110   1.572  10.193  0.3173  0.1776 -0.1907
   28CHL1   H3' 2002   0.096   1.666  10.208 -0.0122  0.0308  0.4685
   28CHL1    C4 2003  -0.035   1.649  10.028 -0.5380  0.7354 -0.1481
   28CHL1   H4A 2004  -0.123   1.609  10.082  0.1951 -0.9228 -0.0958
   28CHL1   H4B 2005  -0.012   1.750  10.068 -0.6828  0.7044  0.0175
   28CHL1    C5 2006  -0.066   1.644   9.876  0.2236 -0.4120 -0.0498
   28CHL1    C6 2007  -0.050   1.755   9.800 -0.3982  0.3206  0.0970
   28CHL1    H6 2008  -0.010   1.849   9.841  0.5903  0.1561 -0.4525
   28CHL1    C7 2009  -0.089   1.756   9.657  0.2993 -0.0048 -0.7668
   28CHL1   H7A 2010  -0.161   1.841   9.644 -1.2489 -1.4625 -2.3109
   28CHL1   H7B 2011   0.005   1.774   9.600  0.7657 -0.6479 -0.2078
   28CHL1    C8 2012  -0.152   1.626   9.603 -0.1352  0.1843  0.0432
   28CHL1    H8 2013  -0.259   1.637   9.632 -0.5322  0.2888 -1.4145
   28CHL1   C14 2014  -0.148   1.622   9.450  0.0335 -0.5279 -0.2500
   28CHL1   H14 2015  -0.038   1.618   9.432  0.9051 -1.1157  3.9523
   28CHL1   C15 2016  -0.209   1.744   9.375  0.3306 -0.5006 -0.4018
   28CHL1  H15A 2017  -0.317   1.762   9.395 -0.2589  0.1247 -3.5230
   28CHL1  H15B 2018  -0.150   1.838   9.385 -0.0607  0.1883 -3.5208
   28CHL1   C16 2019  -0.206   1.690   9.230 -0.8235 -0.1871  0.0969
   28CHL1  H16A 2020  -0.302   1.718   9.180  0.9991  0.7401 -3.1947
   28CHL1  H16B 2021  -0.122   1.726   9.166  0.7112 -0.9441  1.6261
   28CHL1   C17 2022  -0.189   1.529   9.236 -0.2232 -0.7927  0.0297
   28CHL1   H17 2023  -0.079   1.518   9.227 -0.1253  1.0455 -1.6938
   28CHL1   C13 2024  -0.209   1.494   9.387  0.4577 -0.1329  0.1101
   28CHL1   C18 2025  -0.362   1.488   9.413 -0.1481  0.5020  0.2948
   28CHL1  H18A 2026  -0.414   1.567   9.354  1.5306  2.0933  0.8408
   28CHL1  H18B 2027  -0.415   1.401   9.369 -0.1359  0.3383  0.6011
   28CHL1  H18C 2028  -0.388   1.492   9.521  1.2789  1.2506  0.6386
   28CHL1   C12 2029  -0.141   1.368   9.452 -0.5194 -0.5105 -0.0092
   28CHL1  H12A 2030  -0.187   1.273   9.421 -0.8305 -0.5481  0.5623
   28CHL1  H12B 2031  -0.033   1.368   9.425 -0.5712 -0.3729 -0.2164
   28CHL1   C11 2032  -0.136   1.375   9.611  0.3785 -0.2894 -0.5494
   28CHL1  H11A 2033  -0.245   1.365   9.632  0.2363 -0.0212 -1.1303
   28CHL1  H11B 2034  -0.082   1.283   9.642 -0.4813 -0.3712  0.7615
   28CHL1    C9 2035  -0.082   1.506   9.670  0.2327 -0.0051  0.3123
   28CHL1    H9 2036   0.025   1.513   9.639  0.1384 -2.1113 -0.6420
   28CHL1   C10 2037  -0.090   1.507   9.824 -0.0575 -0.0514  0.3644
   28CHL1   C19 2038  -0.232   1.463   9.882  0.4764  0.2986 -0.2826
   28CHL1  H19A 2039  -0.235   1.459   9.993  0.9007 -3.1496 -0.2705
   28CHL1  H19B 2040  -0.317   1.519   9.839 -0.0478  0.9300  1.4859
   28CHL1  H19C 2041  -0.255   1.361   9.843 -0.2361  0.7297 -1.0255
   28CHL1    C1 2042   0.025   1.404   9.872 -0.1310 -0.1120 -0.2553
   28CHL1   H1A 2043  -0.016   1.303   9.849  0.8463 -0.5701 -0.0311
   28CHL1   H1B 2044   0.107   1.416   9.797 -0.2609  0.8624 -0.2559
   28CHL1    C2 2045   0.055   1.416  10.019 -0.3698  0.1672 -0.2039
   28CHL1   H2A 2046   0.130   1.340  10.051 -0.0424  0.1035 -1.0984
   28CHL1   H2B 2047  -0.032   1.384  10.080  0.8353 -3.0961  0.0149
   28CHL1   C20 2048  -0.263   1.456   9.126 -0.1800  0.2234  1.0738
   28CHL1   H20 2049  -0.370   1.478   9.142  0.1280  1.7221  1.1753
   28CHL1   C21 2050  -0.246   1.309   9.150 -0.0696 -0.1874 -1.2221
   28CHL1  H21A 2051  -0.139   1.287   9.168 -0.4855 -0.6717  1.0322
   28CHL1  H21B 2052  -0.280   1.257   9.058 -0.9292  0.7326 -1.4398
   28CHL1  H21C 2053  -0.292   1.267   9.242 -0.1815  1.1922 -0.6084
   28CHL1   C22 2054  -0.226   1.507   8.984 -0.3826 -0.1112 -0.0456
   28CHL1  H22A 2055  -0.283   1.443   8.914 -2.0952  0.7644  0.5131
   28CHL1  H22B 2056  -0.257   1.613   8.971  2.4824  0.6827 -1.1912
   28CHL1   C23 2057  -0.079   1.493   8.957  0.4585 -0.2550  0.2256
   28CHL1  H23A 2058  -0.018   1.557   9.024 -0.6312 -0.9641  1.9328
   28CHL1  H23B 2059  -0.050   1.390   8.987  0.3743 -0.8824 -1.6580
   28CHL1   C24 2060  -0.039   1.504   8.812 -0.4644  0.4836 -0.5192
   28CHL1  H24A 2061  -0.079   1.418   8.755 -1.2146  1.8979 -2.2445
   28CHL1  H24B 2062  -0.079   1.593   8.759 -1.2874  1.1773  1.2031
   28CHL1   C25 2063   0.111   1.508   8.794  0.5663  0.2129 -0.2797
   28CHL1   H25 2064   0.155   1.443   8.873 -0.1853  0.6186  0.4958
   28CHL1   C26 2065   0.143   1.446   8.654 -0.3546  0.0596 -0.7195
   28CHL1  H26A 2066   0.250   1.458   8.629 -0.2524 -0.1474 -0.3895
   28CHL1  H26B 2067   0.114   1.339   8.658 -1.0982  0.2505 -0.7594
   28CHL1  H26C 2068   0.074   1.497   8.583 -2.0693  0.9374  1.4615
   28CHL1   C27 2069   0.168   1.650   8.816 -0.1659  0.5686 -0.3445
   28CHL1  H27A 2070   0.122   1.724   8.748 -0.2892 -0.8224 -1.8568
   28CHL1  H27B 2071   0.154   1.687   8.919  0.1775  3.5606 -1.2813
   28CHL1  H27C 2072   0.277   1.630   8.812 -0.5176 -1.4410 -2.3702
   29CHL1    C3 2073   0.382   1.266   6.495  0.3796 -0.0819  0.1132
   29CHL1    H3 2074   0.379   1.375   6.516 -3.1705 -0.3726  2.0057
   29CHL1    O3 2075   0.373   1.245   6.356 -0.4729 -0.5006  0.0938
   29CHL1   H3' 2076   0.446   1.301   6.329 -1.7817  2.2806  1.7937
   29CHL1    C4 2077   0.509   1.202   6.544  0.5037  0.2712 -0.7259
   29CHL1   H4A 2078   0.490   1.096   6.515 -1.5833  0.2300  0.6094
   29CHL1   H4B 2079   0.598   1.233   6.485  0.6706  3.1235  0.8394
   29CHL1    C5 2080   0.533   1.202   6.699 -0.3484 -0.5203  0.0453
   29CHL1    C6 2081   0.639   1.268   6.745  0.0123  0.4456 -0.7340
   29CHL1    H6 2082   0.710   1.319   6.679  2.0574  1.1739  1.8600
   29CHL1    C7 2083   0.667   1.296   6.887  0.6603 -0.1192 -0.0330
   29CHL1   H7A 2084   0.774   1.270   6.900  1.4129  1.1657 -2.8152
   29CHL1   H7B 2085   0.656   1.405   6.906 -0.2141 -0.3495  0.8660
   29CHL1    C8 2086   0.578   1.209   6.976  0.6454  0.7437 -0.6424
   29CHL1    H8 2087   0.620   1.107   6.984  0.7748  0.7409 -1.3574
   29CHL1   C14 2088   0.581   1.258   7.119 -0.2256 -0.7349 -0.1506
   29CHL1   H14 2089   0.516   1.347   7.134 -0.5313 -1.3244  2.6770
   29CHL1   C15 2090   0.722   1.286   7.176 -0.6913 -0.1095  0.0465
   29CHL1  H15A 2091   0.787   1.201   7.148 -1.5925  0.1326 -3.1625
   29CHL1  H15B 2092   0.757   1.382   7.133 -0.6498 -1.0385 -2.1246
   29CHL1   C16 2093   0.695   1.297   7.329 -0.1276  0.0769  0.3176
   29CHL1  H16A 2094   0.777   1.246   7.384 -0.4162  0.4323  1.0878
   29CHL1  H16B 2095   0.702   1.406   7.344  0.1894  0.2531 -0.9668
   29CHL1   C17 2096   0.552   1.238   7.354 -0.0353  0.5437 -0.0406
   29CHL1   H17 2097   0.482   1.324   7.358 -2.6549 -1.5107  0.6533
   29CHL1   C13 2098   0.514   1.168   7.220 -0.2289  0.2967 -0.3021
   29CHL1   C18 2099   0.576   1.023   7.229 -0.5199 -0.5153 -0.4167
   29CHL1  H18A 2100   0.510   0.968   7.298 -0.1444 -1.0445 -0.4763
   29CHL1  H18B 2101   0.572   0.964   7.135 -3.3919  0.3686 -0.9587
   29CHL1  H18C 2102   0.679   1.029   7.271 -0.1080  4.0471 -1.4997
   29CHL1   C12 2103   0.363   1.150   7.180 -1.1038 -0.6029  0.5793
   29CHL1  H12A 2104   0.317   1.074   7.246  1.2351 -2.7946 -0.1632
   29CHL1  H12B 2105   0.308   1.246   7.192  2.7194  1.6801  1.7030
   29CHL1   C11 2106   0.339   1.113   7.029  0.0439  0.1033  0.4350
   29CHL1  H11A 2107   0.371   1.008   7.019 -0.9076 -0.0479 -1.6781
   29CHL1  H11B 2108   0.232   1.124   7.001  0.4973  2.2661 -0.6570
   29CHL1    C9 2109   0.427   1.196   6.928 -0.1908 -0.3565 -0.6123
   29CHL1    H9 2110   0.375   1.293   6.941 -2.1017 -1.6715  3.1064
   29CHL1   C10 2111   0.414   1.156   6.784  0.4886  0.4693 -0.1549
   29CHL1   C19 2112   0.403   1.001   6.764  0.0685 -0.1362 -0.5577
   29CHL1  H19A 2113   0.482   0.947   6.821  0.8012  1.0285 -0.4448
   29CHL1  H19B 2114   0.303   0.957   6.781 -0.4327  0.6950 -1.2926
   29CHL1  H19C 2115   0.422   0.976   6.658  2.6171  2.0973 -0.7283
   29CHL1    C1 2116   0.287   1.213   6.730  0.1320  0.3609 -0.1275
   29CHL1   H1A 2117   0.207   1.150   6.775  2.0209 -0.9839  1.5109
   29CHL1   H1B 2118   0.295   1.322   6.750 -1.7752  0.6350 -0.6033
   29CHL1    C2 2119   0.264   1.196   6.573  0.5284 -0.0231 -0.0253
   29CHL1   H2A 2120   0.168   1.244   6.541 -0.7234 -0.2496  3.0199
   29CHL1   H2B 2121   0.271   1.087   6.553 -1.7341 -0.2026 -0.1433
   29CHL1   C20 2122   0.532   1.186   7.503  0.3306 -0.2094  0.5528
   29CHL1   H20 2123   0.610   1.111   7.527 -0.3165 -0.6938  1.1882
   29CHL1   C21 2124   0.393   1.129   7.528  0.3553  0.4261 -0.0173
   29CHL1  H21A 2125   0.312   1.202   7.506  0.2874  1.2807  2.6897
   29CHL1  H21B 2126   0.383   1.090   7.632 -1.4759 -1.5098 -0.8497
   29CHL1  H21C 2127   0.382   1.033   7.474  0.3209  1.1403 -1.3146
   29CHL1   C22 2128   0.564   1.302   7.601 -0.6865  0.3072  0.6809
   29CHL1  H22A 2129   0.656   1.358   7.573 -0.6909 -0.4635 -0.9304
   29CHL1  H22B 2130   0.475   1.368   7.600 -1.6873 -1.0114  0.9941
   29CHL1   C23 2131   0.587   1.273   7.750  0.1552 -0.1420  0.4569
   29CHL1  H23A 2132   0.576   1.371   7.801 -3.2633 -0.0883 -0.1967
   29CHL1  H23B 2133   0.508   1.209   7.795  0.6998  0.1867  1.9409
   29CHL1   C24 2134   0.725   1.210   7.791 -0.5091  0.2335  0.6997
   29CHL1  H24A 2135   0.729   1.107   7.751  1.0988  0.4008  0.3876
   29CHL1  H24B 2136   0.814   1.264   7.754 -0.6643  1.8775  2.5377
   29CHL1   C25 2137   0.745   1.195   7.944  0.8822  0.3130  0.2869
   29CHL1   H25 2138   0.749   1.299   7.983  1.8211  0.6969 -0.8055
   29CHL1   C26 2139   0.622   1.122   8.017  0.0562 -1.2311  0.0714
   29CHL1  H26A 2140   0.649   1.099   8.123 -0.2076 -1.1436  0.1600
   29CHL1  H26B 2141   0.529   1.181   8.003 -0.9422 -3.0101 -1.1520
   29CHL1  H26C 2142   0.601   1.027   7.965 -2.3686 -0.6756 -0.1002
   29CHL1   C27 2143   0.877   1.126   7.986 -0.6540 -0.0102 -0.0544
   29CHL1  H27A 2144   0.868   1.107   8.095  0.9458  0.6780  0.2186
   29CHL1  H27B 2145   0.890   1.031   7.930  0.6255 -0.9260  1.6856
   29CHL1  H27C 2146   0.967   1.190   7.971 -1.2816  1.3277  1.5271
   30CHL1    C3 2147   5.753   0.721   7.326  0.5692  0.0623 -0.6395
   30CHL1    H3 2148   5.861   0.747   7.319  0.3548  1.4734  0.6961
   30CHL1    O3 2149   5.696   0.692   7.197 -0.3789  0.1854 -0.1946
   30CHL1   H3' 2150   5.713   0.766   7.138 -0.6845 -1.2132 -2.1490
   30CHL1    C4 2151   5.745   0.595   7.411 -0.1158 -0.2484  0.7289
   30CHL1   H4A 2152   5.640   0.559   7.405  0.2505 -1.1382 -2.0620
   30CHL1   H4B 2153   5.801   0.517   7.355  0.5906  0.1997  0.8099
   30CHL1    C5 2154   5.799   0.610   7.550 -0.1656 -0.9716 -0.8744
   30CHL1    C6 2155   5.903   0.540   7.596  0.2170  0.0758 -0.3810
   30CHL1    H6 2156   5.942   0.458   7.534 -1.3377  0.6894 -2.2740
   30CHL1    C7 2157   5.969   0.554   7.729  0.4856  0.5071  0.5933
   30CHL1   H7A 2158   5.988   0.457   7.779 -1.1392  1.5530  3.4725
   30CHL1   H7B 2159   6.063   0.613   7.727 -0.9378  2.8673  0.2824
   30CHL1    C8 2160   5.872   0.633   7.822  0.6055  0.6363  0.3978
   30CHL1    H8 2161   5.786   0.568   7.846  0.2387  1.0223  0.1361
   30CHL1   C14 2162   5.943   0.671   7.957  0.5694  0.4674  0.1326
   30CHL1   H14 2163   6.028   0.739   7.936  0.5396  0.5530  0.2903
   30CHL1   C15 2164   6.011   0.549   8.031 -0.4206 -0.5463 -0.5803
   30CHL1  H15A 2165   5.944   0.460   8.027 -0.7703 -0.2756 -0.8278
   30CHL1  H15B 2166   6.110   0.528   7.985  0.2184 -1.6318  1.2042
   30CHL1   C16 2167   6.034   0.606   8.167 -0.7124 -0.3479 -0.3445
   30CHL1  H16A 2168   5.999   0.534   8.244 -0.8882  0.7652  0.6396
   30CHL1  H16B 2169   6.141   0.609   8.197 -0.7394  1.9746 -0.2791
   30CHL1   C17 2170   5.955   0.748   8.174 -0.3786  0.4354  0.5258
   30CHL1   H17 2171   6.035   0.812   8.130  0.7276 -1.2054  0.0462
   30CHL1   C13 2172   5.854   0.738   8.054  0.6223  0.3580 -0.4988
   30CHL1   C18 2173   5.724   0.660   8.109 -0.2776  0.8132  0.5281
   30CHL1  H18A 2174   5.676   0.602   8.027 -2.0798  1.5920  0.9769
   30CHL1  H18B 2175   5.761   0.591   8.187  0.8520  0.2977 -0.4404
   30CHL1  H18C 2176   5.652   0.732   8.154 -1.0822  0.6516 -0.4653
   30CHL1   C12 2177   5.811   0.870   7.996  0.0816 -0.3900 -0.0015
   30CHL1  H12A 2178   5.738   0.928   8.057 -1.9458 -2.3825 -0.3737
   30CHL1  H12B 2179   5.894   0.939   7.973 -0.1048 -0.6954 -1.7360
   30CHL1   C11 2180   5.739   0.838   7.858  0.2350 -0.0687 -0.0423
   30CHL1  H11A 2181   5.642   0.790   7.886  0.4878 -0.1881  0.6520
   30CHL1  H11B 2182   5.710   0.939   7.822 -1.8267  0.4941  2.7981
   30CHL1    C9 2183   5.820   0.759   7.753 -0.0542 -0.6269 -0.0276
   30CHL1    H9 2184   5.903   0.830   7.733 -1.0904  0.3232 -1.0920
   30CHL1   C10 2185   5.742   0.732   7.622 -0.5612 -0.3898 -1.1337
   30CHL1   C19 2186   5.599   0.680   7.663  0.0798  0.2028  0.5236
   30CHL1  H19A 2187   5.539   0.644   7.576  1.6357 -3.5199  0.8263
   30CHL1  H19B 2188   5.596   0.598   7.738 -1.2673  0.7241  1.0672
   30CHL1  H19C 2189   5.539   0.762   7.707  0.5879  1.6757 -1.3920
   30CHL1    C1 2190   5.737   0.858   7.530 -0.1401  0.2838 -0.1145
   30CHL1   H1A 2191   5.666   0.926   7.581 -2.6375 -1.0594 -1.6224
   30CHL1   H1B 2192   5.835   0.910   7.523  0.7203 -1.0924  0.9882
   30CHL1    C2 2193   5.682   0.838   7.393 -0.5132  0.0519 -0.1440
   30CHL1   H2A 2194   5.681   0.925   7.323 -3.2541 -1.4653 -2.1984
   30CHL1   H2B 2195   5.573   0.814   7.396 -0.2418 -1.1301  0.4133
   30CHL1   C20 2196   5.919   0.811   8.310 -0.2832 -0.0962  0.5901
   30CHL1   H20 2197   5.823   0.762   8.336 -0.8381  0.0384 -1.0698
   30CHL1   C21 2198   5.907   0.967   8.301  0.0394 -0.0740  0.0408
   30CHL1  H21A 2199   5.826   1.001   8.368 -0.3366  1.7192 -1.2450
   30CHL1  H21B 2200   5.879   0.997   8.198  1.7613  0.7880 -0.2201
   30CHL1  H21C 2201   6.003   1.014   8.332  0.9695 -2.2177  0.6207
   30CHL1   C22 2202   6.030   0.777   8.413 -0.7149 -0.4140  0.1722
   30CHL1  H22A 2203   6.059   0.671   8.402  1.1917  0.1170 -0.2491
   30CHL1  H22B 2204   6.121   0.840   8.408 -1.3163  0.4350 -0.4151
   30CHL1   C23 2205   5.983   0.780   8.557  0.5158  0.3829  0.0369
   30CHL1  H23A 2206   5.933   0.878   8.567 -0.4127 -0.2307  1.8160
   30CHL1  H23B 2207   5.915   0.694   8.575  0.9241  0.4086  1.9149
   30CHL1   C24 2208   6.083   0.758   8.671 -0.1790 -0.4560  0.5589
   30CHL1  H24A 2209   6.120   0.654   8.658 -0.2596 -0.2517 -1.8914
   30CHL1  H24B 2210   6.167   0.828   8.656 -0.4604  0.2316  2.0926
   30CHL1   C25 2211   6.022   0.783   8.815 -0.7617 -0.6475 -0.2718
   30CHL1   H25 2212   6.100   0.742   8.883  0.6681  0.7954 -0.9986
   30CHL1   C26 2213   6.002   0.933   8.836  0.0499 -0.3991  0.0294
   30CHL1  H26A 2214   5.906   0.958   8.787  0.2311 -1.4206 -0.8931
   30CHL1  H26B 2215   6.009   0.957   8.944 -0.8950  0.3081 -0.0551
   30CHL1  H26C 2216   6.081   0.986   8.779 -0.7362 -0.9422 -1.6180
   30CHL1   C27 2217   5.896   0.703   8.848 -0.0845 -0.4049  0.2557
   30CHL1  H27A 2218   5.863   0.728   8.950  2.3411  0.6243  0.8574
   30CHL1  H27B 2219   5.811   0.721   8.779 -1.2623  0.3191  1.8483
   30CHL1  H27C 2220   5.919   0.595   8.830 -2.7520 -1.3449  1.9297
   31CHL1    C3 2221   2.195   2.244   6.728  0.1071  0.0056  0.0038
   31CHL1    H3 2222   2.305   2.228   6.727  0.3566  1.0453  2.6037
   31CHL1    O3 2223   2.139   2.198   6.606  0.2526 -0.0736 -0.2892
   31CHL1   H3' 2224   2.044   2.192   6.622  0.1120 -1.7267 -1.4605
   31CHL1    C4 2225   2.116   2.174   6.841  0.4624  1.1061  0.3740
   31CHL1   H4A 2226   2.009   2.205   6.838 -0.1429 -0.8088  0.6526
   31CHL1   H4B 2227   2.132   2.069   6.808 -0.5019  1.6777 -2.1439
   31CHL1    C5 2228   2.177   2.213   6.972  0.3008 -0.4898 -0.5460
   31CHL1    C6 2229   2.221   2.116   7.054  0.8994  0.4836 -0.0881
   31CHL1    H6 2230   2.223   2.013   7.015 -2.1329  0.5630 -0.7015
   31CHL1    C7 2231   2.298   2.146   7.179  0.5296  0.8252  0.2796
   31CHL1   H7A 2232   2.255   2.079   7.256 -0.0123 -0.7082 -1.2863
   31CHL1   H7B 2233   2.404   2.132   7.150  0.4001 -1.5864  0.8257
   31CHL1    C8 2234   2.273   2.293   7.225 -0.3148 -0.0724 -0.2669
   31CHL1    H8 2235   2.169   2.303   7.262  0.4206  0.0863  1.9128
   31CHL1   C14 2236   2.363   2.331   7.335 -1.0254 -0.1095  0.0247
   31CHL1   H14 2237   2.464   2.315   7.293 -1.8387  2.0385 -3.1160
   31CHL1   C15 2238   2.349   2.260   7.474 -0.1978 -0.1730 -0.0357
   31CHL1  H15A 2239   2.241   2.249   7.497 -0.0252  0.8849  1.4353
   31CHL1  H15B 2240   2.392   2.158   7.464 -1.9799 -1.1967  2.1030
   31CHL1   C16 2241   2.437   2.339   7.573  0.6742  0.1480 -0.4673
   31CHL1  H16A 2242   2.393   2.353   7.674  0.2343  1.0824 -0.7781
   31CHL1  H16B 2243   2.533   2.282   7.573  1.4416  1.3840 -1.0176
   31CHL1   C17 2244   2.457   2.472   7.496  0.2436 -0.4244  0.0076
   31CHL1   H17 2245   2.557   2.463   7.448  0.2888  0.6242 -0.1169
   31CHL1   C13 2246   2.357   2.474   7.382  0.2258  0.1273 -0.3227
   31CHL1   C18 2247   2.222   2.531   7.429 -0.2658  0.3619 -0.4636
   31CHL1  H18A 2248   2.186   2.484   7.523  0.9519  1.8443  0.8029
   31CHL1  H18B 2249   2.225   2.640   7.450  1.1412  0.3047 -0.2777
   31CHL1  H18C 2250   2.141   2.515   7.355  1.7067 -4.0395 -2.0418
   31CHL1   C12 2251   2.405   2.560   7.264 -0.1171  0.3110 -0.4728
   31CHL1  H12A 2252   2.397   2.667   7.291 -1.1314  0.1116  0.0891
   31CHL1  H12B 2253   2.503   2.520   7.232 -0.4717 -1.9874  1.0941
   31CHL1   C11 2254   2.307   2.538   7.148 -0.4527  0.0398 -0.3289
   31CHL1  H11A 2255   2.209   2.581   7.177 -0.1974  0.4268 -0.0281
   31CHL1  H11B 2256   2.333   2.599   7.059 -0.4844  0.7119  0.1120
   31CHL1    C9 2257   2.293   2.392   7.106 -0.8989 -0.2402 -0.3545
   31CHL1    H9 2258   2.394   2.368   7.067 -1.4508 -2.4287 -0.5477
   31CHL1   C10 2259   2.195   2.366   6.996  1.0085 -0.4072  0.7726
   31CHL1   C19 2260   2.046   2.411   7.025 -0.3090  0.2225 -0.5061
   31CHL1  H19A 2261   2.000   2.378   7.121  2.0078  1.3742  1.0852
   31CHL1  H19B 2262   2.039   2.518   7.054  0.9352  0.4163 -0.8814
   31CHL1  H19C 2263   1.977   2.399   6.938 -1.2943  1.4027  0.0744
   31CHL1    C1 2264   2.239   2.448   6.861 -0.7986  0.3075  0.4242
   31CHL1   H1A 2265   2.204   2.553   6.861 -1.1930  0.1839  1.3937
   31CHL1   H1B 2266   2.349   2.436   6.852 -0.8136  1.0838 -1.0782
   31CHL1    C2 2267   2.172   2.395   6.733 -0.2087  0.3462  0.1009
   31CHL1   H2A 2268   2.211   2.457   6.650 -0.8471  0.0428 -0.4390
   31CHL1   H2B 2269   2.064   2.423   6.726  0.0343  1.0524 -0.8831
   31CHL1   C20 2270   2.458   2.594   7.597 -0.0599 -0.5616  0.6134
   31CHL1   H20 2271   2.416   2.679   7.539 -1.9608 -0.4842  2.0116
   31CHL1   C21 2272   2.606   2.608   7.641 -0.1581 -0.2052 -0.1389
   31CHL1  H21A 2273   2.616   2.711   7.682 -2.0907 -0.2958  0.6866
   31CHL1  H21B 2274   2.686   2.604   7.565  0.6094  1.1148  0.5513
   31CHL1  H21C 2275   2.630   2.542   7.728 -0.3977  0.9381  0.8262
   31CHL1   C22 2276   2.364   2.585   7.719  0.5148 -0.0463 -0.0498
   31CHL1  H22A 2277   2.261   2.552   7.695  0.0471  0.9495  0.5240
   31CHL1  H22B 2278   2.402   2.519   7.799 -1.7298 -1.1728  0.1563
   31CHL1   C23 2279   2.332   2.726   7.773 -0.3880  0.2812 -0.1614
   31CHL1  H23A 2280   2.427   2.782   7.789 -0.3766 -0.2114  1.7398
   31CHL1  H23B 2281   2.268   2.770   7.694  0.2228  1.1590 -0.1782
   31CHL1   C24 2282   2.249   2.742   7.902 -0.2968  0.8984  0.4839
   31CHL1  H24A 2283   2.167   2.818   7.904  1.0462  2.3956  0.5723
   31CHL1  H24B 2284   2.180   2.654   7.903 -0.9345  1.3012 -1.6368
   31CHL1   C25 2285   2.339   2.728   8.025  0.3243  0.7128  0.3773
   31CHL1   H25 2286   2.410   2.642   8.022  0.2694  0.6814 -0.6040
   31CHL1   C26 2287   2.434   2.844   8.040  0.8514 -0.1295 -0.4431
   31CHL1  H26A 2288   2.393   2.944   8.014  2.8849  1.4555  2.0800
   31CHL1  H26B 2289   2.478   2.832   8.141  0.4559  1.5530 -0.0337
   31CHL1  H26C 2290   2.521   2.840   7.971  1.3605  0.2297  0.1675
   31CHL1   C27 2291   2.250   2.718   8.147 -0.2758  0.1257 -0.8087
   31CHL1  H27A 2292   2.302   2.742   8.242  1.6272 -1.3669 -1.4161
   31CHL1  H27B 2293   2.216   2.615   8.173  3.0323 -1.0774 -0.8335
   31CHL1  H27C 2294   2.156   2.777   8.141 -0.3385  0.0116 -0.9817
   32CHL1    C3 2295   0.881   0.668   6.770 -0.3726  0.0634 -0.5866
   32CHL1    H3 2296   0.892   0.558   6.754 -0.6732  0.2851 -2.5260
   32CHL1    O3 2297   0.877   0.741   6.650  0.3266  0.1693 -0.0428
   32CHL1   H3' 2298   0.859   0.833   6.667 -0.5242 -0.0706  0.4394
   32CHL1    C4 2299   0.755   0.697   6.847 -0.2424  0.4370 -0.1437
   32CHL1   H4A 2300   0.730   0.805   6.844 -1.3973  0.1796 -0.0967
   32CHL1   H4B 2301   0.665   0.649   6.802 -0.3133  0.4208  0.0141
   32CHL1    C5 2302   0.755   0.664   6.996  0.2096  0.2351 -0.3434
   32CHL1    C6 2303   0.665   0.581   7.050  0.3220  0.8462  0.0682
   32CHL1    H6 2304   0.578   0.545   6.993  0.2224 -1.7419  1.6896
   32CHL1    C7 2305   0.666   0.543   7.191 -0.2467 -0.2251  0.1127
   32CHL1   H7A 2306   0.564   0.533   7.234 -0.4833 -0.7448 -0.5569
   32CHL1   H7B 2307   0.713   0.442   7.198 -0.1968 -0.1174  1.5775
   32CHL1    C8 2308   0.747   0.639   7.274 -0.3604  1.1830 -0.6110
   32CHL1    H8 2309   0.690   0.734   7.284 -0.1937  1.2109  0.1736
   32CHL1   C14 2310   0.758   0.592   7.418 -0.3262 -0.7098 -0.4381
   32CHL1   H14 2311   0.800   0.489   7.410 -0.7995 -0.8401 -1.3962
   32CHL1   C15 2312   0.627   0.558   7.496  0.3822  0.0293  0.1768
   32CHL1  H15A 2313   0.551   0.640   7.498 -1.3245 -1.4909  1.2527
   32CHL1  H15B 2314   0.573   0.464   7.469  0.5790 -0.4265  1.3173
   32CHL1   C16 2315   0.674   0.541   7.640 -0.8047  0.3663 -0.0827
   32CHL1  H16A 2316   0.603   0.612   7.688 -2.4985  0.3697 -2.4201
   32CHL1  H16B 2317   0.652   0.437   7.673  0.6155  0.6860  2.0753
   32CHL1   C17 2318   0.819   0.585   7.641  0.1114 -0.0287 -0.0026
   32CHL1   H17 2319   0.875   0.490   7.624 -2.4273 -1.2866 -2.0268
   32CHL1   C13 2320   0.845   0.669   7.505 -0.2151 -0.0547 -0.7159
   32CHL1   C18 2321   0.784   0.808   7.515  0.0337 -0.3319  0.3882
   32CHL1  H18A 2322   0.771   0.854   7.415 -0.4723  1.0815  1.0743
   32CHL1  H18B 2323   0.681   0.790   7.555 -0.0044  0.2096  0.5473
   32CHL1  H18C 2324   0.834   0.885   7.578 -1.3799  2.4408 -1.6157
   32CHL1   C12 2325   0.985   0.671   7.448  0.3604  0.1470 -0.2718
   32CHL1  H12A 2326   1.051   0.735   7.511  1.3263  0.8581 -1.9309
   32CHL1  H12B 2327   1.028   0.569   7.441 -2.2137 -1.0061 -0.2966
   32CHL1   C11 2328   0.983   0.734   7.308  0.1125 -0.4120 -0.5099
   32CHL1  H11A 2329   0.955   0.841   7.324 -1.4835 -0.7460 -0.8718
   32CHL1  H11B 2330   1.091   0.729   7.286  1.1999 -1.1764  3.9501
   32CHL1    C9 2331   0.883   0.661   7.217 -0.2964 -0.3741  0.2670
   32CHL1    H9 2332   0.924   0.560   7.198 -1.0298 -0.5339 -0.5161
   32CHL1   C10 2333   0.881   0.717   7.068  0.2782  0.0672 -0.0806
   32CHL1   C19 2334   0.871   0.874   7.065 -0.6449  0.9102  0.2692
   32CHL1  H19A 2335   0.964   0.912   7.113 -0.8140  2.2581 -0.4218
   32CHL1  H19B 2336   0.886   0.923   6.966  1.0259  2.5154  1.2437
   32CHL1  H19C 2337   0.780   0.918   7.111 -1.7279  0.1449 -1.0740
   32CHL1    C1 2338   1.009   0.673   6.994 -0.4957 -0.5894 -0.0930
   32CHL1   H1A 2339   1.095   0.724   7.042  0.0490 -0.8446 -0.7871
   32CHL1   H1B 2340   1.017   0.562   6.997  2.3033 -0.4344  0.7674
   32CHL1    C2 2341   1.000   0.715   6.848 -0.5985 -0.0018 -0.2390
   32CHL1   H2A 2342   1.092   0.680   6.797 -0.7703 -0.1858 -0.4216
   32CHL1   H2B 2343   1.015   0.825   6.840 -1.7367  0.3692  2.0708
   32CHL1   C20 2344   0.862   0.633   7.785  0.1674 -0.8100 -0.0537
   32CHL1   H20 2345   0.832   0.740   7.790  1.5725 -0.0909 -3.5361
   32CHL1   C21 2346   1.015   0.633   7.785 -0.7537 -0.2426 -0.0158
   32CHL1  H21A 2347   1.058   0.650   7.886  1.9648  0.8676 -1.2744
   32CHL1  H21B 2348   1.070   0.711   7.729  1.2006 -1.1488  0.5225
   32CHL1  H21C 2349   1.042   0.528   7.758 -3.2785 -0.6884 -1.1220
   32CHL1   C22 2350   0.801   0.549   7.903 -0.2259 -0.3610  0.2146
   32CHL1  H22A 2351   0.696   0.518   7.881 -0.4430 -0.6682  1.6078
   32CHL1  H22B 2352   0.862   0.457   7.897  1.9695  1.0882 -1.8971
   32CHL1   C23 2353   0.805   0.622   8.034  0.2706  0.0378  0.7648
   32CHL1  H23A 2354   0.909   0.653   8.053  0.2950  1.1153 -0.8836
   32CHL1  H23B 2355   0.748   0.717   8.029 -0.4332 -0.4066 -0.1265
   32CHL1   C24 2356   0.750   0.525   8.136  0.1005 -0.3037 -0.2168
   32CHL1  H24A 2357   0.652   0.486   8.100 -0.4422  0.7022  0.1233
   32CHL1  H24B 2358   0.821   0.439   8.138 -2.0052 -2.1804 -1.0872
   32CHL1   C25 2359   0.724   0.575   8.281 -0.3753 -0.0365 -0.1308
   32CHL1   H25 2360   0.703   0.484   8.341 -0.3942 -1.3189 -1.9957
   32CHL1   C26 2361   0.846   0.643   8.341  0.2728  1.1927  0.1265
   32CHL1  H26A 2362   0.930   0.571   8.334 -0.8884 -0.1098 -1.3227
   32CHL1  H26B 2363   0.877   0.731   8.281  1.4574 -0.0613 -1.1702
   32CHL1  H26C 2364   0.826   0.673   8.446 -4.4666  1.4647 -0.6072
   32CHL1   C27 2365   0.605   0.670   8.283  0.5644  0.2209 -0.1816
   32CHL1  H27A 2366   0.623   0.765   8.228 -0.7815  0.9495  0.5719
   32CHL1  H27B 2367   0.516   0.624   8.236 -0.0949  2.6119 -1.4444
   32CHL1  H27C 2368   0.586   0.690   8.391 -0.8800 -1.6012 -0.0478
   33CHL1    C3 2369   1.859   0.455   6.956 -0.4177  0.6470  0.9547
   33CHL1    H3 2370   1.798   0.515   7.026 -0.9996  1.4989 -0.2650
   33CHL1    O3 2371   1.865   0.531   6.833  0.0897  0.0423  0.0725
   33CHL1   H3' 2372   1.906   0.479   6.764 -0.6449 -1.2391  0.5555
   33CHL1    C4 2373   1.998   0.421   7.021  0.5937 -0.7048  0.4420
   33CHL1   H4A 2374   2.058   0.387   6.935  1.2011 -0.1026  0.6162
   33CHL1   H4B 2375   2.046   0.517   7.050 -0.8077  0.4031 -0.7070
   33CHL1    C5 2376   1.995   0.339   7.148 -0.0091  0.5723 -0.0955
   33CHL1    C6 2377   2.054   0.371   7.262  0.5342 -0.1120  0.1938
   33CHL1    H6 2378   2.108   0.466   7.266  0.6806 -0.2016  0.3738
   33CHL1    C7 2379   2.065   0.295   7.391  1.2587 -0.4114 -0.7252
   33CHL1   H7A 2380   2.173   0.299   7.416  0.8698  1.9772  0.8443
   33CHL1   H7B 2381   2.004   0.345   7.470  0.7934 -0.0664 -1.2926
   33CHL1    C8 2382   2.000   0.161   7.376  0.5160  0.1151  0.3900
   33CHL1    H8 2383   2.072   0.096   7.322  0.3544  0.7249 -0.5819
   33CHL1   C14 2384   1.970   0.096   7.512  0.0556  0.2854  0.4368
   33CHL1   H14 2385   1.886   0.161   7.544  0.3987  1.7682 -1.4426
   33CHL1   C15 2386   2.072   0.110   7.627  0.0737 -0.1903 -0.2913
   33CHL1  H15A 2387   2.167   0.087   7.575 -0.4315  1.0357 -1.8343
   33CHL1  H15B 2388   2.068   0.209   7.678 -0.1537 -0.0788 -0.5269
   33CHL1   C16 2389   2.032  -0.005   7.715  0.4562  0.1597  0.7255
   33CHL1  H16A 2390   2.113  -0.081   7.713  0.9458  0.6666 -1.8043
   33CHL1  H16B 2391   2.005   0.020   7.820  0.1035  0.6076  0.5263
   33CHL1   C17 2392   1.899  -0.067   7.660  0.7290  0.3777 -0.1269
   33CHL1   H17 2393   1.820   0.000   7.702  1.4555 -0.6168  3.1052
   33CHL1   C13 2394   1.908  -0.045   7.510 -0.2008 -0.3467  0.4900
   33CHL1   C18 2395   2.007  -0.147   7.448 -0.2286 -0.8594  0.1037
   33CHL1  H18A 2396   2.022  -0.126   7.340 -1.0759  0.4369  0.2230
   33CHL1  H18B 2397   2.102  -0.146   7.506 -1.0523  3.2233  1.6859
   33CHL1  H18C 2398   1.961  -0.248   7.459 -3.5561  0.6010  0.7494
   33CHL1   C12 2399   1.773  -0.038   7.433 -0.3788 -0.0791 -0.4727
   33CHL1  H12A 2400   1.735  -0.142   7.420  2.1504 -1.1563  0.2455
   33CHL1  H12B 2401   1.698   0.024   7.486  0.0884  0.5148 -0.4883
   33CHL1   C11 2402   1.798   0.016   7.289 -0.4948 -0.3979  0.1115
   33CHL1  H11A 2403   1.855  -0.054   7.224  0.3538  0.4934 -0.1423
   33CHL1  H11B 2404   1.695   0.029   7.248 -0.9737 -0.2367  1.3376
   33CHL1    C9 2405   1.872   0.153   7.291  0.3016  0.0553 -0.1290
   33CHL1    H9 2406   1.809   0.233   7.335  0.0355  0.1431 -0.6583
   33CHL1   C10 2407   1.904   0.210   7.147 -0.9063  0.3302  0.1238
   33CHL1   C19 2408   1.984   0.111   7.056  0.7525 -0.0571  0.5286
   33CHL1  H19A 2409   1.939   0.011   7.043  0.5752  0.1319 -0.3222
   33CHL1  H19B 2410   1.997   0.143   6.951  1.7629 -0.7061  0.4434
   33CHL1  H19C 2411   2.088   0.093   7.091  0.7922  0.8056  0.9017
   33CHL1    C1 2412   1.771   0.249   7.079  0.8303 -0.3029 -0.2141
   33CHL1   H1A 2413   1.717   0.157   7.047  0.2601 -0.1004  0.1494
   33CHL1   H1B 2414   1.710   0.314   7.146 -0.1622 -1.0088 -0.4112
   33CHL1    C2 2415   1.787   0.321   6.938 -0.8278 -0.1386 -0.4940
   33CHL1   H2A 2416   1.689   0.338   6.889 -0.7659 -1.2563 -1.0196
   33CHL1   H2B 2417   1.839   0.253   6.867 -1.6503 -0.0142 -1.2369
   33CHL1   C20 2418   1.872  -0.207   7.716  0.3135  0.3813 -0.3331
   33CHL1   H20 2419   1.949  -0.276   7.677 -1.8313 -0.4412 -3.5082
   33CHL1   C21 2420   1.739  -0.256   7.662  0.1964 -0.0719  0.3114
   33CHL1  H21A 2421   1.657  -0.183   7.682 -0.3345  0.0717 -2.0592
   33CHL1  H21B 2422   1.710  -0.357   7.697 -3.1178  0.4963 -0.4495
   33CHL1  H21C 2423   1.750  -0.273   7.553 -1.1331 -1.9409  0.4249
   33CHL1   C22 2424   1.858  -0.200   7.876 -0.6230  0.0587 -0.0450
   33CHL1  H22A 2425   1.955  -0.158   7.910  1.0766 -2.3882 -1.6172
   33CHL1  H22B 2426   1.771  -0.136   7.903 -0.7298 -0.8754  1.9671
   33CHL1   C23 2427   1.845  -0.343   7.939  0.3628  0.0848  0.4028
   33CHL1  H23A 2428   1.760  -0.399   7.894  1.3619  0.5002 -2.1747
   33CHL1  H23B 2429   1.933  -0.402   7.906  1.0627  0.5801  1.3564
   33CHL1   C24 2430   1.834  -0.329   8.088  0.6751 -0.0734 -0.3719
   33CHL1  H24A 2431   1.928  -0.291   8.132  0.8724 -0.2096 -0.6730
   33CHL1  H24B 2432   1.759  -0.249   8.106  0.2508 -0.0501 -2.0778
   33CHL1   C25 2433   1.798  -0.459   8.155 -0.2195 -0.1413  0.1660
   33CHL1   H25 2434   1.701  -0.497   8.115 -0.6201  2.1764 -1.3129
   33CHL1   C26 2435   1.912  -0.557   8.121 -0.9402  0.3598 -0.3931
   33CHL1  H26A 2436   1.891  -0.655   8.169 -0.7638  0.0152 -1.0138
   33CHL1  H26B 2437   1.932  -0.570   8.012 -0.6527 -1.5556 -0.1499
   33CHL1  H26C 2438   2.006  -0.521   8.169 -0.6958  0.4562 -0.9371
   33CHL1   C27 2439   1.786  -0.453   8.308 -0.1807  0.1428  0.8759
   33CHL1  H27A 2440   1.864  -0.394   8.360 -0.1969 -0.5099  1.6715
   33CHL1  H27B 2441   1.684  -0.415   8.332 -0.8432 -0.9945  0.0035
   33CHL1  H27C 2442   1.791  -0.558   8.346  1.9221 -0.0894  0.0948
   34CHL1    C3 2443   2.448   5.681   7.071 -0.2855  0.6220 -0.5904
   34CHL1    H3 2444   2.342   5.677   7.103  0.3832  0.5929  1.7863
   34CHL1    O3 2445   2.441   5.671   6.924  0.0118  0.1273  0.1340
   34CHL1   H3' 2446   2.432   5.759   6.887 -1.1395 -0.0278  0.0119
   34CHL1    C4 2447   2.507   5.818   7.119  0.8807  0.4301 -0.0647
   34CHL1   H4A 2448   2.604   5.831   7.066  1.7102 -2.0072  0.7001
   34CHL1   H4B 2449   2.441   5.898   7.081 -1.2262 -0.9379  0.5555
   34CHL1    C5 2450   2.500   5.821   7.272 -0.6498 -0.1057 -0.3339
   34CHL1    C6 2451   2.436   5.913   7.340  0.9921 -0.6693 -0.2470
   34CHL1    H6 2452   2.385   5.994   7.286  3.3946 -0.4955 -2.4716
   34CHL1    C7 2453   2.421   5.919   7.487 -0.6063  0.1172 -1.0642
   34CHL1   H7A 2454   2.437   6.021   7.528 -0.8871  0.3227 -1.4585
   34CHL1   H7B 2455   2.319   5.886   7.517 -0.6054 -1.0304 -2.2591
   34CHL1    C8 2456   2.525   5.828   7.562  0.2124 -0.5851 -0.1004
   34CHL1    H8 2457   2.626   5.873   7.560 -0.4685  1.1043  1.0362
   34CHL1   C14 2458   2.490   5.822   7.710  0.2179 -0.7925 -0.1371
   34CHL1   H14 2459   2.384   5.790   7.705 -0.1056  0.4435 -2.6565
   34CHL1   C15 2460   2.506   5.945   7.794 -0.0929  0.2174 -0.2821
   34CHL1  H15A 2461   2.597   6.001   7.766 -0.3264  0.4534 -0.5717
   34CHL1  H15B 2462   2.419   6.012   7.781 -0.3077 -0.1236 -0.6198
   34CHL1   C16 2463   2.518   5.899   7.939  0.0129 -1.1747 -1.2496
   34CHL1  H16A 2464   2.603   5.947   7.990 -0.5709 -0.7176 -0.6836
   34CHL1  H16B 2465   2.427   5.944   7.984 -0.7544 -0.4253 -3.4046
   34CHL1   C17 2466   2.525   5.743   7.932  0.1580  0.1277 -0.1978
   34CHL1   H17 2467   2.425   5.696   7.926  0.3055 -0.2800  0.4319
   34CHL1   C13 2468   2.571   5.724   7.788 -0.2315 -0.0665  0.0046
   34CHL1   C18 2469   2.715   5.764   7.776  0.0005  0.1072 -1.2030
   34CHL1  H18A 2470   2.781   5.686   7.821 -2.6266 -0.9795  1.0682
   34CHL1  H18B 2471   2.760   5.778   7.675 -0.9995 -0.9441 -1.8214
   34CHL1  H18C 2472   2.729   5.860   7.830 -2.3263  0.8681 -1.8300
   34CHL1   C12 2473   2.551   5.586   7.729  0.2512  0.5309 -0.0832
   34CHL1  H12A 2474   2.601   5.508   7.791 -2.7674 -0.2700  1.5485
   34CHL1  H12B 2475   2.443   5.560   7.731 -0.2438  2.3992 -0.9168
   34CHL1   C11 2476   2.584   5.581   7.585 -0.0176 -0.2570 -0.0295
   34CHL1  H11A 2477   2.695   5.583   7.579  0.0956  1.0323  1.8575
   34CHL1  H11B 2478   2.550   5.481   7.550 -0.7202 -0.7453  1.9654
   34CHL1    C9 2479   2.519   5.694   7.493 -0.2205 -0.1453 -0.5298
   34CHL1    H9 2480   2.411   5.672   7.492 -0.4128  0.7375 -1.8855
   34CHL1   C10 2481   2.561   5.698   7.346  0.2169  0.1152 -0.1314
   34CHL1   C19 2482   2.716   5.723   7.344  0.1656  0.1553  0.2724
   34CHL1  H19A 2483   2.754   5.821   7.379  1.8899  0.2491 -1.6870
   34CHL1  H19B 2484   2.775   5.655   7.410  2.0144  1.9481  0.5884
   34CHL1  H19C 2485   2.746   5.702   7.240  0.3181 -1.2781  0.5812
   34CHL1    C1 2486   2.519   5.565   7.277 -0.1630 -0.4870  0.2611
   34CHL1   H1A 2487   2.589   5.486   7.311  2.2817  0.0272 -3.0890
   34CHL1   H1B 2488   2.416   5.541   7.313 -0.1638 -0.7276  0.1072
   34CHL1    C2 2489   2.526   5.566   7.125  0.0095 -0.6608 -0.6289
   34CHL1   H2A 2490   2.484   5.471   7.086  1.7403 -0.9849 -1.8210
   34CHL1   H2B 2491   2.624   5.570   7.074  0.3781  1.9347  0.1642
   34CHL1   C20 2492   2.601   5.675   8.049 -0.6429 -0.0823  0.4195
   34CHL1   H20 2493   2.655   5.590   8.002 -0.1454  0.2957  0.3042
   34CHL1   C21 2494   2.490   5.609   8.138 -0.2221  0.0515 -0.0467
   34CHL1  H21A 2495   2.415   5.681   8.177 -0.9536 -1.1469  0.8343
   34CHL1  H21B 2496   2.548   5.561   8.220  0.1260 -0.0767 -0.3628
   34CHL1  H21C 2497   2.440   5.534   8.073 -0.4924 -0.3232  0.5862
   34CHL1   C22 2498   2.695   5.763   8.138  0.0731  0.2356 -0.1523
   34CHL1  H22A 2499   2.761   5.821   8.070 -1.1397 -0.6178 -2.1417
   34CHL1  H22B 2500   2.637   5.843   8.190 -0.4861 -0.6376  0.6154
   34CHL1   C23 2501   2.791   5.692   8.236  0.5597  0.6991 -0.1742
   34CHL1  H23A 2502   2.741   5.613   8.296  0.0401 -1.3305 -3.0530
   34CHL1  H23B 2503   2.864   5.647   8.166 -0.8416 -1.9323 -0.0962
   34CHL1   C24 2504   2.872   5.788   8.330  0.1144  0.2239  0.8495
   34CHL1  H24A 2505   2.920   5.856   8.257  0.0673 -0.1340  0.4812
   34CHL1  H24B 2506   2.801   5.843   8.395 -1.8332  0.5199 -1.4079
   34CHL1   C25 2507   2.980   5.722   8.409  0.0714 -0.2123 -0.2056
   34CHL1   H25 2508   3.049   5.666   8.342 -0.2201 -1.1935  0.2973
   34CHL1   C26 2509   3.074   5.824   8.483  0.2798 -0.1512 -0.0474
   34CHL1  H26A 2510   3.029   5.862   8.577  2.0044  2.9255 -0.3265
   34CHL1  H26B 2511   3.164   5.765   8.514  2.4206  1.1517 -3.2408
   34CHL1  H26C 2512   3.106   5.908   8.418 -0.8787  0.6424  0.4001
   34CHL1   C27 2513   2.920   5.618   8.504 -0.3925  0.6775 -0.0058
   34CHL1  H27A 2514   3.003   5.592   8.573  0.7822 -0.1707 -1.6641
   34CHL1  H27B 2515   2.843   5.671   8.565  0.3036  0.5192  1.0446
   34CHL1  H27C 2516   2.890   5.525   8.451 -0.0101 -0.9582  2.4722
   35CHL1    C3 2517   4.835   1.348   7.281 -0.3988  0.4439 -0.4852
   35CHL1    H3 2518   4.748   1.289   7.245 -0.5274 -0.5701  1.3542
   35CHL1    O3 2519   4.879   1.416   7.162  0.4216  0.2602 -0.1755
   35CHL1   H3' 2520   4.906   1.345   7.104  0.0992  0.6186 -0.7671
   35CHL1    C4 2521   4.788   1.451   7.384 -0.5731 -0.3378  0.6153
   35CHL1   H4A 2522   4.863   1.530   7.406 -1.9937  0.3978  3.1815
   35CHL1   H4B 2523   4.701   1.505   7.340 -2.8141 -2.6066  2.0325
   35CHL1    C5 2524   4.765   1.396   7.517  0.2279 -0.7180 -0.6821
   35CHL1    C6 2525   4.647   1.421   7.581 -0.2943  0.1458 -0.1637
   35CHL1    H6 2526   4.576   1.486   7.527 -1.7154 -0.9783  0.2884
   35CHL1    C7 2527   4.613   1.378   7.720  0.0314  0.5037 -0.9681
   35CHL1   H7A 2528   4.579   1.467   7.777  1.0977 -0.7112  1.7377
   35CHL1   H7B 2529   4.530   1.304   7.718  2.0693 -1.9504 -0.1468
   35CHL1    C8 2530   4.736   1.323   7.794  0.0105  0.0497  0.2366
   35CHL1    H8 2531   4.805   1.407   7.815  0.7459 -0.9949  2.3388
   35CHL1   C14 2532   4.705   1.255   7.920  0.1973 -0.3520 -0.3026
   35CHL1   H14 2533   4.649   1.165   7.886 -0.0333 -0.3824  0.1452
   35CHL1   C15 2534   4.622   1.329   8.012 -0.0272  0.0301 -1.2140
   35CHL1  H15A 2535   4.648   1.436   8.005  0.8468 -0.2281 -2.1031
   35CHL1  H15B 2536   4.516   1.337   7.979 -1.4563  0.8595  2.9721
   35CHL1   C16 2537   4.643   1.264   8.153  0.1094  0.7880 -0.7331
   35CHL1  H16A 2538   4.685   1.343   8.218  1.5751 -0.2718 -0.3242
   35CHL1  H16B 2539   4.549   1.233   8.204  1.1420  1.0597  1.4372
   35CHL1   C17 2540   4.759   1.155   8.132  0.0631  0.1519 -0.1797
   35CHL1   H17 2541   4.708   1.060   8.108  0.5785 -0.0986 -0.3092
   35CHL1   C13 2542   4.823   1.204   7.999 -0.5996 -0.2830 -0.8788
   35CHL1   C18 2543   4.944   1.311   8.026  0.1818  0.1852 -0.3161
   35CHL1  H18A 2544   4.966   1.366   7.933 -0.6449  0.0867 -0.5822
   35CHL1  H18B 2545   4.905   1.388   8.096  0.8646 -1.3561  1.8742
   35CHL1  H18C 2546   5.040   1.264   8.057 -0.7226 -1.3253  0.3567
   35CHL1   C12 2547   4.874   1.083   7.914  0.0086 -1.1561 -0.4950
   35CHL1  H12A 2548   4.952   1.030   7.973  1.1823 -0.2301 -1.1780
   35CHL1  H12B 2549   4.791   1.011   7.905 -2.3742  1.3054  0.3691
   35CHL1   C11 2550   4.924   1.143   7.780  0.0509 -0.1519 -0.1086
   35CHL1  H11A 2551   5.021   1.194   7.797  0.1418 -1.0982  2.7964
   35CHL1  H11B 2552   4.940   1.058   7.709 -1.8012  0.2333 -1.0574
   35CHL1    C9 2553   4.811   1.224   7.702 -0.1546 -0.2952  0.8635
   35CHL1    H9 2554   4.734   1.154   7.663 -0.3116  0.1784  0.3140
   35CHL1   C10 2555   4.863   1.286   7.569 -0.1250 -0.4953 -0.1050
   35CHL1   C19 2556   4.989   1.369   7.603 -0.2641  0.2539  0.4914
   35CHL1  H19A 2557   5.003   1.446   7.524  0.2321  0.8583  1.1450
   35CHL1  H19B 2558   4.992   1.431   7.696 -0.4965  0.3488  0.4362
   35CHL1  H19C 2559   5.077   1.302   7.602 -0.1564  0.3387 -2.1635
   35CHL1    C1 2560   4.902   1.179   7.461 -0.1361 -0.0960  0.0650
   35CHL1   H1A 2561   4.990   1.117   7.488 -0.1151 -0.3473 -0.5627
   35CHL1   H1B 2562   4.820   1.109   7.435  0.5324 -0.6137 -0.7218
   35CHL1    C2 2563   4.943   1.254   7.332 -0.1856 -0.3192 -0.5198
   35CHL1   H2A 2564   4.968   1.183   7.251 -1.7448 -0.2033 -1.1245
   35CHL1   H2B 2565   5.037   1.310   7.352  1.3604 -3.4588  1.9285
   35CHL1   C20 2566   4.844   1.149   8.262  0.0499 -0.5060 -0.1277
   35CHL1   H20 2567   4.890   1.250   8.266 -0.6643 -0.2134  1.5423
   35CHL1   C21 2568   4.960   1.043   8.241  0.3230  0.1216 -0.3330
   35CHL1  H21A 2569   4.910   0.945   8.228 -1.1685  0.9544 -1.0982
   35CHL1  H21B 2570   5.029   1.043   8.328  2.0907  1.7908 -1.6359
   35CHL1  H21C 2571   5.014   1.069   8.147  1.1992 -0.6731 -0.0724
   35CHL1   C22 2572   4.766   1.113   8.392  0.1188 -0.4905  0.3417
   35CHL1  H22A 2573   4.835   1.070   8.467  0.4027  0.4095  0.6150
   35CHL1  H22B 2574   4.723   1.207   8.434 -1.1307 -0.6983 -0.4259
   35CHL1   C23 2575   4.660   1.006   8.374  0.4143 -0.1937  0.4551
   35CHL1  H23A 2576   4.594   1.025   8.287 -0.2976 -0.9357  0.8217
   35CHL1  H23B 2577   4.710   0.909   8.352 -0.8419 -0.6913 -0.3011
   35CHL1   C24 2578   4.560   0.984   8.494  0.4687  0.0854  0.3417
   35CHL1  H24A 2579   4.596   1.027   8.590  1.1251  0.4733 -0.0704
   35CHL1  H24B 2580   4.470   1.043   8.467  0.0051 -1.3098 -1.4069
   35CHL1   C25 2581   4.529   0.838   8.503  0.4976 -0.0201 -0.0283
   35CHL1   H25 2582   4.608   0.777   8.552 -1.3589 -1.9686  0.7013
   35CHL1   C26 2583   4.415   0.816   8.606 -0.6243  0.1188 -1.0561
   35CHL1  H26A 2584   4.418   0.880   8.696 -1.2117 -0.2541 -0.7700
   35CHL1  H26B 2585   4.321   0.843   8.555 -0.7413  1.2148 -0.2866
   35CHL1  H26C 2586   4.415   0.708   8.633 -0.7680 -0.2169 -2.3193
   35CHL1   C27 2587   4.499   0.773   8.364  0.4434 -0.1004  0.2088
   35CHL1  H27A 2588   4.456   0.671   8.375 -0.4460  0.3661  1.1468
   35CHL1  H27B 2589   4.587   0.771   8.295  1.6669  0.9084  1.6611
   35CHL1  H27C 2590   4.426   0.837   8.310 -1.0810 -3.3542 -1.9523
   36CHL1    C3 2591   0.058   0.665   6.960 -0.8674  0.4606 -0.2004
   36CHL1    H3 2592  -0.051   0.653   6.977 -0.4992 -1.7933  1.0011
   36CHL1    O3 2593   0.078   0.661   6.814 -0.3186  0.5299 -0.1105
   36CHL1   H3' 2594   0.034   0.742   6.785  0.6694  0.6057 -1.4760
   36CHL1    C4 2595   0.102   0.797   7.014 -0.4263 -0.4230 -0.3266
   36CHL1   H4A 2596   0.202   0.813   6.968 -1.0648  0.5683 -1.4279
   36CHL1   H4B 2597   0.034   0.876   6.976 -0.1255  1.0906  2.0746
   36CHL1    C5 2598   0.094   0.805   7.163 -0.5869 -0.5056  0.1805
   36CHL1    C6 2599   0.037   0.906   7.226  0.0795  0.0530 -0.2232
   36CHL1    H6 2600  -0.015   0.988   7.174 -1.5289 -1.0399 -0.4271
   36CHL1    C7 2601   0.042   0.926   7.370  0.1880  0.2966 -0.7110
   36CHL1   H7A 2602   0.054   1.032   7.401 -1.5393 -0.2836  2.3062
   36CHL1   H7B 2603  -0.052   0.881   7.406  1.4110 -3.1038 -1.3710
   36CHL1    C8 2604   0.141   0.826   7.444 -0.2064  0.9000  0.5035
   36CHL1    H8 2605   0.245   0.863   7.432 -0.0539  0.6377  1.0075
   36CHL1   C14 2606   0.103   0.820   7.590  0.0138  0.1307  0.3753
   36CHL1   H14 2607  -0.002   0.787   7.599  0.1574  0.1918  3.1875
   36CHL1   C15 2608   0.084   0.953   7.663 -0.2829 -0.2501 -0.3358
   36CHL1  H15A 2609   0.154   1.027   7.619 -0.9059  0.3383 -0.3577
   36CHL1  H15B 2610  -0.015   1.000   7.644 -0.6310 -1.2969 -1.2507
   36CHL1   C16 2611   0.101   0.920   7.812 -0.3580  0.1290  0.1994
   36CHL1  H16A 2612   0.193   0.968   7.853  0.5507 -0.6051 -0.8902
   36CHL1  H16B 2613   0.027   0.957   7.885  1.4630  0.4195  1.9873
   36CHL1   C17 2614   0.117   0.758   7.814 -0.1509 -0.7908 -0.3979
   36CHL1   H17 2615   0.020   0.705   7.811 -0.4487 -0.2026 -1.9907
   36CHL1   C13 2616   0.182   0.730   7.677  0.5018 -0.3270 -0.0764
   36CHL1   C18 2617   0.326   0.775   7.691 -0.1844 -0.3120  0.4867
   36CHL1  H18A 2618   0.348   0.874   7.737 -0.3259  0.3031 -0.7152
   36CHL1  H18B 2619   0.383   0.711   7.761 -0.5274 -0.4213  0.6673
   36CHL1  H18C 2620   0.378   0.772   7.592 -0.3843  2.8960  0.1591
   36CHL1   C12 2621   0.178   0.584   7.624 -0.2186  0.0966  0.8180
   36CHL1  H12A 2622   0.244   0.516   7.682  2.0140 -1.2698 -2.9132
   36CHL1  H12B 2623   0.081   0.533   7.638 -0.1363  0.2534  2.0027
   36CHL1   C11 2624   0.211   0.585   7.473  0.5185  0.0110  0.5653
   36CHL1  H11A 2625   0.318   0.618   7.469  0.8130 -0.8258  1.3057
   36CHL1  H11B 2626   0.194   0.483   7.433  2.4841 -0.3751  0.6094
   36CHL1    C9 2627   0.126   0.692   7.392 -0.1502 -0.0743  0.0548
   36CHL1    H9 2628   0.020   0.661   7.404  0.3117 -2.4337 -1.4323
   36CHL1   C10 2629   0.162   0.692   7.243  0.8258  0.1564 -0.9725
   36CHL1   C19 2630   0.310   0.708   7.218 -0.7079  0.2380  0.1071
   36CHL1  H19A 2631   0.360   0.805   7.240 -0.3643  0.8770 -3.0480
   36CHL1  H19B 2632   0.372   0.635   7.275 -1.4484 -0.9749 -0.5959
   36CHL1  H19C 2633   0.332   0.685   7.111  3.2350 -1.5867  1.0937
   36CHL1    C1 2634   0.112   0.560   7.181 -0.4562  0.1128 -0.3552
   36CHL1   H1A 2635   0.168   0.480   7.234  1.1074  1.0599 -0.5140
   36CHL1   H1B 2636   0.005   0.556   7.208 -0.3856  0.3414 -0.0241
   36CHL1    C2 2637   0.131   0.547   7.027  0.4768  0.4234 -0.0802
   36CHL1   H2A 2638   0.097   0.450   6.985  1.9113 -0.0371 -0.2331
   36CHL1   H2B 2639   0.239   0.542   7.002  0.0191  0.9536 -2.4551
   36CHL1   C20 2640   0.180   0.708   7.944  0.1054  0.4592  0.7342
   36CHL1   H20 2641   0.290   0.717   7.936  0.0170  1.9737  0.9159
   36CHL1   C21 2642   0.138   0.553   7.963 -0.2097  0.1157  0.1678
   36CHL1  H21A 2643   0.214   0.503   8.026  0.0753 -0.9314 -0.9629
   36CHL1  H21B 2644   0.148   0.495   7.869  1.4872  0.3995  0.1387
   36CHL1  H21C 2645   0.036   0.553   8.008  0.2857  0.6648  1.3354
   36CHL1   C22 2646   0.139   0.798   8.062  0.0749  0.4031 -0.2933
   36CHL1  H22A 2647   0.156   0.907   8.050 -3.2461  0.8884 -1.8297
   36CHL1  H22B 2648   0.033   0.774   8.086  0.6524  0.0015  2.0768
   36CHL1   C23 2649   0.210   0.754   8.192 -0.4608 -0.1218  0.6059
   36CHL1  H23A 2650   0.168   0.654   8.213  0.0323 -0.2579  0.9573
   36CHL1  H23B 2651   0.319   0.742   8.172 -0.7113 -0.7385 -0.4304
   36CHL1   C24 2652   0.199   0.833   8.317 -0.0362  0.2426  0.1056
   36CHL1  H24A 2653   0.095   0.844   8.356  0.2835 -1.4245  1.5296
   36CHL1  H24B 2654   0.256   0.785   8.399  0.5130  1.8002  0.6877
   36CHL1   C25 2655   0.270   0.969   8.319 -0.0244 -0.2243  0.2568
   36CHL1   H25 2656   0.219   1.034   8.245  0.4162  0.3725  0.4735
   36CHL1   C26 2657   0.267   1.035   8.462  0.2347 -0.2764  0.4732
   36CHL1  H26A 2658   0.317   0.979   8.544  1.1651  0.7199  0.5989
   36CHL1  H26B 2659   0.310   1.137   8.456 -1.2761  0.3314 -3.0228
   36CHL1  H26C 2660   0.159   1.048   8.483 -0.7043 -1.1328 -3.0554
   36CHL1   C27 2661   0.416   0.963   8.269 -0.8487  0.3258  0.0394
   36CHL1  H27A 2662   0.481   0.893   8.326  0.3485  2.7910  1.9268
   36CHL1  H27B 2663   0.421   0.931   8.163 -1.3835 -0.5998  0.2873
   36CHL1  H27C 2664   0.455   1.064   8.295 -2.7722 -0.0383  6.0638
   37CHL1    C3 2665   1.190   1.105   6.800 -0.7754 -0.3747  0.5512
   37CHL1    H3 2666   1.098   1.042   6.804  0.2193 -2.0786 -1.6185
   37CHL1    O3 2667   1.201   1.134   6.667 -0.0948 -0.6121  0.1594
   37CHL1   H3' 2668   1.150   1.214   6.652 -0.6026 -0.9662 -0.0508
   37CHL1    C4 2669   1.180   1.231   6.886  0.4009 -0.3732 -0.0822
   37CHL1   H4A 2670   1.266   1.294   6.854  1.3945 -1.9715 -0.6788
   37CHL1   H4B 2671   1.089   1.288   6.859  1.8034  1.8007 -0.5015
   37CHL1    C5 2672   1.184   1.214   7.041 -0.3180 -0.2713 -0.7197
   37CHL1    C6 2673   1.083   1.265   7.123 -0.1887 -0.1265 -0.2930
   37CHL1    H6 2674   1.002   1.322   7.075 -1.0950 -2.0557 -1.1386
   37CHL1    C7 2675   1.066   1.235   7.263 -0.1531  0.2401  0.3556
   37CHL1   H7A 2676   1.041   1.330   7.314 -0.4428  1.0481 -1.2085
   37CHL1   H7B 2677   0.978   1.167   7.272 -0.3739  0.4234 -0.2938
   37CHL1    C8 2678   1.194   1.174   7.329  0.5241  0.0338 -0.0580
   37CHL1    H8 2679   1.256   1.266   7.338 -1.9891  1.7254  1.4908
   37CHL1   C14 2680   1.162   1.104   7.461  0.1342  0.8292 -0.1531
   37CHL1   H14 2681   1.113   1.009   7.434  0.2978  0.0108  2.1720
   37CHL1   C15 2682   1.074   1.182   7.558  0.1641  0.0321  0.4370
   37CHL1  H15A 2683   1.124   1.281   7.568 -1.0960  0.6499  0.7988
   37CHL1  H15B 2684   0.971   1.212   7.531  0.6579  0.9294 -0.4864
   37CHL1   C16 2685   1.090   1.115   7.693  0.4399  1.0540  0.5545
   37CHL1  H16A 2686   1.113   1.187   7.774  0.8448  1.3834  0.1542
   37CHL1  H16B 2687   1.002   1.052   7.715  0.6156  1.0523  1.2653
   37CHL1   C17 2688   1.217   1.022   7.674  0.4940  0.3170  0.1801
   37CHL1   H17 2689   1.177   0.919   7.664 -1.6157  0.8992  2.0564
   37CHL1   C13 2690   1.283   1.062   7.540  0.5039 -0.3551 -0.4838
   37CHL1   C18 2691   1.380   1.176   7.564 -0.7569  0.3640  0.5918
   37CHL1  H18A 2692   1.329   1.250   7.628  0.7104 -0.4924  2.8892
   37CHL1  H18B 2693   1.478   1.143   7.605 -1.1859 -0.1291  1.2231
   37CHL1  H18C 2694   1.404   1.227   7.468  1.7674 -0.7011  0.5726
   37CHL1   C12 2695   1.348   0.952   7.448 -0.0050  0.2240  0.3131
   37CHL1  H12A 2696   1.436   0.908   7.501  0.5245  1.1429  0.2204
   37CHL1  H12B 2697   1.280   0.865   7.439  3.7510 -2.8071 -1.2491
   37CHL1   C11 2698   1.380   1.009   7.309 -0.6771  0.4303  0.2588
   37CHL1  H11A 2699   1.459   1.086   7.314 -0.2876  0.1589 -1.1729
   37CHL1  H11B 2700   1.418   0.921   7.253 -0.0639  0.5135  0.5370
   37CHL1    C9 2701   1.259   1.063   7.241  0.1600 -0.1260  0.4627
   37CHL1    H9 2702   1.183   0.982   7.234  2.0204 -1.8244 -2.0256
   37CHL1   C10 2703   1.289   1.114   7.096  0.7719 -0.2969  0.1548
   37CHL1   C19 2704   1.421   1.181   7.091 -0.3594 -0.1458 -0.3198
   37CHL1  H19A 2705   1.505   1.109   7.092  0.4298  0.7379 -0.9145
   37CHL1  H19B 2706   1.433   1.246   7.001 -0.1375 -1.4393 -1.2506
   37CHL1  H19C 2707   1.420   1.239   7.186 -0.6520  0.3148 -0.5963
   37CHL1    C1 2708   1.291   0.992   6.999 -0.5016 -1.4642 -0.2686
   37CHL1   H1A 2709   1.368   0.916   7.025 -1.2375 -1.6265  1.5935
   37CHL1   H1B 2710   1.204   0.923   7.005 -1.1746 -0.7036 -1.0502
   37CHL1    C2 2711   1.304   1.025   6.848 -0.1186  0.1200  0.7032
   37CHL1   H2A 2712   1.299   0.938   6.779 -1.6294  0.0512  0.8730
   37CHL1   H2B 2713   1.402   1.078   6.847  0.4697 -0.9078  1.3500
   37CHL1   C20 2714   1.304   0.996   7.798 -0.1037  0.3849  1.0715
   37CHL1   H20 2715   1.349   1.095   7.824  2.6906  0.0323 -1.9201
   37CHL1   C21 2716   1.413   0.892   7.767 -0.4913  0.6289 -0.3750
   37CHL1  H21A 2717   1.484   0.932   7.691  0.6269  0.8306  0.7436
   37CHL1  H21B 2718   1.365   0.798   7.732 -0.2028 -0.5468  2.1673
   37CHL1  H21C 2719   1.469   0.873   7.861  1.0722  3.4119 -0.6293
   37CHL1   C22 2720   1.224   0.954   7.925 -0.3812  0.1807 -0.4782
   37CHL1  H22A 2721   1.120   0.994   7.924 -0.3967  0.1262 -0.8534
   37CHL1  H22B 2722   1.216   0.844   7.931 -0.7270  0.1330 -1.7108
   37CHL1   C23 2723   1.296   0.996   8.053  0.9050 -0.5728  0.7819
   37CHL1  H23A 2724   1.246   0.957   8.144 -2.8333  0.8620 -0.4908
   37CHL1  H23B 2725   1.404   0.969   8.047  1.4836  1.6992 -0.1702
   37CHL1   C24 2726   1.283   1.148   8.090 -0.2960  0.2207  0.6979
   37CHL1  H24A 2727   1.370   1.197   8.042  0.7077 -1.3128  0.8614
   37CHL1  H24B 2728   1.186   1.188   8.053 -1.7472 -3.4443  0.0759
   37CHL1   C25 2729   1.282   1.182   8.241 -0.1221  1.0457  0.3560
   37CHL1   H25 2730   1.296   1.292   8.239 -0.5138  1.0932 -1.1701
   37CHL1   C26 2731   1.156   1.128   8.315 -0.8276 -0.2236 -0.2964
   37CHL1  H26A 2732   1.159   1.017   8.315 -2.2845 -0.3236 -2.2858
   37CHL1  H26B 2733   1.157   1.175   8.416  1.6157  0.6937 -0.6883
   37CHL1  H26C 2734   1.057   1.144   8.267  0.0988  0.7912 -1.9808
   37CHL1   C27 2735   1.399   1.134   8.320 -0.4776 -0.2645  0.3055
   37CHL1  H27A 2736   1.491   1.154   8.261 -0.8489  0.7122  0.0435
   37CHL1  H27B 2737   1.408   1.179   8.421 -1.6745  1.3120 -0.2591
   37CHL1  H27C 2738   1.391   1.026   8.344  1.5792  0.3266  4.6481
   38CHL1    C3 2739   1.324   3.088   6.964  1.1964 -0.1780 -0.0907
   38CHL1    H3 2740   1.215   3.110   6.969  0.8104 -1.2793 -2.2970
   38CHL1    O3 2741   1.369   3.109   6.831 -0.2577  0.2379 -0.3127
   38CHL1   H3' 2742   1.370   3.204   6.819 -1.2335  0.2748 -0.2513
   38CHL1    C4 2743   1.401   3.181   7.070  0.0348 -0.5120  0.1260
   38CHL1   H4A 2744   1.511   3.174   7.056  0.1083  0.4300  0.2249
   38CHL1   H4B 2745   1.369   3.282   7.038 -0.1483 -0.6926 -0.2636
   38CHL1    C5 2746   1.362   3.145   7.211  0.5565  0.2654  0.4085
   38CHL1    C6 2747   1.314   3.240   7.287  0.5469  0.0688 -0.5704
   38CHL1    H6 2748   1.299   3.342   7.249  1.3006  0.8722  1.1833
   38CHL1    C7 2749   1.293   3.225   7.435  0.0121 -0.3457  0.3215
   38CHL1   H7A 2750   1.332   3.313   7.492  0.8701 -0.5078  0.0037
   38CHL1   H7B 2751   1.184   3.218   7.455  0.4629 -2.1849  2.5370
   38CHL1    C8 2752   1.344   3.087   7.486 -0.2211  0.6668  0.2458
   38CHL1    H8 2753   1.455   3.089   7.492  0.0876  0.7259 -3.3273
   38CHL1   C14 2754   1.285   3.051   7.621 -0.0971  0.0825  1.0906
   38CHL1   H14 2755   1.175   3.049   7.604  0.0135 -0.7831  0.4278
   38CHL1   C15 2756   1.308   3.150   7.733 -0.0769 -0.1846 -0.1741
   38CHL1  H15A 2757   1.417   3.162   7.718  0.2732 -2.4797  0.0876
   38CHL1  H15B 2758   1.264   3.250   7.713  3.1513  1.3179 -0.3475
   38CHL1   C16 2759   1.259   3.076   7.853 -0.3866 -0.5592 -0.4140
   38CHL1  H16A 2760   1.333   3.111   7.928 -1.4401  0.8550 -0.0031
   38CHL1  H16B 2761   1.158   3.104   7.890  0.5959  1.7477  0.7444
   38CHL1   C17 2762   1.258   2.926   7.822  0.3433  0.2283 -0.2538
   38CHL1   H17 2763   1.151   2.904   7.804  0.7278  0.2803 -2.9642
   38CHL1   C13 2764   1.340   2.920   7.685 -0.2839 -0.2580  0.3091
   38CHL1   C18 2765   1.489   2.928   7.711 -0.3466 -0.6064  1.2051
   38CHL1  H18A 2766   1.535   2.837   7.756 -0.8587 -2.2708 -1.4389
   38CHL1  H18B 2767   1.542   2.944   7.615  2.4807 -3.3032  2.1461
   38CHL1  H18C 2768   1.520   3.014   7.775  0.7670 -0.7413  0.8712
   38CHL1   C12 2769   1.303   2.812   7.596 -0.4781  0.8940  0.2404
   38CHL1  H12A 2770   1.324   2.706   7.621 -2.0380  0.2595 -0.9129
   38CHL1  H12B 2771   1.192   2.803   7.603 -0.3905  0.3658  1.0557
   38CHL1   C11 2772   1.344   2.836   7.447  0.1889 -0.2936 -0.6309
   38CHL1  H11A 2773   1.454   2.828   7.454  0.1311 -0.8598 -0.3127
   38CHL1  H11B 2774   1.292   2.756   7.390 -1.6509 -0.0916  0.6568
   38CHL1    C9 2775   1.309   2.971   7.387  0.0319  0.1989 -0.2359
   38CHL1    H9 2776   1.199   2.967   7.371 -0.6586 -1.2749  3.8232
   38CHL1   C10 2777   1.371   2.996   7.246 -0.1289 -0.3942 -0.0950
   38CHL1   C19 2778   1.521   2.960   7.241  0.3179  0.3970 -0.5420
   38CHL1  H19A 2779   1.583   3.022   7.308  1.0557  0.2897 -1.1144
   38CHL1  H19B 2780   1.537   2.855   7.273  0.1380  1.3417  3.0066
   38CHL1  H19C 2781   1.569   2.957   7.141 -0.9508 -1.4997 -1.1507
   38CHL1    C1 2782   1.300   2.905   7.141  0.4155 -0.0752 -0.3295
   38CHL1   H1A 2783   1.302   2.796   7.162 -2.8703 -0.6737 -2.3268
   38CHL1   H1B 2784   1.191   2.925   7.152  0.7647  1.0153  1.5031
   38CHL1    C2 2785   1.335   2.939   6.996  0.2866  0.6813 -0.1193
   38CHL1   H2A 2786   1.254   2.891   6.937 -1.1789  2.8505  0.0108
   38CHL1   H2B 2787   1.441   2.908   6.983  0.4614  0.3262  1.8397
   38CHL1   C20 2788   1.311   2.845   7.945  0.2955  0.2303 -0.0463
   38CHL1   H20 2789   1.415   2.878   7.967  1.3415 -4.0465  2.5359
   38CHL1   C21 2790   1.298   2.696   7.908 -0.3349  0.8857 -0.4507
   38CHL1  H21A 2791   1.192   2.678   7.881 -0.5837  1.3147  0.2098
   38CHL1  H21B 2792   1.339   2.627   7.985  1.9728  1.9303 -0.6547
   38CHL1  H21C 2793   1.370   2.686   7.824  1.1457  0.6839  0.7893
   38CHL1   C22 2794   1.216   2.879   8.065  0.9273  0.0143 -0.3126
   38CHL1  H22A 2795   1.232   2.986   8.090 -0.3573  0.1810 -0.1534
   38CHL1  H22B 2796   1.110   2.869   8.033  0.8980  0.9340 -0.5342
   38CHL1   C23 2797   1.251   2.803   8.196  0.3854 -0.5301  0.6619
   38CHL1  H23A 2798   1.182   2.828   8.279 -2.2686 -1.3408 -1.1889
   38CHL1  H23B 2799   1.242   2.696   8.169  0.9795 -0.2663 -0.6769
   38CHL1   C24 2800   1.402   2.830   8.238 -0.2595 -0.2584  0.0565
   38CHL1  H24A 2801   1.470   2.795   8.158 -3.4125 -1.9609 -2.1059
   38CHL1  H24B 2802   1.428   2.937   8.228 -0.6561 -0.0523  1.1294
   38CHL1   C25 2803   1.436   2.774   8.376  0.4251 -0.1605 -0.2376
   38CHL1   H25 2804   1.544   2.794   8.391 -0.2302  2.4808  1.5275
   38CHL1   C26 2805   1.364   2.881   8.476  0.2604  0.7557  0.4241
   38CHL1  H26A 2806   1.373   2.982   8.432  0.0158 -0.2964 -2.2244
   38CHL1  H26B 2807   1.257   2.870   8.501 -0.1176 -0.1694 -1.4305
   38CHL1  H26C 2808   1.416   2.878   8.574 -0.8433 -1.3820  0.9939
   38CHL1   C27 2809   1.382   2.634   8.404  0.0949  0.6033 -0.3159
   38CHL1  H27A 2810   1.424   2.557   8.336  0.6095 -0.0676  0.7470
   38CHL1  H27B 2811   1.420   2.595   8.501  2.4809  1.6614 -0.7430
   38CHL1  H27C 2812   1.271   2.638   8.404  0.0521  1.8615 -2.9732
   39CHL1    C3 2813   0.828   3.028   7.076 -0.3739  0.8916 -0.3901
   39CHL1    H3 2814   0.902   2.948   7.055 -0.2714  1.0050 -0.4651
   39CHL1    O3 2815   0.820   3.102   6.956  0.3927 -0.1604  0.2528
   39CHL1   H3' 2816   0.779   3.183   6.987 -1.5868 -1.3026  0.8674
   39CHL1    C4 2817   0.699   2.967   7.112 -0.0974 -0.5720 -0.1260
   39CHL1   H4A 2818   0.613   3.036   7.099 -0.3423 -0.6113  1.1093
   39CHL1   H4B 2819   0.672   2.887   7.040  0.2365 -0.1638 -0.7091
   39CHL1    C5 2820   0.709   2.904   7.251  0.0035  0.2528 -1.3232
   39CHL1    C6 2821   0.676   2.780   7.283  0.4433  0.3977  0.8690
   39CHL1    H6 2822   0.650   2.719   7.196 -1.9013  0.6673  1.2994
   39CHL1    C7 2823   0.661   2.727   7.420  0.3640  0.4422  0.7738
   39CHL1   H7A 2824   0.575   2.656   7.423  0.7461 -0.1568 -0.9195
   39CHL1   H7B 2825   0.747   2.661   7.445 -0.5875  0.0409  3.1798
   39CHL1    C8 2826   0.651   2.829   7.530  0.6216 -0.9212 -0.6611
   39CHL1    H8 2827   0.547   2.869   7.527 -0.0165 -2.2698  1.4040
   39CHL1   C14 2828   0.676   2.764   7.669 -0.1848 -0.5604 -0.1611
   39CHL1   H14 2829   0.775   2.716   7.652 -0.0585  0.0697 -1.2811
   39CHL1   C15 2830   0.597   2.638   7.719  0.3065  0.0342 -0.3043
   39CHL1  H15A 2831   0.489   2.644   7.694  0.1966  2.5571  0.4613
   39CHL1  H15B 2832   0.628   2.537   7.686 -0.7578 -0.2859 -0.3819
   39CHL1   C16 2833   0.615   2.634   7.869  0.0968  0.4534 -0.7084
   39CHL1  H16A 2834   0.514   2.651   7.912  0.9573 -0.6335  1.9416
   39CHL1  H16B 2835   0.658   2.538   7.906 -0.9911 -0.2395 -1.2014
   39CHL1   C17 2836   0.709   2.754   7.893 -0.2975  0.2474 -0.5081
   39CHL1   H17 2837   0.811   2.717   7.867 -1.0285 -1.6992 -0.7993
   39CHL1   C13 2838   0.684   2.859   7.783 -0.3967  0.0115 -0.2395
   39CHL1   C18 2839   0.548   2.925   7.812  0.7276 -0.4627 -0.2959
   39CHL1  H18A 2840   0.469   2.852   7.838 -0.2189  1.3501  2.2638
   39CHL1  H18B 2841   0.557   2.993   7.899 -0.1166 -1.1854  0.3727
   39CHL1  H18C 2842   0.508   2.980   7.723  1.5584  0.2310 -0.2531
   39CHL1   C12 2843   0.798   2.956   7.756 -0.2866 -0.0381 -0.2625
   39CHL1  H12A 2844   0.807   3.032   7.836 -0.1439  1.6399 -1.8011
   39CHL1  H12B 2845   0.897   2.906   7.757  1.2649  2.6288 -2.5141
   39CHL1   C11 2846   0.768   3.038   7.629 -0.0426  0.6028  0.5125
   39CHL1  H11A 2847   0.677   3.096   7.655 -0.6536  0.0975 -0.4514
   39CHL1  H11B 2848   0.850   3.112   7.616  1.7267 -1.0845  1.6364
   39CHL1    C9 2849   0.750   2.943   7.502 -0.3966 -0.3410 -0.3166
   39CHL1    H9 2850   0.847   2.889   7.506 -0.1326  0.1198 -0.4602
   39CHL1   C10 2851   0.735   3.008   7.364 -0.3892 -0.5270  0.1268
   39CHL1   C19 2852   0.622   3.112   7.385  0.8947 -0.6163  0.3407
   39CHL1  H19A 2853   0.614   3.167   7.289  2.1816 -1.0769 -0.0558
   39CHL1  H19B 2854   0.530   3.058   7.417  2.2838 -1.4753  3.3229
   39CHL1  H19C 2855   0.659   3.189   7.457 -0.7001  1.5364 -1.0177
   39CHL1    C1 2856   0.870   3.066   7.326 -0.3923 -0.2429 -0.4487
   39CHL1   H1A 2857   0.891   3.150   7.396 -2.0199 -0.6313  0.5594
   39CHL1   H1B 2858   0.955   2.994   7.326 -0.1360  0.0558  0.0280
   39CHL1    C2 2859   0.869   3.131   7.185 -0.3124 -0.7426 -0.8801
   39CHL1   H2A 2860   0.954   3.198   7.158 -0.9507  0.7937  0.6936
   39CHL1   H2B 2861   0.781   3.196   7.198  0.3331 -0.1124  0.7371
   39CHL1   C20 2862   0.716   2.797   8.041 -0.8041  0.2827 -0.1555
   39CHL1   H20 2863   0.763   2.897   8.054 -0.5254 -0.0004  1.1919
   39CHL1   C21 2864   0.825   2.707   8.099 -0.5926 -0.0676  0.2766
   39CHL1  H21A 2865   0.805   2.600   8.078 -2.0985 -0.2056  2.1139
   39CHL1  H21B 2866   0.827   2.716   8.210 -1.8442  0.9535  0.2456
   39CHL1  H21C 2867   0.922   2.737   8.055 -0.8235  0.6715  0.2572
   39CHL1   C22 2868   0.588   2.788   8.120  0.6868 -0.2388 -0.5017
   39CHL1  H22A 2869   0.504   2.848   8.079 -1.2486  0.3656  3.7874
   39CHL1  H22B 2870   0.550   2.684   8.128  0.1416  0.0197  0.5613
   39CHL1   C23 2871   0.593   2.811   8.276 -0.0595 -0.1334  0.6022
   39CHL1  H23A 2872   0.491   2.799   8.318 -0.8673 -0.6422 -1.4089
   39CHL1  H23B 2873   0.661   2.749   8.339 -1.5823 -1.8127  0.6668
   39CHL1   C24 2874   0.627   2.955   8.312 -0.1941  0.3641 -0.8330
   39CHL1  H24A 2875   0.727   2.984   8.273  1.0413 -2.6023 -0.2002
   39CHL1  H24B 2876   0.552   3.025   8.269 -1.1930  0.3372  0.7883
   39CHL1   C25 2877   0.643   2.979   8.467 -0.3483 -0.1333  0.3647
   39CHL1   H25 2878   0.709   2.902   8.511 -1.6115 -0.7789  1.1960
   39CHL1   C26 2879   0.709   3.115   8.502  0.5129 -0.6113 -0.3459
   39CHL1  H26A 2880   0.651   3.203   8.469 -2.5843 -1.9580  1.1569
   39CHL1  H26B 2881   0.718   3.130   8.612 -0.6465 -0.9662 -0.1914
   39CHL1  H26C 2882   0.812   3.123   8.459  1.1819 -0.2836  1.2367
   39CHL1   C27 2883   0.514   2.962   8.550  0.0791  0.3872 -0.5466
   39CHL1  H27A 2884   0.437   3.015   8.490  0.0958 -1.7864 -2.5774
   39CHL1  H27B 2885   0.469   2.861   8.552 -1.3464  0.9962 -0.4260
   39CHL1  H27C 2886   0.517   2.996   8.656  1.3826  3.1695 -1.3756
   40CHL1    C3 2887   0.848   6.592   6.915  0.9806 -0.0105 -0.4376
   40CHL1    H3 2888   0.918   6.675   6.939 -1.9515  2.9157 -1.2839
   40CHL1    O3 2889   0.833   6.596   6.779 -0.5926  0.4853 -0.4462
   40CHL1   H3' 2890   0.777   6.522   6.757 -2.0545  0.8979  1.6554
   40CHL1    C4 2891   0.910   6.454   6.957  0.3937  0.1303 -0.4751
   40CHL1   H4A 2892   0.852   6.370   6.912  0.3132 -0.0161 -0.1029
   40CHL1   H4B 2893   1.006   6.447   6.903  0.4730  1.0611 -0.4739
   40CHL1    C5 2894   0.926   6.438   7.105  0.3787 -0.4780  0.5223
   40CHL1    C6 2895   1.044   6.427   7.166 -0.8237 -0.5562  0.2045
   40CHL1    H6 2896   1.134   6.408   7.105 -0.5150 -0.9148  0.7620
   40CHL1    C7 2897   1.066   6.420   7.313  0.1995 -0.6266 -0.1342
   40CHL1   H7A 2898   1.128   6.334   7.348  1.6280  0.7983  1.0371
   40CHL1   H7B 2899   1.122   6.506   7.356  0.7508 -1.0730  0.0539
   40CHL1    C8 2900   0.931   6.410   7.393  0.4967 -0.1604  0.2834
   40CHL1    H8 2901   0.902   6.303   7.395  0.7075 -0.2092  1.1663
   40CHL1   C14 2902   0.956   6.461   7.537 -0.0529 -0.6322 -0.8654
   40CHL1   H14 2903   0.985   6.568   7.529  0.0822 -0.6286 -0.3560
   40CHL1   C15 2904   1.068   6.402   7.625 -0.7051 -0.2253 -0.2254
   40CHL1  H15A 2905   1.055   6.292   7.639  1.2085 -0.3030  1.3313
   40CHL1  H15B 2906   1.173   6.419   7.594 -0.7861  0.0163 -0.3743
   40CHL1   C16 2907   1.036   6.466   7.759 -0.0107 -0.2299 -0.2696
   40CHL1  H16A 2908   1.050   6.385   7.834  2.0931 -0.0114 -0.3568
   40CHL1  H16B 2909   1.106   6.545   7.794  0.4507 -0.9486  0.4914
   40CHL1   C17 2910   0.897   6.532   7.747  0.4678  0.0906  0.1035
   40CHL1   H17 2911   0.909   6.639   7.718 -1.3851  0.1462 -0.5743
   40CHL1   C13 2912   0.833   6.467   7.626 -0.3142  0.1999 -0.1032
   40CHL1   C18 2913   0.787   6.322   7.661  0.6158 -1.0526  0.1801
   40CHL1  H18A 2914   0.683   6.320   7.700  1.3380  0.6945  2.3969
   40CHL1  H18B 2915   0.779   6.247   7.579 -0.4296  1.3434 -2.0152
   40CHL1  H18C 2916   0.859   6.279   7.734  0.7467 -1.2104 -0.0394
   40CHL1   C12 2917   0.721   6.548   7.563 -0.2835  0.0260 -0.0401
   40CHL1  H12A 2918   0.626   6.539   7.620 -1.2744  4.5261 -0.6204
   40CHL1  H12B 2919   0.738   6.658   7.554 -0.9938  0.1161 -0.3647
   40CHL1   C11 2920   0.692   6.489   7.425 -0.4902  0.2213  0.4587
   40CHL1  H11A 2921   0.650   6.386   7.428 -2.0432  0.6089 -2.8829
   40CHL1  H11B 2922   0.612   6.557   7.389  2.1046  3.0653 -0.3698
   40CHL1    C9 2923   0.816   6.491   7.334  0.2885  0.1734  0.5865
   40CHL1    H9 2924   0.858   6.593   7.352  1.4950 -0.6346  2.7500
   40CHL1   C10 2925   0.789   6.463   7.181 -0.1567  0.8514 -0.1098
   40CHL1   C19 2926   0.708   6.339   7.173  0.8937 -0.0617 -0.3518
   40CHL1  H19A 2927   0.605   6.349   7.212  1.1650 -1.4501  0.8048
   40CHL1  H19B 2928   0.690   6.307   7.068 -0.4318  0.5997 -0.3498
   40CHL1  H19C 2929   0.759   6.250   7.216 -0.2388 -0.5085  0.1054
   40CHL1    C1 2930   0.706   6.590   7.126  0.7481 -0.2568  0.2570
   40CHL1   H1A 2931   0.603   6.578   7.165  0.4963  1.3305  0.1357
   40CHL1   H1B 2932   0.733   6.688   7.172 -0.8420  0.2053  0.2504
   40CHL1    C2 2933   0.710   6.610   6.974  0.1693  0.0798 -0.0400
   40CHL1   H2A 2934   0.665   6.708   6.947  0.2929  0.3480  0.7153
   40CHL1   H2B 2935   0.651   6.527   6.930  1.2962 -0.3005 -0.8884
   40CHL1   C20 2936   0.820   6.535   7.886  0.4324  0.7319 -0.0245
   40CHL1   H20 2937   0.800   6.429   7.912  0.7301  0.6190 -0.2511
   40CHL1   C21 2938   0.682   6.606   7.884 -0.6426  0.2604 -0.1666
   40CHL1  H21A 2939   0.634   6.604   7.985 -1.0097 -1.9275 -0.3274
   40CHL1  H21B 2940   0.606   6.553   7.824 -0.7198  0.1982 -0.0147
   40CHL1  H21C 2941   0.698   6.703   7.833  0.9422 -0.1633 -0.5387
   40CHL1   C22 2942   0.909   6.588   7.999  0.1080  0.3533  0.3620
   40CHL1  H22A 2943   1.014   6.555   7.990  0.4944  1.7853 -0.7618
   40CHL1  H22B 2944   0.906   6.697   7.978  0.4116  0.0504 -1.3543
   40CHL1   C23 2945   0.849   6.542   8.133 -0.2498  0.8356 -0.2223
   40CHL1  H23A 2946   0.742   6.571   8.142 -0.1014  1.5071 -0.5562
   40CHL1  H23B 2947   0.849   6.431   8.130 -2.6585  0.7788 -0.2563
   40CHL1   C24 2948   0.917   6.609   8.253  0.3104 -0.0587  0.1889
   40CHL1  H24A 2949   1.025   6.617   8.229  1.1786  0.9557  3.8055
   40CHL1  H24B 2950   0.870   6.710   8.258 -1.0352 -0.4637 -2.2998
   40CHL1   C25 2951   0.883   6.545   8.387 -0.2508 -0.2825  0.1643
   40CHL1   H25 2952   0.898   6.435   8.376 -3.6052 -0.9807  1.6181
   40CHL1   C26 2953   0.965   6.618   8.505  0.1346  0.3327  1.3337
   40CHL1  H26A 2954   0.958   6.728   8.515  0.3932  0.5834 -0.7979
   40CHL1  H26B 2955   0.938   6.571   8.602 -1.1284 -2.4005 -0.2042
   40CHL1  H26C 2956   1.070   6.585   8.488  0.3220 -0.9075  4.2457
   40CHL1   C27 2957   0.732   6.562   8.417 -0.4959  0.2238  0.5451
   40CHL1  H27A 2958   0.699   6.531   8.518 -3.2567 -0.2421 -0.4190
   40CHL1  H27B 2959   0.717   6.671   8.406  0.4698  0.5728  2.2979
   40CHL1  H27C 2960   0.676   6.498   8.345 -0.1877  2.1126 -1.4839
   41CHL1    C3 2961   1.793   1.003   6.934 -0.1251 -0.7059 -0.1306
   41CHL1    H3 2962   1.764   1.110   6.930 -1.1167 -0.9757 -0.5803
   41CHL1    O3 2963   1.785   0.962   6.798 -0.1504 -0.3489 -0.2684
   41CHL1   H3' 2964   1.859   1.005   6.755 -0.5172  1.4443  0.8002
   41CHL1    C4 2965   1.937   0.985   6.974 -0.1729 -0.4473  0.2130
   41CHL1   H4A 2966   1.973   0.883   6.946 -0.9448 -0.5067 -0.6103
   41CHL1   H4B 2967   2.003   1.051   6.913 -0.8134 -0.0865 -0.1008
   41CHL1    C5 2968   1.969   1.001   7.121  0.2583  0.2221  0.2424
   41CHL1    C6 2969   2.064   1.090   7.162 -0.3833  0.0192  0.1949
   41CHL1    H6 2970   2.123   1.140   7.083 -0.5535 -0.9989 -0.6044
   41CHL1    C7 2971   2.099   1.102   7.307 -0.1962 -0.0172 -0.4678
   41CHL1   H7A 2972   2.208   1.115   7.321 -0.3294  0.6785  0.0031
   41CHL1   H7B 2973   2.061   1.204   7.333  0.2837 -0.2687  1.3256
   41CHL1    C8 2974   2.033   0.998   7.408  0.3579  0.0232 -0.0266
   41CHL1    H8 2975   2.076   0.899   7.385 -1.2624 -0.2374 -2.2467
   41CHL1   C14 2976   2.024   1.045   7.560  0.3231 -0.2432 -0.6673
   41CHL1   H14 2977   1.968   1.141   7.562  0.4846 -0.0840 -2.3729
   41CHL1   C15 2978   2.162   1.070   7.635 -0.0406 -0.3044  1.2870
   41CHL1  H15A 2979   2.224   0.980   7.614 -0.1798 -0.2637  0.6871
   41CHL1  H15B 2980   2.215   1.161   7.600  1.5957 -1.8719 -0.5468
   41CHL1   C16 2981   2.138   1.054   7.785  0.1077 -0.1836  0.2095
   41CHL1  H16A 2982   2.222   0.997   7.831  0.4017  1.9752  2.5804
   41CHL1  H16B 2983   2.132   1.156   7.829 -2.6808 -0.3807  0.4637
   41CHL1   C17 2984   1.992   1.005   7.804 -0.1043  0.0008  0.3052
   41CHL1   H17 2985   1.938   1.102   7.806 -0.4680 -0.1225 -1.5436
   41CHL1   C13 2986   1.953   0.947   7.659  0.6950  0.4484  0.4847
   41CHL1   C18 2987   2.015   0.798   7.657 -0.0403 -0.2015  0.4102
   41CHL1  H18A 2988   2.019   0.756   7.554 -1.1568 -2.1640  1.1062
   41CHL1  H18B 2989   2.122   0.804   7.687  0.6334 -1.0912 -1.6323
   41CHL1  H18C 2990   1.962   0.729   7.727  0.8296 -1.7003 -0.3387
   41CHL1   C12 2991   1.809   0.950   7.614  0.0363 -0.6126  0.5728
   41CHL1  H12A 2992   1.740   0.887   7.675 -0.8436 -2.3350 -2.0219
   41CHL1  H12B 2993   1.766   1.052   7.623 -0.9206 -0.6148 -2.7449
   41CHL1   C11 2994   1.795   0.904   7.465  0.0374 -0.0718  0.6576
   41CHL1  H11A 2995   1.821   0.796   7.458 -2.4602 -0.7129  0.0422
   41CHL1  H11B 2996   1.691   0.923   7.431  1.0503  1.1067 -2.1154
   41CHL1    C9 2997   1.883   0.984   7.359 -0.6064  1.2668 -0.7578
   41CHL1    H9 2998   1.837   1.085   7.362  0.1703  1.6683 -1.8601
   41CHL1   C10 2999   1.873   0.931   7.215 -0.3370 -0.2276  0.6056
   41CHL1   C19 3000   1.909   0.781   7.211  0.1237  0.2047 -0.5587
   41CHL1  H19A 3001   1.910   0.729   7.114 -1.2467 -1.3000  0.1976
   41CHL1  H19B 3002   2.007   0.773   7.264 -0.8496  0.0101  1.2990
   41CHL1  H19C 3003   1.838   0.714   7.264 -0.1756  1.3917  0.6097
   41CHL1    C1 3004   1.724   0.933   7.165  0.4050 -0.2070  0.5763
   41CHL1   H1A 3005   1.660   0.857   7.214 -0.3692 -0.2593 -0.4603
   41CHL1   H1B 3006   1.672   1.029   7.186  0.0499 -0.5384  1.2475
   41CHL1    C2 3007   1.704   0.905   7.012  0.0329  0.0760 -0.3090
   41CHL1   H2A 3008   1.598   0.924   6.983 -0.7520 -0.5561  1.9667
   41CHL1   H2B 3009   1.727   0.798   6.993  0.4598 -0.0145  0.6434
   41CHL1   C20 3010   1.980   0.930   7.933 -0.0143  0.1259 -0.0382
   41CHL1   H20 3011   2.059   0.852   7.937  1.7856  1.8216 -0.8266
   41CHL1   C21 3012   1.841   0.864   7.942  0.1176 -0.1439  0.0098
   41CHL1  H21A 3013   1.823   0.786   8.019 -0.8164  0.9065  0.8944
   41CHL1  H21B 3014   1.832   0.804   7.849  2.3870 -2.6006  1.2247
   41CHL1  H21C 3015   1.756   0.934   7.958 -2.0555 -2.3927 -1.0532
   41CHL1   C22 3016   2.006   1.007   8.065 -0.1676  0.1076  0.5841
   41CHL1  H22A 3017   2.106   1.054   8.055 -0.1187 -0.2393 -0.7135
   41CHL1  H22B 3018   1.929   1.087   8.062  0.4986  0.7245 -0.3835
   41CHL1   C23 3019   2.009   0.931   8.209  0.0925  0.2310  0.0627
   41CHL1  H23A 3020   1.918   0.870   8.229 -0.7933  1.1183 -1.0897
   41CHL1  H23B 3021   2.101   0.869   8.198 -0.5064 -0.5650 -0.6505
   41CHL1   C24 3022   2.024   1.031   8.328  0.1769  0.0881 -0.8173
   41CHL1  H24A 3023   2.127   1.070   8.343 -0.0387  0.0052  1.1824
   41CHL1  H24B 3024   1.956   1.117   8.310 -1.4369 -0.5501  1.7339
   41CHL1   C25 3025   1.978   0.974   8.465  0.0842  0.0083  0.2544
   41CHL1   H25 3026   1.987   1.064   8.529  2.0101 -0.5159  0.7748
   41CHL1   C26 3027   1.824   0.948   8.474 -0.0414  0.6916 -0.5646
   41CHL1  H26A 3028   1.797   0.908   8.574  1.4965 -0.0527 -0.4132
   41CHL1  H26B 3029   1.782   1.050   8.460 -2.0874  0.2000  1.3167
   41CHL1  H26C 3030   1.797   0.875   8.396  0.7212 -0.0813 -0.1250
   41CHL1   C27 3031   2.069   0.866   8.531  0.3840 -0.4973 -0.2117
   41CHL1  H27A 3032   2.170   0.911   8.534  0.7124 -1.2706  0.4193
   41CHL1  H27B 3033   2.045   0.851   8.638  2.4013 -0.6809  0.2505
   41CHL1  H27C 3034   2.074   0.777   8.464 -0.5311 -0.3462 -0.5056
   42CHL1    C3 3035   4.675   4.516   6.812  0.1940  0.1333  1.0351
   42CHL1    H3 3036   4.675   4.405   6.808 -3.0282  0.0215  1.6488
   42CHL1    O3 3037   4.646   4.565   6.678  0.3974 -0.1449  0.1644
   42CHL1   H3' 3038   4.651   4.661   6.680  0.1798 -0.1472  1.1813
   42CHL1    C4 3039   4.557   4.562   6.897 -0.4270  0.1295  0.3545
   42CHL1   H4A 3040   4.541   4.670   6.875 -0.1368  0.1197  0.0903
   42CHL1   H4B 3041   4.467   4.504   6.868 -0.9853  0.3836  1.4982
   42CHL1    C5 3042   4.590   4.558   7.042 -0.4704  0.1540  0.0982
   42CHL1    C6 3043   4.504   4.502   7.125 -0.2489 -0.0918 -0.2051
   42CHL1    H6 3044   4.405   4.473   7.086 -0.0585 -1.6655  0.3789
   42CHL1    C7 3045   4.512   4.493   7.275  0.1434 -0.0317 -0.1969
   42CHL1   H7A 3046   4.427   4.529   7.337  1.6807  0.3511  1.7640
   42CHL1   H7B 3047   4.535   4.390   7.310  0.4512  0.4907  1.2083
   42CHL1    C8 3048   4.628   4.579   7.334 -0.4371 -0.0283  0.6304
   42CHL1    H8 3049   4.589   4.683   7.330 -0.2406  0.0206 -0.8306
   42CHL1   C14 3050   4.660   4.546   7.473 -0.8647 -0.7380 -0.0047
   42CHL1   H14 3051   4.698   4.442   7.466 -1.0321 -0.7084 -2.2686
   42CHL1   C15 3052   4.548   4.552   7.579  0.1149  0.2063  0.0264
   42CHL1  H15A 3053   4.478   4.636   7.560  0.1190  0.0337 -0.7606
   42CHL1  H15B 3054   4.488   4.460   7.567  0.8126 -0.3624  0.7128
   42CHL1   C16 3055   4.615   4.583   7.713 -0.5173 -0.0349 -0.2996
   42CHL1  H16A 3056   4.596   4.685   7.754 -5.5201 -0.2178 -1.6234
   42CHL1  H16B 3057   4.598   4.504   7.789 -1.9394 -2.3599 -2.8730
   42CHL1   C17 3058   4.767   4.581   7.678 -0.2973  0.1061 -0.2831
   42CHL1   H17 3059   4.797   4.474   7.675 -1.0231 -0.1805  1.5286
   42CHL1   C13 3060   4.775   4.632   7.531 -1.0514 -0.6705  0.0063
   42CHL1   C18 3061   4.735   4.781   7.531 -1.2314  0.4968  0.7489
   42CHL1  H18A 3062   4.804   4.850   7.584 -2.2512  1.6663  0.5833
   42CHL1  H18B 3063   4.732   4.819   7.427  0.8927 -1.8312 -0.2574
   42CHL1  H18C 3064   4.635   4.795   7.576 -2.1498 -0.4247 -0.9056
   42CHL1   C12 3065   4.908   4.601   7.444 -0.1695  0.1490 -1.2218
   42CHL1  H12A 3066   4.999   4.650   7.484 -0.9965  1.2002 -0.5883
   42CHL1  H12B 3067   4.926   4.491   7.452  1.3908  0.4580  0.0285
   42CHL1   C11 3068   4.879   4.630   7.305 -0.2297 -0.8338 -0.3608
   42CHL1  H11A 3069   4.870   4.741   7.296 -0.6236 -0.9524 -1.6500
   42CHL1  H11B 3070   4.973   4.617   7.249  1.6376 -2.1207  2.8223
   42CHL1    C9 3071   4.754   4.571   7.236  0.0697 -1.1498 -0.4168
   42CHL1    H9 3072   4.770   4.461   7.230 -2.8096 -1.8888  2.3566
   42CHL1   C10 3073   4.731   4.613   7.090 -0.2527 -0.3569  0.2512
   42CHL1   C19 3074   4.748   4.771   7.084  0.4737  0.2665  0.7580
   42CHL1  H19A 3075   4.713   4.804   6.983 -2.9237  1.7955  2.2715
   42CHL1  H19B 3076   4.684   4.825   7.157 -1.4197 -0.6747 -0.1285
   42CHL1  H19C 3077   4.856   4.794   7.098  0.5322  1.8501 -1.6681
   42CHL1    C1 3078   4.835   4.548   6.998 -0.6168 -0.0859 -0.1879
   42CHL1   H1A 3079   4.940   4.580   7.017 -0.7032 -0.4237  0.9294
   42CHL1   H1B 3080   4.839   4.437   7.005  2.1801 -0.1957 -2.0449
   42CHL1    C2 3081   4.807   4.572   6.851 -0.1765 -0.3819  0.3488
   42CHL1   H2A 3082   4.887   4.526   6.789 -1.5445 -2.8120  0.2416
   42CHL1   H2B 3083   4.813   4.683   6.843  0.7284 -0.3336  1.4496
   42CHL1   C20 3084   4.854   4.659   7.778  0.2969  0.3921 -0.1265
   42CHL1   H20 3085   4.827   4.767   7.770 -1.9492 -0.1653 -1.0091
   42CHL1   C21 3086   5.001   4.628   7.753 -0.5857  0.6768  0.3340
   42CHL1  H21A 3087   5.016   4.519   7.770  3.6830  1.2629  1.6562
   42CHL1  H21B 3088   5.061   4.677   7.832  1.5431  1.5840 -1.7146
   42CHL1  H21C 3089   5.055   4.652   7.659 -0.1275 -1.3726  0.0273
   42CHL1   C22 3090   4.819   4.619   7.926  0.2569  0.2125 -0.1150
   42CHL1  H22A 3091   4.720   4.664   7.951  0.4093  0.3171  0.3157
   42CHL1  H22B 3092   4.818   4.508   7.918  1.6974  0.2499 -1.0276
   42CHL1   C23 3093   4.912   4.675   8.039 -0.4925  0.2103  0.2717
   42CHL1  H23A 3094   5.014   4.633   8.026  1.2278  3.2110  2.7968
   42CHL1  H23B 3095   4.923   4.785   8.037  0.7020  0.1425  1.8321
   42CHL1   C24 3096   4.864   4.624   8.181 -0.0498  0.2350  0.2373
   42CHL1  H24A 3097   4.788   4.694   8.222 -0.6178 -0.2731  0.0619
   42CHL1  H24B 3098   4.815   4.525   8.168 -0.9721  0.8503 -1.3069
   42CHL1   C25 3099   4.974   4.600   8.288 -0.4407  0.0568  0.1281
   42CHL1   H25 3100   5.042   4.527   8.239 -0.2815  1.6614 -2.2282
   42CHL1   C26 3101   5.063   4.731   8.311 -0.1417  0.2879 -0.1904
   42CHL1  H26A 3102   5.110   4.765   8.216 -1.7873 -0.9572 -1.4995
   42CHL1  H26B 3103   4.993   4.808   8.350  0.6317  0.6598  0.4856
   42CHL1  H26C 3104   5.142   4.695   8.380 -1.3426 -1.1690  0.4871
   42CHL1   C27 3105   4.922   4.576   8.427  0.2192 -0.2020 -0.5708
   42CHL1  H27A 3106   4.868   4.479   8.422 -1.2418  0.5664 -0.1928
   42CHL1  H27B 3107   4.846   4.653   8.449  0.3840 -0.2885  0.3241
   42CHL1  H27C 3108   5.000   4.571   8.506 -1.0354 -1.8659  0.6177
   43CHL1    C3 3109   2.905   6.790   6.571  0.1157 -0.1355  0.2410
   43CHL1    H3 3110   3.007   6.834   6.566  0.2471 -0.5161 -0.6087
   43CHL1    O3 3111   2.853   6.787   6.441 -0.3072 -0.2401 -0.3459
   43CHL1   H3' 3112   2.917   6.741   6.386 -2.8908 -1.1647 -2.8480
   43CHL1    C4 3113   2.901   6.650   6.631  0.1963 -0.9529 -0.6796
   43CHL1   H4A 3114   2.803   6.603   6.607  0.9406 -1.3002 -3.4982
   43CHL1   H4B 3115   2.962   6.579   6.570  1.4821  1.6883 -2.6629
   43CHL1    C5 3116   2.927   6.642   6.778 -0.2226  0.0191 -0.6581
   43CHL1    C6 3117   3.005   6.550   6.834 -0.3630 -0.4834 -0.3650
   43CHL1    H6 3118   3.028   6.466   6.766 -2.5148  1.1936 -3.4654
   43CHL1    C7 3119   3.047   6.540   6.976 -0.4629 -0.2929 -0.0690
   43CHL1   H7A 3120   3.045   6.436   7.016 -1.6604  0.0291  0.7463
   43CHL1   H7B 3121   3.150   6.576   6.992  0.7016 -2.8350 -1.2787
   43CHL1    C8 3122   2.948   6.619   7.070 -0.3859 -0.9347 -0.0529
   43CHL1    H8 3123   2.853   6.561   7.074  0.3913 -2.2505  0.0046
   43CHL1   C14 3124   2.996   6.624   7.214  0.5042  0.7562 -0.0081
   43CHL1   H14 3125   3.090   6.683   7.209  0.3755  0.8874 -1.5465
   43CHL1   C15 3126   3.026   6.488   7.280 -0.3616  0.2757 -0.4783
   43CHL1  H15A 3127   2.947   6.414   7.253 -0.5999  0.5584 -0.5699
   43CHL1  H15B 3128   3.125   6.457   7.242 -0.1269 -0.5976  0.8098
   43CHL1   C16 3129   3.029   6.519   7.426  0.6796  0.3946  0.2575
   43CHL1  H16A 3130   2.984   6.439   7.489  2.7924 -0.9366  0.1598
   43CHL1  H16B 3131   3.135   6.511   7.456  0.0458 -1.5792  2.2155
   43CHL1   C17 3132   2.978   6.670   7.442 -0.0663  0.3918  0.1460
   43CHL1   H17 3133   3.072   6.729   7.438  0.6469 -0.6137  1.3962
   43CHL1   C13 3134   2.905   6.696   7.305 -0.9203 -0.2966 -0.3479
   43CHL1   C18 3135   2.765   6.633   7.318  0.5738  0.1162 -0.6349
   43CHL1  H18A 3136   2.695   6.702   7.370  0.1004 -0.6535 -0.2303
   43CHL1  H18B 3137   2.715   6.613   7.221  3.2139 -0.6574 -1.9468
   43CHL1  H18C 3138   2.766   6.545   7.387 -0.7512  0.5433 -0.0469
   43CHL1   C12 3139   2.900   6.840   7.258  0.6964  0.4574  0.6569
   43CHL1  H12A 3140   2.840   6.905   7.326  1.7023  0.7759  1.2553
   43CHL1  H12B 3141   2.998   6.891   7.250  1.6182 -0.8999  2.4886
   43CHL1   C11 3142   2.844   6.844   7.117  0.5627  0.1975  0.4289
   43CHL1  H11A 3143   2.738   6.819   7.139  0.4046  2.8499  3.3212
   43CHL1  H11B 3144   2.835   6.951   7.088 -0.9395  0.0699  0.3536
   43CHL1    C9 3145   2.920   6.763   7.017 -0.9869  0.1886 -0.8989
   43CHL1    H9 3146   3.020   6.812   7.008 -1.6397  1.3450 -2.2858
   43CHL1   C10 3147   2.865   6.753   6.875  0.3442 -0.5141  0.5545
   43CHL1   C19 3148   2.717   6.713   6.888 -0.1387 -0.2683 -0.1045
   43CHL1  H19A 3149   2.652   6.799   6.913  0.4709  0.5326 -1.1984
   43CHL1  H19B 3150   2.673   6.670   6.795 -1.4691 -0.2314  0.4933
   43CHL1  H19C 3151   2.697   6.628   6.957 -0.9534 -0.7861 -0.9572
   43CHL1    C1 3152   2.869   6.891   6.798 -0.2916  0.6042 -0.0435
   43CHL1   H1A 3153   2.803   6.964   6.848 -0.8411 -0.6204  1.0835
   43CHL1   H1B 3154   2.972   6.931   6.794  0.7438 -1.7252  1.3199
   43CHL1    C2 3155   2.816   6.885   6.657  0.1739  0.9117 -0.5860
   43CHL1   H2A 3156   2.819   6.985   6.610  0.6810  2.2843  2.1699
   43CHL1   H2B 3157   2.713   6.843   6.653  0.1807  0.8564 -0.1817
   43CHL1   C20 3158   2.912   6.711   7.575 -0.4822  0.5850  1.4301
   43CHL1   H20 3159   2.808   6.673   7.573 -1.3689  2.8499  1.8083
   43CHL1   C21 3160   2.914   6.869   7.583 -1.2430  0.1690 -0.0709
   43CHL1  H21A 3161   2.913   6.897   7.690  0.6422  1.0423 -0.2338
   43CHL1  H21B 3162   2.826   6.925   7.545 -0.1852  1.6789 -0.3904
   43CHL1  H21C 3163   3.006   6.909   7.535 -1.0002  0.1854  0.4099
   43CHL1   C22 3164   2.984   6.645   7.696 -0.3765  0.6529 -0.4162
   43CHL1  H22A 3165   3.014   6.539   7.686 -0.6884  0.3145  1.8044
   43CHL1  H22B 3166   3.074   6.709   7.710  0.3188 -0.6125  1.1083
   43CHL1   C23 3167   2.914   6.657   7.828 -0.3116  0.0001 -0.1689
   43CHL1  H23A 3168   2.868   6.756   7.849  2.1172  1.0675  0.3976
   43CHL1  H23B 3169   2.825   6.590   7.820 -1.2026  1.2183 -0.7967
   43CHL1   C24 3170   2.993   6.610   7.948 -0.4296  1.0856  0.3204
   43CHL1  H24A 3171   3.004   6.502   7.922  2.2274  1.7893 -1.9727
   43CHL1  H24B 3172   3.092   6.660   7.952  0.1035 -0.0313  1.9021
   43CHL1   C25 3173   2.934   6.635   8.089  0.2391  0.4646  0.5995
   43CHL1   H25 3174   2.995   6.593   8.172 -1.5606  1.6216  2.6057
   43CHL1   C26 3175   2.919   6.786   8.120 -0.4025 -0.8698 -0.3555
   43CHL1  H26A 3176   2.872   6.802   8.220 -1.5562 -0.0622 -1.0127
   43CHL1  H26B 3177   3.024   6.824   8.127 -0.0289 -1.3426 -2.5765
   43CHL1  H26C 3178   2.855   6.838   8.047 -1.3450 -1.6181 -0.0861
   43CHL1   C27 3179   2.804   6.566   8.110  1.0579  0.8861  0.3800
   43CHL1  H27A 3180   2.773   6.553   8.216 -2.4089 -0.5926 -0.6818
   43CHL1  H27B 3181   2.722   6.628   8.069  0.0012 -0.3489  0.5595
   43CHL1  H27C 3182   2.793   6.464   8.068 -1.2716 -0.2489  3.3519
   44CHL1    C3 3183   3.889   0.821   6.742 -0.3063 -0.2050  0.8482
   44CHL1    H3 3184   3.824   0.731   6.752  1.3455 -1.5208  0.2145
   44CHL1    O3 3185   3.930   0.822   6.601  0.0429 -0.4518  0.4483
   44CHL1   H3' 3186   4.018   0.861   6.601  1.0523 -2.5395 -0.9807
   44CHL1    C4 3187   3.825   0.948   6.783  0.3328 -0.0437 -0.5116
   44CHL1   H4A 3188   3.899   1.028   6.763 -1.0618  0.9356 -2.1104
   44CHL1   H4B 3189   3.734   0.977   6.725  0.0190  0.1750  0.0833
   44CHL1    C5 3190   3.804   0.955   6.935  0.1598  0.0574  0.7473
   44CHL1    C6 3191   3.679   0.976   6.982  0.5291 -0.6138  0.6743
   44CHL1    H6 3192   3.595   0.982   6.911 -0.4720 -2.1615  1.6698
   44CHL1    C7 3193   3.633   0.987   7.119 -0.0698 -0.3005 -0.3161
   44CHL1   H7A 3194   3.569   1.077   7.137  2.8593  1.7604  0.7158
   44CHL1   H7B 3195   3.573   0.904   7.161 -1.1917  2.4363  4.2516
   44CHL1    C8 3196   3.757   0.991   7.211  0.7538 -0.5553  0.4251
   44CHL1    H8 3197   3.793   1.093   7.188 -2.0458 -0.2871 -3.7790
   44CHL1   C14 3198   3.706   0.977   7.354 -0.0367 -0.7491  0.2038
   44CHL1   H14 3199   3.666   0.876   7.379  0.5588 -0.5665  2.1072
   44CHL1   C15 3200   3.605   1.076   7.402 -0.6585 -0.3045  0.2023
   44CHL1  H15A 3201   3.634   1.172   7.354 -1.0498 -0.0784  0.4131
   44CHL1  H15B 3202   3.500   1.046   7.384 -0.4968 -0.8710  0.1739
   44CHL1   C16 3203   3.623   1.080   7.556 -0.1445  0.7004 -0.0568
   44CHL1  H16A 3204   3.623   1.185   7.590 -2.6601  0.9007 -0.4684
   44CHL1  H16B 3205   3.531   1.029   7.592 -0.6366 -1.1369 -3.4732
   44CHL1   C17 3206   3.753   1.004   7.591  0.3939  0.1305 -0.0963
   44CHL1   H17 3207   3.723   0.898   7.609 -2.0475  0.2342 -2.7239
   44CHL1   C13 3208   3.826   0.992   7.453  0.3018  0.3482  0.1062
   44CHL1   C18 3209   3.900   1.125   7.439 -0.5506  0.5234  0.5343
   44CHL1  H18A 3210   3.927   1.136   7.332  0.0031 -0.7943  0.5228
   44CHL1  H18B 3211   3.838   1.215   7.455 -2.3277 -0.4016 -0.7816
   44CHL1  H18C 3212   3.987   1.124   7.508 -0.7901 -2.0828  0.8931
   44CHL1   C12 3213   3.926   0.879   7.428 -0.4637 -0.8226 -0.1313
   44CHL1  H12A 3214   4.015   0.890   7.493 -0.2568 -3.0654  0.0399
   44CHL1  H12B 3215   3.888   0.780   7.460  0.8506 -0.6624  2.1231
   44CHL1   C11 3216   3.976   0.878   7.283  0.2825 -0.1510  0.9241
   44CHL1  H11A 3217   4.045   0.963   7.268 -0.5403  0.2876 -0.5022
   44CHL1  H11B 3218   4.044   0.791   7.267  1.4438  0.8931  0.0542
   44CHL1    C9 3219   3.867   0.896   7.169 -0.4584  0.1889  0.1121
   44CHL1    H9 3220   3.814   0.798   7.169  1.7979 -1.1212 -1.3336
   44CHL1   C10 3221   3.919   0.922   7.022  0.7398 -0.6275  0.0393
   44CHL1   C19 3222   4.025   1.037   7.026  0.7124  0.3215 -0.0274
   44CHL1  H19A 3223   3.989   1.124   7.084  3.2150  0.9485  0.6724
   44CHL1  H19B 3224   4.115   1.010   7.084  0.0496 -0.6600  0.5899
   44CHL1  H19C 3225   4.047   1.071   6.922  3.5674 -0.8889  0.0970
   44CHL1    C1 3226   3.982   0.786   6.974 -0.1039  0.8880 -0.6002
   44CHL1   H1A 3227   4.071   0.764   7.036 -0.6258  0.7016  0.1034
   44CHL1   H1B 3228   3.905   0.712   7.006  0.3888  1.0078  0.9685
   44CHL1    C2 3229   4.013   0.792   6.824 -0.2505  0.9938  0.6709
   44CHL1   H2A 3230   4.055   0.694   6.793  1.5216  2.0394 -0.4533
   44CHL1   H2B 3231   4.101   0.859   6.809  0.8455  0.0533  2.6354
   44CHL1   C20 3232   3.818   1.056   7.721  0.2013 -0.1614  0.4212
   44CHL1   H20 3233   3.854   1.160   7.705 -0.7750  0.5256  2.4490
   44CHL1   C21 3234   3.936   0.969   7.758 -0.0079  0.1181 -0.3185
   44CHL1  H21A 3235   3.914   0.860   7.769  1.0456  0.0025  0.8099
   44CHL1  H21B 3236   3.970   1.006   7.857  1.2443 -0.2566 -0.5951
   44CHL1  H21C 3237   4.027   0.983   7.696  0.5592 -2.5439 -0.2248
   44CHL1   C22 3238   3.715   1.058   7.840  0.5750 -1.0603 -0.3656
   44CHL1  H22A 3239   3.754   1.126   7.918 -0.6571  2.1811 -2.3963
   44CHL1  H22B 3240   3.619   1.106   7.814  0.6851 -1.0234 -0.7052
   44CHL1   C23 3241   3.670   0.925   7.904  0.2548  0.3906 -0.1309
   44CHL1  H23A 3242   3.608   0.868   7.832 -0.3037 -1.3767  1.6451
   44CHL1  H23B 3243   3.757   0.861   7.931 -1.3367 -1.6728  0.4300
   44CHL1   C24 3244   3.576   0.955   8.020  0.4161 -0.3056 -0.0100
   44CHL1  H24A 3245   3.610   1.049   8.069  1.0013 -0.5680  0.0945
   44CHL1  H24B 3246   3.476   0.970   7.974 -0.1123 -0.8223  0.9288
   44CHL1   C25 3247   3.556   0.842   8.124  0.4633  0.0084 -0.5668
   44CHL1   H25 3248   3.465   0.864   8.184 -0.5021 -0.7679 -1.6931
   44CHL1   C26 3249   3.555   0.705   8.053  0.5978  0.2744 -0.0404
   44CHL1  H26A 3250   3.653   0.687   8.004  0.8582  1.7075 -0.0863
   44CHL1  H26B 3251   3.563   0.616   8.119 -1.5542  0.3568  0.3983
   44CHL1  H26C 3252   3.476   0.692   7.976 -0.2910  0.8601  0.7524
   44CHL1   C27 3253   3.668   0.833   8.222  0.1423 -0.0334 -0.9127
   44CHL1  H27A 3254   3.680   0.926   8.282 -1.0313 -0.9987  0.9326
   44CHL1  H27B 3255   3.640   0.766   8.306  1.6845  1.0198  0.5158
   44CHL1  H27C 3256   3.762   0.822   8.165  0.6001 -0.2190 -0.1357
   45CHL1    C3 3257   0.347   4.855   6.900  0.1230  0.2988 -0.1178
   45CHL1    H3 3258   0.255   4.799   6.925 -0.3762  1.2750  0.2675
   45CHL1    O3 3259   0.367   4.862   6.760  0.1358 -0.7067  0.0050
   45CHL1   H3' 3260   0.430   4.934   6.752 -1.0804  0.6967  1.8040
   45CHL1    C4 3261   0.346   4.997   6.959 -0.0532  0.3907  0.5680
   45CHL1   H4A 3262   0.448   5.037   6.941  1.0001 -2.5575 -0.7338
   45CHL1   H4B 3263   0.274   5.059   6.901  1.0394 -2.1542 -3.9964
   45CHL1    C5 3264   0.333   5.005   7.103  0.6835  0.0898  0.3544
   45CHL1    C6 3265   0.229   5.079   7.162 -0.7705 -0.1986 -0.1261
   45CHL1    H6 3266   0.162   5.138   7.097  0.2351 -0.2419 -1.2377
   45CHL1    C7 3267   0.212   5.096   7.310  0.0229 -0.8389 -0.5920
   45CHL1   H7A 3268   0.205   5.202   7.343  3.3051 -1.1550  1.6561
   45CHL1   H7B 3269   0.117   5.047   7.341 -0.6802  0.2195 -1.0232
   45CHL1    C8 3270   0.337   5.043   7.392  0.1124 -0.0904  0.2679
   45CHL1    H8 3271   0.421   5.113   7.372 -0.8047  1.1071  0.4455
   45CHL1   C14 3272   0.308   5.036   7.539  1.0113 -0.4094  0.5160
   45CHL1   H14 3273   0.216   4.975   7.554  2.2949 -2.6036 -0.1740
   45CHL1   C15 3274   0.257   5.177   7.604  0.0165  0.5289  0.1121
   45CHL1  H15A 3275   0.327   5.257   7.572  0.1608 -0.0076 -0.9371
   45CHL1  H15B 3276   0.151   5.206   7.589 -0.6508 -1.7280 -0.0282
   45CHL1   C16 3277   0.281   5.155   7.751 -0.1754  0.1776 -0.4506
   45CHL1  H16A 3278   0.338   5.237   7.800 -2.3656  0.7375  1.2937
   45CHL1  H16B 3279   0.182   5.155   7.801  0.4960  2.2008  1.0559
   45CHL1   C17 3280   0.353   5.015   7.763  0.0664  1.1059  0.2615
   45CHL1   H17 3281   0.264   4.951   7.779 -1.1832  2.0955 -2.2594
   45CHL1   C13 3282   0.414   4.978   7.626 -0.0182 -0.1081 -0.9150
   45CHL1   C18 3283   0.539   5.068   7.621 -1.1178  0.0073  0.4912
   45CHL1  H18A 3284   0.524   5.166   7.671  0.2673 -0.3068  1.5744
   45CHL1  H18B 3285   0.625   5.017   7.669  1.4797  1.0916 -2.6148
   45CHL1  H18C 3286   0.569   5.094   7.517 -0.5409  1.3947  0.9846
   45CHL1   C12 3287   0.435   4.832   7.585  0.3523  0.2967  0.4152
   45CHL1  H12A 3288   0.515   4.779   7.642 -1.6556 -1.2261  1.9849
   45CHL1  H12B 3289   0.342   4.773   7.602  0.5275 -0.7282 -1.8113
   45CHL1   C11 3290   0.471   4.832   7.430  0.0314  0.1262 -0.2687
   45CHL1  H11A 3291   0.573   4.875   7.419 -0.9087  2.3642 -0.5516
   45CHL1  H11B 3292   0.475   4.724   7.403 -3.3282 -0.1562 -0.0234
   45CHL1    C9 3293   0.372   4.907   7.337  0.1943 -0.4571  0.3170
   45CHL1    H9 3294   0.283   4.842   7.341  0.4692 -1.1144 -2.3899
   45CHL1   C10 3295   0.423   4.914   7.190 -0.1599 -0.1411 -0.6054
   45CHL1   C19 3296   0.560   4.977   7.184  0.0914  0.2536  0.2792
   45CHL1  H19A 3297   0.598   4.992   7.081  1.2511 -0.5403  0.5770
   45CHL1  H19B 3298   0.574   5.076   7.233  4.1950 -0.0692  0.1128
   45CHL1  H19C 3299   0.636   4.910   7.228  0.9976  0.8929 -0.2766
   45CHL1    C1 3300   0.436   4.774   7.124 -0.1746  1.1351  0.2432
   45CHL1   H1A 3301   0.525   4.720   7.161  0.2465  0.4529 -1.6323
   45CHL1   H1B 3302   0.348   4.708   7.140  1.4027 -1.0809  0.2199
   45CHL1    C2 3303   0.461   4.778   6.962 -0.0808 -0.0955 -0.8405
   45CHL1   H2A 3304   0.472   4.678   6.915  2.4564  0.1903 -0.9568
   45CHL1   H2B 3305   0.556   4.827   6.934  1.0757 -2.3776 -1.1318
   45CHL1   C20 3306   0.429   5.000   7.897 -0.6609  0.1853 -0.2714
   45CHL1   H20 3307   0.504   5.082   7.903 -0.2131 -0.1776 -0.7983
   45CHL1   C21 3308   0.505   4.867   7.906 -0.1367  0.2783 -0.5088
   45CHL1  H21A 3309   0.438   4.790   7.863 -2.1576  0.3244  2.2336
   45CHL1  H21B 3310   0.523   4.849   8.014 -1.2634  0.5678 -0.2523
   45CHL1  H21C 3311   0.598   4.889   7.849 -0.6131  0.1167 -1.3629
   45CHL1   C22 3312   0.329   4.997   8.015 -0.2122  0.9468  0.6898
   45CHL1  H22A 3313   0.249   5.072   7.998  0.2006  1.1854 -0.2924
   45CHL1  H22B 3314   0.289   4.894   8.003  0.0620  1.0573 -1.9537
   45CHL1   C23 3315   0.386   5.013   8.156 -0.0771  0.5762  0.2742
   45CHL1  H23A 3316   0.435   4.919   8.190 -1.1715 -0.7541 -1.6579
   45CHL1  H23B 3317   0.456   5.099   8.151  0.7042 -0.0340  0.3687
   45CHL1   C24 3318   0.285   5.055   8.268  0.2637  0.1993  0.0416
   45CHL1  H24A 3319   0.225   5.141   8.232  1.4929  0.4880 -1.4317
   45CHL1  H24B 3320   0.212   4.975   8.292 -0.9070  1.1285 -0.3510
   45CHL1   C25 3321   0.368   5.092   8.396  0.2301  0.2052  0.2185
   45CHL1   H25 3322   0.437   5.006   8.414  0.0028  0.0186  0.2085
   45CHL1   C26 3323   0.450   5.224   8.388  0.3483  0.2853  0.2017
   45CHL1  H26A 3324   0.382   5.310   8.375 -1.6787 -1.4003 -1.0925
   45CHL1  H26B 3325   0.514   5.226   8.479 -2.0960 -2.6539  2.1922
   45CHL1  H26C 3326   0.527   5.213   8.308 -0.3846 -0.1221 -0.4643
   45CHL1   C27 3327   0.268   5.098   8.505 -0.7558  0.0550  0.5017
   45CHL1  H27A 3328   0.209   5.192   8.496  0.2535  0.6967  0.4801
   45CHL1  H27B 3329   0.187   5.022   8.502 -0.8697  0.1658  0.6945
   45CHL1  H27C 3330   0.315   5.105   8.606 -2.4365 -0.0277  1.3280
   46CHL1    C3 3331   4.909   0.672   7.247  0.2118  0.5637  0.0150
   46CHL1    H3 3332   4.977   0.586   7.261  0.3257  0.4894 -0.8998
   46CHL1    O3 3333   4.916   0.726   7.114 -0.2807 -0.1892  0.3869
   46CHL1   H3' 3334   4.877   0.813   7.123 -2.5149 -1.2666  2.2539
   46CHL1    C4 3335   4.765   0.630   7.287 -0.1724  0.5827 -0.2446
   46CHL1   H4A 3336   4.693   0.711   7.263 -0.8374 -0.5089 -2.1495
   46CHL1   H4B 3337   4.729   0.547   7.222  0.6702 -0.4182  0.5258
   46CHL1    C5 3338   4.752   0.602   7.437  0.4177  0.0812 -0.1400
   46CHL1    C6 3339   4.697   0.482   7.482 -0.0217  0.9660  0.2337
   46CHL1    H6 3340   4.653   0.417   7.405 -1.1514  2.6523 -0.5921
   46CHL1    C7 3341   4.683   0.444   7.628 -1.4261  0.2483  0.1076
   46CHL1   H7A 3342   4.585   0.403   7.662 -1.6238 -0.4165 -1.2014
   46CHL1   H7B 3343   4.766   0.374   7.653 -0.2623  2.4017  2.7874
   46CHL1    C8 3344   4.715   0.559   7.729 -0.0456 -1.0536  0.2227
   46CHL1    H8 3345   4.625   0.624   7.741  0.1285 -0.6709 -0.4681
   46CHL1   C14 3346   4.740   0.500   7.870  0.1297 -0.1746 -0.0631
   46CHL1   H14 3347   4.834   0.444   7.856  1.0778  0.9817  1.3738
   46CHL1   C15 3348   4.638   0.402   7.925  0.7799  0.3695 -0.4399
   46CHL1  H15A 3349   4.538   0.442   7.900  0.7163 -0.3857 -1.4538
   46CHL1  H15B 3350   4.643   0.297   7.889  0.1361  0.4206 -0.6923
   46CHL1   C16 3351   4.670   0.396   8.076  0.0853  0.0549  0.2458
   46CHL1  H16A 3352   4.577   0.438   8.120  0.7079 -0.7285  2.4458
   46CHL1  H16B 3353   4.694   0.292   8.107  1.3213  0.8747  2.2168
   46CHL1   C17 3354   4.789   0.494   8.090  0.3659 -0.1646  0.6244
   46CHL1   H17 3355   4.882   0.440   8.065  0.8387  1.6675 -1.8888
   46CHL1   C13 3356   4.764   0.600   7.976  0.2583  0.0111  0.4356
   46CHL1   C18 3357   4.630   0.678   8.010 -0.0699 -0.3225  0.7186
   46CHL1  H18A 3358   4.547   0.621   8.059 -1.4284  1.7656  0.9678
   46CHL1  H18B 3359   4.651   0.759   8.083  0.0746  0.1273  0.1735
   46CHL1  H18C 3360   4.604   0.731   7.917  1.6720 -2.6889 -1.2541
   46CHL1   C12 3361   4.881   0.688   7.932 -0.4365  0.6625  0.1179
   46CHL1  H12A 3362   4.869   0.775   8.001 -1.9113  0.6613 -0.0941
   46CHL1  H12B 3363   4.972   0.625   7.935 -1.1653 -0.4820 -0.9709
   46CHL1   C11 3364   4.855   0.752   7.790  0.5845  0.9523  0.3414
   46CHL1  H11A 3365   4.768   0.820   7.799  1.4519  2.5108 -1.8475
   46CHL1  H11B 3366   4.945   0.813   7.764 -0.2604  1.3034 -2.0471
   46CHL1    C9 3367   4.838   0.643   7.681  0.4919 -0.1351 -0.3996
   46CHL1    H9 3368   4.925   0.574   7.684  0.1769 -0.5354 -0.3831
   46CHL1   C10 3369   4.817   0.701   7.540 -0.3489  0.0521 -0.1596
   46CHL1   C19 3370   4.731   0.830   7.546  1.1630 -0.6621  0.0941
   46CHL1  H19A 3371   4.631   0.802   7.587  0.3563 -0.7196 -1.8155
   46CHL1  H19B 3372   4.769   0.922   7.594 -0.7991  0.1949  0.0914
   46CHL1  H19C 3373   4.707   0.860   7.442  1.1685 -0.5285  0.1315
   46CHL1    C1 3374   4.964   0.742   7.490  0.6045 -0.4487  0.1921
   46CHL1   H1A 3375   5.004   0.826   7.550  0.5136 -1.3168  1.5189
   46CHL1   H1B 3376   5.030   0.653   7.489  2.0245  0.5351 -2.3022
   46CHL1    C2 3377   4.953   0.785   7.339 -0.2069 -0.4615  0.1763
   46CHL1   H2A 3378   5.051   0.830   7.312 -1.7756  1.8525 -2.2169
   46CHL1   H2B 3379   4.877   0.866   7.330  1.2778  0.8791 -0.8551
   46CHL1   C20 3380   4.797   0.555   8.231  0.7904  0.7308 -0.3120
   46CHL1   H20 3381   4.703   0.610   8.253  0.2658  0.4268 -1.7046
   46CHL1   C21 3382   4.924   0.639   8.255  0.1937 -0.0062  0.3006
   46CHL1  H21A 3383   4.912   0.737   8.205 -1.8704 -1.3316 -2.0811
   46CHL1  H21B 3384   5.016   0.587   8.220 -0.1281 -1.3212  1.3158
   46CHL1  H21C 3385   4.922   0.662   8.363  0.0406  3.1976 -0.2829
   46CHL1   C22 3386   4.784   0.438   8.339  0.5592 -0.7249 -0.3941
   46CHL1  H22A 3387   4.689   0.383   8.320 -0.0374  0.5403 -1.2207
   46CHL1  H22B 3388   4.868   0.367   8.323  0.7671 -0.2826 -1.3467
   46CHL1   C23 3389   4.778   0.491   8.489  0.1375  0.1824 -0.0428
   46CHL1  H23A 3390   4.878   0.534   8.509  0.8023 -0.9585 -0.7714
   46CHL1  H23B 3391   4.699   0.569   8.491  0.4269  0.5348 -1.3566
   46CHL1   C24 3392   4.743   0.381   8.594 -0.5300 -0.0090  1.1562
   46CHL1  H24A 3393   4.663   0.327   8.539  2.0091 -1.1769 -1.6557
   46CHL1  H24B 3394   4.831   0.316   8.611  1.1243  1.9293  0.4770
   46CHL1   C25 3395   4.696   0.424   8.729 -0.1848  0.0441 -0.0994
   46CHL1   H25 3396   4.613   0.493   8.702 -0.2578  0.2590  0.6519
   46CHL1   C26 3397   4.645   0.313   8.816 -0.4784 -0.4560 -0.0817
   46CHL1  H26A 3398   4.724   0.248   8.859  0.0229  0.0572 -0.2183
   46CHL1  H26B 3399   4.607   0.353   8.912  1.6868 -2.6512  1.8266
   46CHL1  H26C 3400   4.573   0.242   8.769  0.3238 -1.3735  0.0229
   46CHL1   C27 3401   4.812   0.495   8.800  0.6557 -0.5038 -0.1076
   46CHL1  H27A 3402   4.785   0.544   8.896 -2.9843 -0.4282 -1.0214
   46CHL1  H27B 3403   4.883   0.414   8.829  2.1826  0.9642  0.3679
   46CHL1  H27C 3404   4.845   0.578   8.734 -1.6530  1.0991  0.6169
   47CHL1    C3 3405   3.121   6.064   6.658 -0.3648  0.4236 -0.2854
   47CHL1    H3 3406   3.038   6.124   6.702  0.0324  1.1772 -0.5408
   47CHL1    O3 3407   3.136   6.110   6.526 -0.0637 -0.1871  0.7064
   47CHL1   H3' 3408   3.075   6.056   6.475 -0.5791  0.4125  0.6748
   47CHL1    C4 3409   3.245   6.099   6.736 -0.2573  0.0047 -0.2737
   47CHL1   H4A 3410   3.331   6.042   6.697 -0.6974 -1.1562  0.4026
   47CHL1   H4B 3411   3.262   6.208   6.722  0.9883  0.4693  3.6200
   47CHL1    C5 3412   3.227   6.063   6.883 -0.9459  0.2068  0.2483
   47CHL1    C6 3413   3.243   6.164   6.979  0.8711  0.1374  1.4123
   47CHL1    H6 3414   3.278   6.265   6.952  0.0976  0.2772  0.8984
   47CHL1    C7 3415   3.223   6.141   7.127  0.1843  0.4928  0.0060
   47CHL1   H7A 3416   3.315   6.183   7.173  0.3217  0.6096 -0.3709
   47CHL1   H7B 3417   3.137   6.197   7.170 -0.5354 -0.7591  0.2737
   47CHL1    C8 3418   3.216   5.989   7.158 -0.6904 -0.1777  0.2676
   47CHL1    H8 3419   3.322   5.956   7.156 -0.4463  0.5343  1.0265
   47CHL1   C14 3420   3.167   5.964   7.300 -0.2656  0.4185 -0.1941
   47CHL1   H14 3421   3.065   6.007   7.305 -0.1714  0.5214  1.5558
   47CHL1   C15 3422   3.239   6.043   7.413 -0.2213 -0.2494  0.7277
   47CHL1  H15A 3423   3.350   6.037   7.405 -0.1276  0.2307  1.5330
   47CHL1  H15B 3424   3.200   6.147   7.412  1.2034  0.3511 -2.3338
   47CHL1   C16 3425   3.193   5.967   7.536  0.4318  0.3079  0.0161
   47CHL1  H16A 3426   3.286   5.948   7.593 -0.4221 -0.2213  1.2891
   47CHL1  H16B 3427   3.127   6.028   7.602  0.6614  0.1297  0.4126
   47CHL1   C17 3428   3.128   5.831   7.493  0.8865  0.1963 -0.3827
   47CHL1   H17 3429   3.018   5.843   7.509  0.4107 -1.8051 -1.8281
   47CHL1   C13 3430   3.160   5.820   7.345  0.1367  0.3984  0.3131
   47CHL1   C18 3431   3.305   5.764   7.336 -0.1419 -0.2456  0.4192
   47CHL1  H18A 3432   3.313   5.658   7.368  2.9045  0.2614  1.6803
   47CHL1  H18B 3433   3.350   5.765   7.234 -1.3311  1.1277 -0.1374
   47CHL1  H18C 3434   3.374   5.818   7.404  1.4400 -0.0316 -1.2840
   47CHL1   C12 3435   3.061   5.756   7.250  0.5004  0.5098  0.8095
   47CHL1  H12A 3436   3.040   5.650   7.278  1.7258 -1.1499 -3.6819
   47CHL1  H12B 3437   2.964   5.808   7.261 -0.7977 -2.0628  2.4357
   47CHL1   C11 3438   3.104   5.768   7.100 -0.1143  0.3182 -0.4950
   47CHL1  H11A 3439   3.195   5.705   7.085 -1.2311 -1.0465 -1.8282
   47CHL1  H11B 3440   3.023   5.721   7.041 -0.0100  1.0654 -1.2529
   47CHL1    C9 3441   3.127   5.909   7.063  0.4411 -1.0227  0.0488
   47CHL1    H9 3442   3.029   5.960   7.064  0.3379 -1.0823 -1.9054
   47CHL1   C10 3443   3.180   5.920   6.915  0.0372 -0.1067  0.6366
   47CHL1   C19 3444   3.306   5.828   6.882 -0.1740 -0.5610 -0.1940
   47CHL1  H19A 3445   3.283   5.722   6.906 -2.4853  0.0048  0.2923
   47CHL1  H19B 3446   3.319   5.818   6.772 -0.8089 -2.5857 -0.1211
   47CHL1  H19C 3447   3.401   5.855   6.934  1.1590 -2.0591 -1.7005
   47CHL1    C1 3448   3.065   5.882   6.820  0.3018  0.3426  0.2857
   47CHL1   H1A 3449   3.049   5.772   6.824  1.6216  0.1151 -0.1039
   47CHL1   H1B 3450   2.970   5.934   6.845 -0.5904 -1.2312  0.2517
   47CHL1    C2 3451   3.089   5.917   6.669 -0.3647  0.3158  0.1799
   47CHL1   H2A 3452   2.995   5.901   6.611 -0.8404  2.2553  0.3425
   47CHL1   H2B 3453   3.170   5.863   6.616 -1.7966  1.2233 -3.1951
   47CHL1   C20 3454   3.152   5.711   7.588  0.2165 -0.6074  0.1512
   47CHL1   H20 3455   3.249   5.660   7.574  0.0991 -1.3491  1.8327
   47CHL1   C21 3456   3.038   5.612   7.566 -0.2603  0.4517 -0.1524
   47CHL1  H21A 3457   2.940   5.648   7.604  0.0983  0.6563  0.5981
   47CHL1  H21B 3458   3.056   5.518   7.622 -0.8745 -0.6369 -1.7236
   47CHL1  H21C 3459   3.046   5.574   7.462 -1.7444  0.0973 -0.1484
   47CHL1   C22 3460   3.165   5.745   7.740 -0.0482 -0.4301  0.3863
   47CHL1  H22A 3461   3.258   5.805   7.750 -1.3879  2.0939 -1.0886
   47CHL1  H22B 3462   3.083   5.818   7.759  0.4384 -0.0218  0.9715
   47CHL1   C23 3463   3.162   5.630   7.832  0.5781 -0.1676  0.1804
   47CHL1  H23A 3464   3.056   5.602   7.849  0.7094 -0.0379  1.3428
   47CHL1  H23B 3465   3.220   5.542   7.796 -0.2716 -1.3353  1.5463
   47CHL1   C24 3466   3.224   5.669   7.965 -0.3764 -0.2027 -0.3816
   47CHL1  H24A 3467   3.326   5.711   7.956 -0.2026 -0.5758 -0.1611
   47CHL1  H24B 3468   3.162   5.749   8.010  0.0169  0.2366 -0.6044
   47CHL1   C25 3469   3.244   5.547   8.046 -0.2484 -0.3855 -0.7137
   47CHL1   H25 3470   3.312   5.480   7.988  0.2529  1.7056 -2.7131
   47CHL1   C26 3471   3.339   5.577   8.167 -0.3473 -0.2255  0.4425
   47CHL1  H26A 3472   3.422   5.632   8.119 -1.6717 -0.6290 -2.5338
   47CHL1  H26B 3473   3.293   5.637   8.248 -0.0557 -1.5682  1.6546
   47CHL1  H26C 3474   3.373   5.482   8.214 -2.3066 -1.0161  0.3707
   47CHL1   C27 3475   3.123   5.471   8.086 -0.9099 -0.3283 -0.2394
   47CHL1  H27A 3476   3.060   5.458   7.995 -1.0376 -2.0337  0.0618
   47CHL1  H27B 3477   3.156   5.375   8.131 -1.1619 -0.0514  0.5542
   47CHL1  H27C 3478   3.066   5.519   8.168  0.2652  1.2101 -0.2623
   48CHL1    C3 3479   0.444   2.265   6.397  0.4114  0.2624  0.5599
   48CHL1    H3 3480   0.336   2.280   6.415  0.3317  1.4741 -0.7726
   48CHL1    O3 3481   0.472   2.274   6.260  0.5200  0.6167  0.1373
   48CHL1   H3' 3482   0.565   2.296   6.266  0.8091 -0.8949  2.0977
   48CHL1    C4 3483   0.503   2.384   6.467 -0.8645 -0.8660  0.1473
   48CHL1   H4A 3484   0.612   2.379   6.442 -0.7648  0.1846  0.3044
   48CHL1   H4B 3485   0.468   2.480   6.423 -0.8985 -1.3809 -0.9721
   48CHL1    C5 3486   0.484   2.374   6.620  0.0587 -0.2459  0.6403
   48CHL1    C6 3487   0.418   2.466   6.681 -1.4749 -0.2052 -0.6321
   48CHL1    H6 3488   0.379   2.546   6.617 -2.2122 -2.0173 -2.5825
   48CHL1    C7 3489   0.386   2.462   6.826 -0.2338  0.0062 -0.0849
   48CHL1   H7A 3490   0.397   2.565   6.865  1.3437  0.1678 -0.8958
   48CHL1   H7B 3491   0.285   2.425   6.853  0.5662 -1.4919  1.0149
   48CHL1    C8 3492   0.487   2.374   6.905  0.0794 -0.0643  0.1925
   48CHL1    H8 3493   0.589   2.417   6.900 -0.2186  0.6333  0.0165
   48CHL1   C14 3494   0.447   2.355   7.050 -0.6185  0.0062 -0.7540
   48CHL1   H14 3495   0.346   2.308   7.053  0.2955 -2.0233  1.2779
   48CHL1   C15 3496   0.431   2.475   7.146 -0.5177  0.3737 -0.2276
   48CHL1  H15A 3497   0.515   2.546   7.133 -2.1454  2.8572  1.8095
   48CHL1  H15B 3498   0.330   2.521   7.131 -0.8159  0.9250  2.7940
   48CHL1   C16 3499   0.451   2.415   7.287 -0.8204 -0.1811  0.1184
   48CHL1  H16A 3500   0.533   2.471   7.336 -1.7152  0.1735  1.2455
   48CHL1  H16B 3501   0.368   2.435   7.358 -0.1705 -1.1529  1.1897
   48CHL1   C17 3502   0.484   2.265   7.273  0.4047  0.6310  0.0950
   48CHL1   H17 3503   0.390   2.208   7.266  1.0054 -0.5717  1.3130
   48CHL1   C13 3504   0.546   2.261   7.124  0.6228 -0.0399 -0.6817
   48CHL1   C18 3505   0.679   2.322   7.140  0.3319 -0.1920 -0.1885
   48CHL1  H18A 3506   0.680   2.424   7.186  2.6310  2.2060 -4.8939
   48CHL1  H18B 3507   0.753   2.253   7.185  0.7262 -0.0914 -0.6806
   48CHL1  H18C 3508   0.728   2.355   7.046 -0.2299  0.5877 -0.2214
   48CHL1   C12 3509   0.542   2.120   7.060 -0.6032 -0.3654 -0.0077
   48CHL1  H12A 3510   0.616   2.061   7.119  0.4408  1.1425  0.2547
   48CHL1  H12B 3511   0.440   2.077   7.070 -0.4233 -0.9695 -0.6343
   48CHL1   C11 3512   0.592   2.139   6.920  0.6687  0.4300  0.6281
   48CHL1  H11A 3513   0.700   2.166   6.921  0.7691  0.0457  1.2418
   48CHL1  H11B 3514   0.588   2.042   6.866 -0.2605 -0.2389  1.8184
   48CHL1    C9 3515   0.503   2.236   6.834  0.0637 -0.2047  0.3796
   48CHL1    H9 3516   0.401   2.192   6.839  0.0137 -0.1341 -0.0492
   48CHL1   C10 3517   0.551   2.248   6.685  0.1519  0.2824  0.5283
   48CHL1   C19 3518   0.705   2.254   6.681  0.4250 -0.3514  0.0068
   48CHL1  H19A 3519   0.731   2.341   6.745 -1.7756  0.5497 -0.2653
   48CHL1  H19B 3520   0.750   2.161   6.723  1.0457  0.7811  1.9783
   48CHL1  H19C 3521   0.741   2.277   6.579 -1.1503 -0.9678 -0.7181
   48CHL1    C1 3522   0.502   2.120   6.608  0.3386 -0.7278 -0.2666
   48CHL1   H1A 3523   0.554   2.037   6.659  1.0289  1.0632  2.1350
   48CHL1   H1B 3524   0.398   2.096   6.639 -0.2928 -0.6589 -2.2006
   48CHL1    C2 3525   0.499   2.133   6.450 -0.7222 -0.4304 -0.1093
   48CHL1   H2A 3526   0.434   2.050   6.415 -0.5081 -0.5087 -0.3246
   48CHL1   H2B 3527   0.601   2.125   6.408 -0.3471  0.6839  0.5456
   48CHL1   C20 3528   0.563   2.212   7.402  0.1548 -0.3432  0.9004
   48CHL1   H20 3529   0.660   2.266   7.409  1.0080 -1.5650 -0.7834
   48CHL1   C21 3530   0.606   2.061   7.397 -0.2353  0.5261  0.8743
   48CHL1  H21A 3531   0.519   1.994   7.382  2.2106 -2.1675 -2.9866
   48CHL1  H21B 3532   0.670   2.027   7.481 -0.3437 -0.7783  0.4507
   48CHL1  H21C 3533   0.670   2.042   7.308 -0.6737 -0.2034  0.7116
   48CHL1   C22 3534   0.484   2.235   7.539 -1.0215  0.2545 -0.1586
   48CHL1  H22A 3535   0.490   2.344   7.561  0.5309  0.2469 -0.4259
   48CHL1  H22B 3536   0.379   2.199   7.531 -0.7361 -0.3042 -1.6706
   48CHL1   C23 3537   0.548   2.175   7.676 -0.7311  0.0188 -0.0492
   48CHL1  H23A 3538   0.552   2.064   7.670  1.2835  0.0261  0.5475
   48CHL1  H23B 3539   0.653   2.212   7.679 -2.0192  4.1895  1.2514
   48CHL1   C24 3540   0.465   2.223   7.799  0.0763 -0.3176  0.1957
   48CHL1  H24A 3541   0.460   2.334   7.806 -0.9377 -0.4136  1.3814
   48CHL1  H24B 3542   0.361   2.187   7.784 -0.4592  0.2067  2.3713
   48CHL1   C25 3543   0.523   2.173   7.930  0.1143  1.0181 -0.1168
   48CHL1   H25 3544   0.633   2.186   7.936  0.3795  0.4548 -2.7108
   48CHL1   C26 3545   0.469   2.239   8.053  1.0664  0.5944 -0.2974
   48CHL1  H26A 3546   0.512   2.340   8.066 -0.0759  1.2456 -1.3589
   48CHL1  H26B 3547   0.359   2.253   8.055  1.0429  0.3125  0.7789
   48CHL1  H26C 3548   0.491   2.172   8.139  0.7721 -0.3106 -0.9083
   48CHL1   C27 3549   0.490   2.020   7.941 -0.0503 -0.7945 -0.0448
   48CHL1  H27A 3550   0.566   1.963   7.884  0.9654 -1.5804  1.9868
   48CHL1  H27B 3551   0.476   1.977   8.043  0.1554 -0.7724 -0.0078
   48CHL1  H27C 3552   0.393   2.004   7.889  0.6466 -1.5151 -1.1521
   49CHL1    C3 3553   0.503   4.083   6.953 -0.3106  0.4501  0.4663
   49CHL1    H3 3554   0.440   4.161   7.001 -1.1300 -0.5188  1.0209
   49CHL1    O3 3555   0.476   4.086   6.809  0.1111 -0.0415  0.3691
   49CHL1   H3' 3556   0.477   3.993   6.787 -0.6017 -0.4593  1.9254
   49CHL1    C4 3557   0.657   4.106   6.967  0.2320 -0.3385  0.3273
   49CHL1   H4A 3558   0.709   4.029   6.906  0.5216  1.4968 -1.8813
   49CHL1   H4B 3559   0.696   4.198   6.919  0.5588 -0.4132  0.4436
   49CHL1    C5 3560   0.695   4.103   7.110 -0.4304 -0.4667 -0.9703
   49CHL1    C6 3561   0.753   4.208   7.167 -0.4298  0.2049 -0.3690
   49CHL1    H6 3562   0.790   4.288   7.102  0.4840  1.3752  1.5121
   49CHL1    C7 3563   0.800   4.221   7.312  0.3283 -0.1765  0.2016
   49CHL1   H7A 3564   0.896   4.274   7.329 -0.4805  1.4030  0.0278
   49CHL1   H7B 3565   0.727   4.289   7.361  1.3188  1.6798 -0.7848
   49CHL1    C8 3566   0.793   4.089   7.390  0.4085  0.6796 -0.4000
   49CHL1    H8 3567   0.881   4.027   7.362  0.1473 -0.5782  1.3950
   49CHL1   C14 3568   0.796   4.110   7.540 -0.0332 -1.0703 -0.1414
   49CHL1   H14 3569   0.704   4.170   7.556  1.4452  1.7886 -1.5277
   49CHL1   C15 3570   0.907   4.193   7.597  0.1701  0.1206  0.1872
   49CHL1  H15A 3571   1.001   4.159   7.548  1.3226  0.1582  2.2626
   49CHL1  H15B 3572   0.887   4.298   7.564 -0.1342 -0.1682 -0.5619
   49CHL1   C16 3573   0.917   4.168   7.743 -0.4893 -0.6353  0.4070
   49CHL1  H16A 3574   1.018   4.129   7.767  0.4745  0.8121 -1.0873
   49CHL1  H16B 3575   0.897   4.263   7.799 -3.0835 -0.8579 -0.0062
   49CHL1   C17 3576   0.810   4.052   7.765  0.1585  0.1293 -0.2394
   49CHL1   H17 3577   0.713   4.102   7.786  0.7359  0.2169  2.6645
   49CHL1   C13 3578   0.791   3.982   7.625 -0.3388 -0.6680  0.0463
   49CHL1   C18 3579   0.913   3.900   7.589 -0.0251 -0.1774  0.0637
   49CHL1  H18A 3580   0.905   3.812   7.657 -1.9365 -1.1552 -1.3351
   49CHL1  H18B 3581   0.928   3.850   7.491  0.5080 -1.0115  0.5484
   49CHL1  H18C 3582   1.011   3.946   7.614  0.0845 -0.2915 -0.1527
   49CHL1   C12 3583   0.659   3.915   7.595  0.0251 -0.2915 -0.7738
   49CHL1  H12A 3584   0.646   3.817   7.647  0.9074 -0.6847 -1.2789
   49CHL1  H12B 3585   0.574   3.966   7.645  0.8422 -0.3831  0.7906
   49CHL1   C11 3586   0.630   3.892   7.446 -0.7370  0.0758 -0.9692
   49CHL1  H11A 3587   0.694   3.806   7.414 -0.4747  0.3267 -1.1261
   49CHL1  H11B 3588   0.524   3.859   7.438  0.0079 -3.6536  1.5623
   49CHL1    C9 3589   0.667   4.011   7.353  0.0643 -0.5832  0.3395
   49CHL1    H9 3590   0.586   4.082   7.379 -0.8958 -1.9147  1.0884
   49CHL1   C10 3591   0.646   3.987   7.197 -0.6083  0.1197 -0.4005
   49CHL1   C19 3592   0.745   3.872   7.160 -0.0874  0.3850 -0.0765
   49CHL1  H19A 3593   0.852   3.892   7.182 -0.8378  2.4860  2.0841
   49CHL1  H19B 3594   0.718   3.785   7.224  0.7725  0.7336  0.7911
   49CHL1  H19C 3595   0.746   3.829   7.057 -0.2661 -0.6708  0.3515
   49CHL1    C1 3596   0.494   3.952   7.172 -0.2308 -0.0146  0.0818
   49CHL1   H1A 3597   0.465   3.858   7.223  0.0277  0.0005  0.2603
   49CHL1   H1B 3598   0.433   4.034   7.214  0.0898  1.3032 -1.8475
   49CHL1    C2 3599   0.464   3.948   7.015  0.5088  0.5046 -1.0035
   49CHL1   H2A 3600   0.356   3.929   7.003  0.2015  1.1339  0.5530
   49CHL1   H2B 3601   0.525   3.867   6.968  1.2589  1.0738 -1.0279
   49CHL1   C20 3602   0.843   3.976   7.896  0.4466 -0.0051  0.1652
   49CHL1   H20 3603   0.941   3.929   7.871  0.5033 -0.0539  0.4709
   49CHL1   C21 3604   0.747   3.858   7.922  0.0864  0.1300 -0.1079
   49CHL1  H21A 3605   0.774   3.808   8.018  2.1928  0.3795 -0.5282
   49CHL1  H21B 3606   0.747   3.782   7.841 -0.7779 -0.5110  0.4719
   49CHL1  H21C 3607   0.641   3.884   7.946  0.4579  1.1144  0.5460
   49CHL1   C22 3608   0.857   4.060   8.023 -0.3479  0.1299 -0.0086
   49CHL1  H22A 3609   0.919   4.151   8.008  0.4461 -0.2236  1.0506
   49CHL1  H22B 3610   0.754   4.094   8.050 -0.3962 -1.0948  1.4222
   49CHL1   C23 3611   0.931   3.986   8.144 -0.0962 -0.0671  0.2357
   49CHL1  H23A 3612   0.871   3.898   8.172 -1.1420 -0.8267 -3.7453
   49CHL1  H23B 3613   1.030   3.950   8.108 -0.8519 -1.9476 -0.0733
   49CHL1   C24 3614   0.922   4.079   8.268  0.4989  0.5840 -0.3401
   49CHL1  H24A 3615   0.959   4.182   8.244 -1.3408  1.4839  0.4866
   49CHL1  H24B 3616   0.815   4.095   8.291  0.5059 -0.4785  0.5086
   49CHL1   C25 3617   0.973   4.009   8.391 -0.1094  0.1548  1.2173
   49CHL1   H25 3618   0.907   3.920   8.404 -2.0957  1.0644 -1.8033
   49CHL1   C26 3619   1.120   3.973   8.369  0.5819  0.0973  0.7237
   49CHL1  H26A 3620   1.180   4.056   8.325 -1.0326 -0.1117 -2.0414
   49CHL1  H26B 3621   1.180   3.936   8.455  2.8580 -1.3861 -1.3637
   49CHL1  H26C 3622   1.127   3.896   8.290  2.7492 -0.7300  1.6195
   49CHL1   C27 3623   0.964   4.099   8.516  0.4282  0.1410  0.1195
   49CHL1  H27A 3624   0.887   4.067   8.589  0.0160  1.7635  0.4273
   49CHL1  H27B 3625   1.059   4.081   8.571 -0.0396  0.2723  0.9921
   49CHL1  H27C 3626   0.948   4.207   8.497  1.5762  0.3464  0.2201
   50CHL1    C3 3627   1.920   4.726   6.907 -0.4372  0.1764 -0.1431
   50CHL1    H3 3628   1.809   4.723   6.898 -0.5295  2.9665 -0.9987
   50CHL1    O3 3629   1.965   4.711   6.775  0.0836 -0.2833 -0.1785
   50CHL1   H3' 3630   1.958   4.617   6.760  3.4910 -0.7559  0.3994
   50CHL1    C4 3631   1.969   4.858   6.967 -0.1044 -0.3449 -0.8765
   50CHL1   H4A 3632   2.080   4.858   6.965 -0.0048 -0.0170  1.5816
   50CHL1   H4B 3633   1.939   4.951   6.913  2.0760  0.6163 -0.5177
   50CHL1    C5 3634   1.926   4.851   7.111 -0.5312 -0.5668 -0.0512
   50CHL1    C6 3635   1.864   4.949   7.174 -0.3429 -0.1842  0.3801
   50CHL1    H6 3636   1.833   5.034   7.111  1.0929 -0.2016 -0.4038
   50CHL1    C7 3637   1.836   4.964   7.318 -0.7944  0.2732 -0.4443
   50CHL1   H7A 3638   1.854   5.068   7.353  1.6908  0.1810 -1.3115
   50CHL1   H7B 3639   1.735   4.927   7.346 -0.8551  0.2386 -0.7077
   50CHL1    C8 3640   1.944   4.890   7.401 -0.1942  0.2241 -0.2694
   50CHL1    H8 3641   2.039   4.945   7.383  0.8455 -1.7992 -1.2453
   50CHL1   C14 3642   1.913   4.892   7.549 -0.3998 -0.2575 -0.2226
   50CHL1   H14 3643   1.810   4.849   7.551 -0.0909 -1.0332 -0.5820
   50CHL1   C15 3644   1.911   5.028   7.611 -0.1613  0.3044 -0.4427
   50CHL1  H15A 3645   1.996   5.088   7.574 -1.1050  2.4208  0.6440
   50CHL1  H15B 3646   1.811   5.071   7.587 -1.5972 -2.3172  0.3160
   50CHL1   C16 3647   1.919   5.000   7.766  0.3025  0.7392 -0.0318
   50CHL1  H16A 3648   1.997   5.063   7.813  1.9445  0.2550 -1.9603
   50CHL1  H16B 3649   1.817   5.005   7.810  0.5506  2.2130  0.4178
   50CHL1   C17 3650   1.957   4.842   7.771 -0.1647 -0.5508  0.3923
   50CHL1   H17 3651   1.860   4.788   7.785 -1.5023  0.9739 -2.3114
   50CHL1   C13 3652   2.003   4.801   7.634 -0.1207 -0.0054  0.3308
   50CHL1   C18 3653   2.148   4.842   7.610  0.7225 -0.0442 -0.3017
   50CHL1  H18A 3654   2.199   4.812   7.516 -0.6138 -0.5127 -0.8948
   50CHL1  H18B 3655   2.153   4.953   7.618 -0.2759  0.1424 -1.8635
   50CHL1  H18C 3656   2.215   4.798   7.687  1.7442  0.6812 -0.7403
   50CHL1   C12 3657   1.983   4.656   7.586  0.1546  0.1793  0.6923
   50CHL1  H12A 3658   2.031   4.579   7.651  1.5306  2.2862  2.3467
   50CHL1  H12B 3659   1.874   4.641   7.602 -0.1893  2.5166  0.9026
   50CHL1   C11 3660   2.026   4.639   7.441  0.8532  0.1574 -0.1557
   50CHL1  H11A 3661   2.136   4.649   7.430  0.7893  1.1098  0.0023
   50CHL1  H11B 3662   1.996   4.539   7.401  2.8971 -0.5145 -0.1016
   50CHL1    C9 3663   1.955   4.740   7.349  0.0044 -0.5724  0.4594
   50CHL1    H9 3664   1.849   4.706   7.342  0.3983 -2.1107  1.4938
   50CHL1   C10 3665   1.993   4.738   7.196  0.1269  0.3655 -0.8296
   50CHL1   C19 3666   2.146   4.754   7.192 -0.7240 -0.2243 -0.1038
   50CHL1  H19A 3667   2.176   4.852   7.237 -3.2987  0.1324  1.0232
   50CHL1  H19B 3668   2.198   4.673   7.246 -0.5621 -0.1613 -0.1660
   50CHL1  H19C 3669   2.187   4.756   7.089  0.2074 -0.0323  0.2568
   50CHL1    C1 3670   1.949   4.600   7.136  0.6963 -0.3090  0.2494
   50CHL1   H1A 3671   2.016   4.519   7.173  0.9354 -0.2029  0.0499
   50CHL1   H1B 3672   1.840   4.582   7.152 -0.6972  3.1660 -3.7516
   50CHL1    C2 3673   1.976   4.601   6.984 -0.4206  0.6755  0.2628
   50CHL1   H2A 3674   1.929   4.512   6.937 -0.2275  0.6568  0.1048
   50CHL1   H2B 3675   2.085   4.595   6.965 -0.4837 -1.0975  0.2766
   50CHL1   C20 3676   2.037   4.817   7.907 -0.4368 -0.0506 -0.1305
   50CHL1   H20 3677   2.135   4.868   7.921 -0.5976 -0.1958  1.7557
   50CHL1   C21 3678   2.066   4.668   7.921  0.3921  0.0352  0.1333
   50CHL1  H21A 3679   1.973   4.609   7.931 -0.0667  0.8341  0.7122
   50CHL1  H21B 3680   2.128   4.647   8.011 -1.0848 -0.3624  1.0839
   50CHL1  H21C 3681   2.121   4.631   7.832 -1.3204  1.7904 -1.7396
   50CHL1   C22 3682   1.953   4.871   8.030  0.3519  0.0716 -0.5670
   50CHL1  H22A 3683   1.950   4.982   8.023  1.0720  0.1135 -0.3068
   50CHL1  H22B 3684   1.852   4.824   8.021  1.9677 -4.0841  0.8314
   50CHL1   C23 3685   2.004   4.838   8.171 -0.2494 -0.0405  0.3178
   50CHL1  H23A 3686   2.017   4.728   8.174  2.7022  0.1114 -2.0383
   50CHL1  H23B 3687   2.108   4.877   8.174  0.0897 -0.9577  0.7146
   50CHL1   C24 3688   1.917   4.895   8.290 -0.2219  0.1198  0.1603
   50CHL1  H24A 3689   1.923   5.005   8.300 -0.2546  0.1334  0.0349
   50CHL1  H24B 3690   1.811   4.872   8.266 -0.5282  0.2523  1.3291
   50CHL1   C25 3691   1.945   4.824   8.425 -1.1614  0.4209 -0.4797
   50CHL1   H25 3692   1.947   4.714   8.409  1.3794 -0.2091  3.0336
   50CHL1   C26 3693   2.089   4.861   8.470 -0.3150  0.4040  0.7152
   50CHL1  H26A 3694   2.115   4.799   8.559  0.9907  1.2647  0.9466
   50CHL1  H26B 3695   2.168   4.844   8.395 -0.3757  0.2338  0.6900
   50CHL1  H26C 3696   2.085   4.967   8.504 -1.3337  1.2874 -1.8870
   50CHL1   C27 3697   1.846   4.870   8.532  0.0378 -0.2600 -0.3284
   50CHL1  H27A 3698   1.745   4.853   8.488 -0.5791  1.4722  0.3436
   50CHL1  H27B 3699   1.859   4.821   8.631 -1.0551 -0.8283 -0.4448
   50CHL1  H27C 3700   1.868   4.977   8.550 -1.4999 -0.1851  1.5270
   51CHL1    C3 3701   0.993   4.624   6.867  0.4086 -0.3414 -0.3632
   51CHL1    H3 3702   1.091   4.677   6.869  0.7242 -0.6532 -3.3525
   51CHL1    O3 3703   0.958   4.581   6.743 -0.7392  0.2945  0.0096
   51CHL1   H3' 3704   0.867   4.550   6.745  0.0301 -2.0730  0.8936
   51CHL1    C4 3705   0.992   4.500   6.959 -0.7685 -0.2787 -0.7331
   51CHL1   H4A 3706   0.898   4.443   6.944  0.0644 -2.3818  1.4614
   51CHL1   H4B 3707   1.072   4.428   6.928 -0.6802 -0.5621  0.1273
   51CHL1    C5 3708   1.015   4.530   7.110  0.1097 -0.5619  0.4667
   51CHL1    C6 3709   1.122   4.481   7.177  0.7645 -0.7075 -0.6602
   51CHL1    H6 3710   1.181   4.408   7.119 -0.9944  0.2509 -3.8603
   51CHL1    C7 3711   1.147   4.514   7.324 -0.2131  0.1467 -0.0596
   51CHL1   H7A 3712   1.180   4.424   7.380 -0.5186  0.2424  0.2726
   51CHL1   H7B 3713   1.230   4.588   7.334 -1.8354  2.1944 -1.0235
   51CHL1    C8 3714   1.029   4.580   7.397 -0.3006 -0.9447 -0.1328
   51CHL1    H8 3715   0.947   4.509   7.422 -0.1947  0.1387  4.0742
   51CHL1   C14 3716   1.075   4.651   7.533 -0.0065  0.1472 -0.0926
   51CHL1   H14 3717   1.164   4.709   7.500  1.5838 -1.1615  1.6765
   51CHL1   C15 3718   1.130   4.558   7.645 -0.5457 -0.1085 -0.0004
   51CHL1  H15A 3719   1.052   4.482   7.664 -2.4665  1.4459 -1.2701
   51CHL1  H15B 3720   1.228   4.512   7.621  0.4305  0.7345  2.1142
   51CHL1   C16 3721   1.149   4.663   7.755 -0.6842  0.0358 -0.4810
   51CHL1  H16A 3722   1.120   4.614   7.851 -1.0717  0.4211 -0.3937
   51CHL1  H16B 3723   1.253   4.702   7.757 -0.0713 -1.2973 -2.8720
   51CHL1   C17 3724   1.058   4.792   7.730 -0.6690 -0.7384  0.3343
   51CHL1   H17 3725   1.117   4.881   7.700 -1.8415 -0.5316 -1.4885
   51CHL1   C13 3726   0.981   4.749   7.605  0.4587 -0.1535  0.0832
   51CHL1   C18 3727   0.849   4.674   7.644 -1.2349 -0.0232 -0.7700
   51CHL1  H18A 3728   0.781   4.747   7.693 -2.0490 -0.5476 -1.0981
   51CHL1  H18B 3729   0.806   4.622   7.556 -2.4398 -0.2907 -0.0547
   51CHL1  H18C 3730   0.862   4.590   7.715 -0.6955  1.7015  1.2993
   51CHL1   C12 3731   0.936   4.862   7.511 -0.0654  0.5601 -0.0231
   51CHL1  H12A 3732   0.853   4.914   7.562 -1.0195 -2.4042  1.7167
   51CHL1  H12B 3733   1.015   4.940   7.508 -0.3966  0.8722 -1.4286
   51CHL1   C11 3734   0.892   4.802   7.372  0.6505 -0.2036 -0.0582
   51CHL1  H11A 3735   0.799   4.745   7.397  0.2894  1.0842  1.7135
   51CHL1  H11B 3736   0.869   4.888   7.307  3.0754  0.3865 -0.2169
   51CHL1    C9 3737   0.980   4.698   7.305  0.1549 -0.1606 -0.7942
   51CHL1    H9 3738   1.069   4.759   7.277 -0.0573  0.6401  0.1936
   51CHL1   C10 3739   0.923   4.638   7.171  0.0322  0.0882  0.0822
   51CHL1   C19 3740   0.785   4.568   7.195 -0.1992  0.9524 -0.0993
   51CHL1  H19A 3741   0.721   4.638   7.255  0.4433  0.6459  0.9732
   51CHL1  H19B 3742   0.725   4.532   7.109 -0.6775  1.5508 -0.0237
   51CHL1  H19C 3743   0.806   4.481   7.260 -2.1645  0.0995 -0.5386
   51CHL1    C1 3744   0.918   4.757   7.068 -0.0034  0.3798 -0.0237
   51CHL1   H1A 3745   0.834   4.823   7.098  1.7756  2.4262  0.7183
   51CHL1   H1B 3746   1.019   4.804   7.066  0.0066  0.3500 -0.7663
   51CHL1    C2 3747   0.886   4.723   6.911  0.1416  0.3634 -1.0241
   51CHL1   H2A 3748   0.875   4.809   6.842  1.9912 -0.6973 -2.7393
   51CHL1   H2B 3749   0.785   4.678   6.924  0.3824 -0.8838 -3.0816
   51CHL1   C20 3750   0.984   4.840   7.861 -0.2285  0.5701 -0.1402
   51CHL1   H20 3751   0.913   4.760   7.889 -1.6334  0.5942 -3.2020
   51CHL1   C21 3752   0.905   4.970   7.830  0.1852 -0.3015  0.0801
   51CHL1  H21A 3753   0.962   5.048   7.775 -1.8538  1.0812 -0.1577
   51CHL1  H21B 3754   0.870   5.026   7.919 -0.3082  1.7004 -1.3168
   51CHL1  H21C 3755   0.824   4.939   7.760  0.6967  0.2396 -0.7723
   51CHL1   C22 3756   1.086   4.872   7.978 -0.3176 -0.3740  0.6215
   51CHL1  H22A 3757   1.137   4.780   8.013  3.2985  2.1702  2.7687
   51CHL1  H22B 3758   1.168   4.942   7.951 -2.1304  2.1166  1.1288
   51CHL1   C23 3759   1.025   4.928   8.113 -0.2682 -0.3331  0.7869
   51CHL1  H23A 3760   1.108   4.920   8.186  0.7006  0.9996 -0.1406
   51CHL1  H23B 3761   0.985   5.031   8.103  1.3355  0.0965 -2.2631
   51CHL1   C24 3762   0.918   4.836   8.168  0.6201  0.1628  0.6494
   51CHL1  H24A 3763   0.829   4.833   8.101  0.3236 -1.2821  1.0594
   51CHL1  H24B 3764   0.972   4.739   8.166 -0.6416 -0.5606 -0.2422
   51CHL1   C25 3765   0.868   4.874   8.310  0.4008 -0.6581 -0.4123
   51CHL1   H25 3766   0.954   4.907   8.372 -0.7948  1.0130  0.4541
   51CHL1   C26 3767   0.776   5.002   8.305 -0.2454 -0.7834  0.1206
   51CHL1  H26A 3768   0.687   4.997   8.239 -0.0787 -2.4189 -0.0370
   51CHL1  H26B 3769   0.735   5.027   8.406  2.8931  1.3831  0.9947
   51CHL1  H26C 3770   0.840   5.087   8.277 -0.3027 -0.5010  0.8192
   51CHL1   C27 3771   0.803   4.753   8.373 -0.1679  0.8796  0.4320
   51CHL1  H27A 3772   0.781   4.756   8.482 -0.2978 -2.0648  0.5731
   51CHL1  H27B 3773   0.708   4.726   8.323 -0.2991  0.6512  0.7983
   51CHL1  H27C 3774   0.874   4.669   8.358 -0.2812  0.8033  0.3266
   52CHL1    C3 3775   4.046   3.767   6.977 -0.1785  0.0242  0.3477
   52CHL1    H3 3776   4.031   3.668   7.024  0.3368 -0.6962 -0.9637
   52CHL1    O3 3777   3.988   3.755   6.852  0.4716  0.3315 -0.1750
   52CHL1   H3' 3778   4.004   3.841   6.812  1.8150  0.2842  0.2249
   52CHL1    C4 3779   3.969   3.872   7.061 -0.2138  0.4821 -0.1132
   52CHL1   H4A 3780   3.977   3.973   7.014  0.7923 -0.2500 -1.5887
   52CHL1   H4B 3781   3.863   3.840   7.055  0.4620 -1.8297 -0.7483
   52CHL1    C5 3782   4.027   3.895   7.199  0.3463 -0.4773  0.6737
   52CHL1    C6 3783   3.951   3.872   7.305  0.2258  0.3434  0.4243
   52CHL1    H6 3784   3.846   3.837   7.302 -0.0554  1.1853 -1.6757
   52CHL1    C7 3785   3.996   3.905   7.440 -0.3201  0.4031 -0.3387
   52CHL1   H7A 3786   3.915   3.954   7.498 -1.1781 -1.7716  0.4027
   52CHL1   H7B 3787   4.017   3.809   7.493 -3.4650 -0.4009 -0.3403
   52CHL1    C8 3788   4.123   3.999   7.441 -0.1273  0.1598  0.0518
   52CHL1    H8 3789   4.081   4.096   7.407  0.0167  0.4091  0.5722
   52CHL1   C14 3790   4.180   4.004   7.580 -0.3086  0.3567 -0.0008
   52CHL1   H14 3791   4.223   3.904   7.605  1.9301  0.9275 -1.3255
   52CHL1   C15 3792   4.089   4.033   7.696  0.0434  0.0490 -0.2991
   52CHL1  H15A 3793   4.013   4.105   7.658  0.4043  1.4603  1.5204
   52CHL1  H15B 3794   4.026   3.949   7.734 -0.8997  1.1790  0.7467
   52CHL1   C16 3795   4.163   4.100   7.807 -0.2680  0.0483 -0.7209
   52CHL1  H16A 3796   4.126   4.205   7.810 -0.1479  0.2327 -3.2692
   52CHL1  H16B 3797   4.152   4.041   7.901  0.5037 -0.7578 -1.1170
   52CHL1   C17 3798   4.310   4.099   7.756 -0.0674  0.5202 -0.6235
   52CHL1   H17 3799   4.347   3.996   7.778 -0.7513  0.6518  1.3497
   52CHL1   C13 3800   4.297   4.102   7.600 -0.1469  0.1049  0.1162
   52CHL1   C18 3801   4.261   4.252   7.567 -0.1444  0.0887 -0.4420
   52CHL1  H18A 3802   4.188   4.294   7.639  0.1808 -0.0908 -0.0055
   52CHL1  H18B 3803   4.353   4.314   7.569 -1.4575  2.1898 -1.2990
   52CHL1  H18C 3804   4.214   4.261   7.467 -0.7151  0.7841 -0.1158
   52CHL1   C12 3805   4.408   4.046   7.509 -0.3400 -0.2310 -0.4299
   52CHL1  H12A 3806   4.500   4.108   7.506 -0.4658 -0.0080  0.1905
   52CHL1  H12B 3807   4.425   3.945   7.552 -1.1505  0.4938  1.7360
   52CHL1   C11 3808   4.363   4.026   7.358 -0.1275 -0.0670  0.6830
   52CHL1  H11A 3809   4.356   4.130   7.322  4.2914 -0.0508 -0.7653
   52CHL1  H11B 3810   4.441   3.975   7.296 -0.2210  2.1091 -1.3567
   52CHL1    C9 3811   4.233   3.949   7.340 -0.3160 -0.1331  0.3316
   52CHL1    H9 3812   4.251   3.843   7.367 -3.3829 -0.3125  2.1154
   52CHL1   C10 3813   4.174   3.945   7.193 -0.3209  0.1081  0.9063
   52CHL1   C19 3814   4.167   4.092   7.136 -0.4093 -0.5038  0.0432
   52CHL1  H19A 3815   4.137   4.090   7.030  0.2719  1.3329 -0.2130
   52CHL1  H19B 3816   4.096   4.153   7.196 -1.9343 -0.5933 -1.5981
   52CHL1  H19C 3817   4.269   4.134   7.123 -0.7353 -0.5298 -3.3054
   52CHL1    C1 3818   4.253   3.847   7.106  0.3643  0.1486  1.1669
   52CHL1   H1A 3819   4.358   3.885   7.101  0.8025 -1.1587 -0.1396
   52CHL1   H1B 3820   4.256   3.748   7.157  1.2838  0.5338  1.9127
   52CHL1    C2 3821   4.186   3.819   6.967 -0.1033 -0.1875 -0.1479
   52CHL1   H2A 3822   4.258   3.748   6.922  0.1756  0.0989 -0.1566
   52CHL1   H2B 3823   4.186   3.915   6.912  0.3300 -1.3305 -2.2346
   52CHL1   C20 3824   4.393   4.204   7.835 -0.1265  0.8280  0.8450
   52CHL1   H20 3825   4.358   4.306   7.808  1.3048  0.6578 -1.9279
   52CHL1   C21 3826   4.541   4.193   7.790 -0.7348  0.1364  0.3121
   52CHL1  H21A 3827   4.597   4.259   7.860 -0.8313 -0.6088  1.1046
   52CHL1  H21B 3828   4.562   4.236   7.690 -0.5723  0.9524  0.6855
   52CHL1  H21C 3829   4.586   4.092   7.798  0.0528  0.3338 -1.3339
   52CHL1   C22 3830   4.388   4.192   7.989  0.1591  0.1096  0.4405
   52CHL1  H22A 3831   4.405   4.085   8.013  1.2993  0.3041  0.5728
   52CHL1  H22B 3832   4.486   4.229   8.027 -1.1780  2.1542  2.1076
   52CHL1   C23 3833   4.281   4.264   8.066 -0.1309  0.1921 -0.0260
   52CHL1  H23A 3834   4.275   4.368   8.030  0.1466  0.3291  0.3147
   52CHL1  H23B 3835   4.182   4.220   8.042 -0.0406  0.0777 -0.1882
   52CHL1   C24 3836   4.317   4.244   8.212 -0.1706 -0.0789 -0.0025
   52CHL1  H24A 3837   4.341   4.136   8.218 -1.8009 -0.5489 -1.2446
   52CHL1  H24B 3838   4.398   4.305   8.258 -1.6758  2.3959 -0.4361
   52CHL1   C25 3839   4.195   4.261   8.303  0.3935  0.1951  0.0808
   52CHL1   H25 3840   4.116   4.199   8.255  2.0726 -1.7314 -0.3200
   52CHL1   C26 3841   4.220   4.226   8.445 -0.3930  0.4087 -0.5255
   52CHL1  H26A 3842   4.241   4.117   8.448  0.8067  0.6538  0.5785
   52CHL1  H26B 3843   4.307   4.277   8.489  0.0650  0.5440 -1.5611
   52CHL1  H26C 3844   4.124   4.259   8.491 -0.6285  0.5385 -1.0987
   52CHL1   C27 3845   4.138   4.409   8.295 -0.2353  0.0572  0.0475
   52CHL1  H27A 3846   4.141   4.454   8.193 -1.1542 -0.0655 -0.0455
   52CHL1  H27B 3847   4.035   4.399   8.336  0.1182 -1.5768  0.6020
   52CHL1  H27C 3848   4.197   4.475   8.362  0.1023 -0.5105  0.3135
   53CHL1    C3 3849   5.023   5.100   7.148  0.0903 -0.1233 -0.3885
   53CHL1    H3 3850   4.995   5.206   7.166  1.9572 -0.0582  2.8861
   53CHL1    O3 3851   4.973   5.060   7.024 -0.0242  0.5964 -0.1125
   53CHL1   H3' 3852   4.989   4.965   7.029  0.5972  0.5276 -2.5439
   53CHL1    C4 3853   5.176   5.087   7.142  0.7923 -0.1171  0.0799
   53CHL1   H4A 3854   5.183   4.977   7.126  1.3858 -0.3175  1.5496
   53CHL1   H4B 3855   5.213   5.149   7.057  0.1419  0.3797  0.1532
   53CHL1    C5 3856   5.246   5.116   7.273  0.1658  0.2425  0.3719
   53CHL1    C6 3857   5.328   5.220   7.285 -0.1266 -0.4035 -0.5562
   53CHL1    H6 3858   5.340   5.287   7.199  0.9538  0.0476 -0.0739
   53CHL1    C7 3859   5.398   5.249   7.415  0.2141 -0.3816  0.2358
   53CHL1   H7A 3860   5.508   5.258   7.397  0.5420 -1.9170  1.2609
   53CHL1   H7B 3861   5.357   5.345   7.453  1.4660  0.5301 -0.6318
   53CHL1    C8 3862   5.392   5.135   7.522  0.0357  0.1089 -0.6566
   53CHL1    H8 3863   5.458   5.051   7.490  0.2649  0.7490 -1.9587
   53CHL1   C14 3864   5.442   5.178   7.659 -0.3639  0.8287  0.1853
   53CHL1   H14 3865   5.362   5.251   7.682 -2.2944 -0.6247 -1.5865
   53CHL1   C15 3866   5.584   5.232   7.672 -0.3276 -0.1914  0.8300
   53CHL1  H15A 3867   5.655   5.163   7.621 -1.0933 -1.3202  1.2566
   53CHL1  H15B 3868   5.591   5.329   7.618  0.3652 -1.1210 -0.8346
   53CHL1   C16 3869   5.617   5.234   7.824 -0.6953 -0.5792  0.1911
   53CHL1  H16A 3870   5.717   5.187   7.838  0.2434  1.1736 -0.2682
   53CHL1  H16B 3871   5.625   5.337   7.867 -3.4220  0.3159 -1.2490
   53CHL1   C17 3872   5.500   5.156   7.891 -0.8151 -0.5261  0.4233
   53CHL1   H17 3873   5.422   5.230   7.922 -0.2170 -0.0030  0.6894
   53CHL1   C13 3874   5.434   5.076   7.768 -0.1662  0.0712 -0.1933
   53CHL1   C18 3875   5.524   4.949   7.752  0.6416 -0.1745  0.1161
   53CHL1  H18A 3876   5.510   4.876   7.835  0.7048 -2.0973 -1.4852
   53CHL1  H18B 3877   5.498   4.899   7.656 -0.1172  0.4984 -0.0409
   53CHL1  H18C 3878   5.631   4.979   7.741  0.4157  0.5894 -0.0626
   53CHL1   C12 3879   5.288   5.033   7.783  0.1439 -0.3826  0.0994
   53CHL1  H12A 3880   5.279   4.962   7.868 -0.5395 -0.1201  0.2510
   53CHL1  H12B 3881   5.223   5.119   7.810 -0.7506 -0.9601 -0.1705
   53CHL1   C11 3882   5.231   4.979   7.649  0.1057 -0.4197  0.8363
   53CHL1  H11A 3883   5.277   4.883   7.618  0.1358 -0.3430  0.6451
   53CHL1  H11B 3884   5.123   4.953   7.652  0.3794 -2.3067 -2.2447
   53CHL1    C9 3885   5.251   5.085   7.535 -0.0973  0.4516  0.2115
   53CHL1    H9 3886   5.182   5.166   7.565  1.0861  0.8875  1.9016
   53CHL1   C10 3887   5.198   5.026   7.396 -0.5976 -0.7289 -0.2697
   53CHL1   C19 3888   5.249   4.889   7.371  0.9813  0.2390  1.0332
   53CHL1  H19A 3889   5.356   4.888   7.398  0.4406  1.4387  3.5021
   53CHL1  H19B 3890   5.190   4.822   7.438 -1.6333  0.4747 -0.8752
   53CHL1  H19C 3891   5.245   4.844   7.270 -1.9590  3.2514 -0.3916
   53CHL1    C1 3892   5.048   5.031   7.399  0.4969  0.7272  0.2700
   53CHL1   H1A 3893   5.008   4.960   7.473 -1.6286  0.8015 -0.7323
   53CHL1   H1B 3894   5.016   5.130   7.437 -1.1996  0.0164  0.7788
   53CHL1    C2 3895   4.968   5.012   7.261 -1.1106  0.1511 -0.3758
   53CHL1   H2A 3896   4.858   5.012   7.274 -1.3457 -2.2344 -1.7635
   53CHL1   H2B 3897   4.987   4.905   7.240  2.2980  0.8379 -1.4195
   53CHL1   C20 3898   5.542   5.088   8.024 -0.4070  0.3524 -0.4241
   53CHL1   H20 3899   5.614   5.009   7.993 -0.4322 -0.5595  1.6334
   53CHL1   C21 3900   5.429   5.019   8.091  0.6319 -0.2251  0.0994
   53CHL1  H21A 3901   5.456   4.991   8.195  2.3096 -3.2739 -1.0379
   53CHL1  H21B 3902   5.398   4.929   8.033 -0.4427  0.8520 -1.0763
   53CHL1  H21C 3903   5.339   5.083   8.103  1.3443  0.3928  2.5893
   53CHL1   C22 3904   5.620   5.176   8.120  0.0937 -0.0214  0.0597
   53CHL1  H22A 3905   5.663   5.122   8.208  2.9303 -0.8648 -1.7070
   53CHL1  H22B 3906   5.706   5.221   8.066  0.1768  0.5876  0.6834
   53CHL1   C23 3907   5.532   5.285   8.187 -0.4293  0.2073  0.8127
   53CHL1  H23A 3908   5.472   5.344   8.114 -0.7295  0.8661  1.5821
   53CHL1  H23B 3909   5.462   5.236   8.258 -0.5029 -2.2513 -0.8167
   53CHL1   C24 3910   5.613   5.379   8.272  0.6446  0.9995 -0.5899
   53CHL1  H24A 3911   5.665   5.334   8.360  2.3222  3.0840 -0.4293
   53CHL1  H24B 3912   5.688   5.431   8.209  1.4836 -1.3680 -1.6983
   53CHL1   C25 3913   5.525   5.498   8.336 -0.0162  0.0091 -0.3687
   53CHL1   H25 3914   5.435   5.444   8.373 -0.3129  1.3177  0.9049
   53CHL1   C26 3915   5.607   5.579   8.444  0.5449 -0.2830 -0.3103
   53CHL1  H26A 3916   5.706   5.613   8.407  0.1702 -1.2110 -2.2874
   53CHL1  H26B 3917   5.555   5.665   8.491  1.0594 -0.1261 -0.0273
   53CHL1  H26C 3918   5.635   5.512   8.528  3.4864  2.0911  0.7842
   53CHL1   C27 3919   5.491   5.587   8.219  0.2975 -0.4161 -0.3482
   53CHL1  H27A 3920   5.412   5.534   8.162 -0.6456  0.9628 -0.3842
   53CHL1  H27B 3921   5.450   5.684   8.256  1.3519 -0.5208  1.1887
   53CHL1  H27C 3922   5.571   5.606   8.145  0.9909  2.1466  0.9186
   54CHL1    C3 3923   5.048   3.835   7.096  0.2841 -0.1395  0.0826
   54CHL1    H3 3924   5.001   3.930   7.128 -0.1767 -0.7471  1.2797
   54CHL1    O3 3925   5.002   3.823   6.964 -0.9179  0.9193 -0.1197
   54CHL1   H3' 3926   5.052   3.753   6.920 -2.0227 -1.4340  2.0601
   54CHL1    C4 3927   5.200   3.851   7.101  0.2435 -0.2528 -0.7240
   54CHL1   H4A 3928   5.245   3.763   7.051 -1.8211 -1.8322  0.0413
   54CHL1   H4B 3929   5.230   3.938   7.040 -3.3090  1.2011 -0.5836
   54CHL1    C5 3930   5.259   3.870   7.241  0.2161 -0.1066 -0.5797
   54CHL1    C6 3931   5.322   3.987   7.275 -0.5885 -0.8339  0.3141
   54CHL1    H6 3932   5.357   4.057   7.198 -3.4260  2.3366  1.6569
   54CHL1    C7 3933   5.372   4.018   7.413  0.6664 -0.9556 -0.0685
   54CHL1   H7A 3934   5.471   4.068   7.417  0.2150 -0.1248  1.8027
   54CHL1   H7B 3935   5.312   4.103   7.452 -0.0536 -1.1975 -0.6253
   54CHL1    C8 3936   5.357   3.897   7.510  0.1954 -0.3445  0.7091
   54CHL1    H8 3937   5.433   3.819   7.487 -1.8731 -2.1868 -0.1534
   54CHL1   C14 3938   5.364   3.948   7.651  0.0767 -0.1447 -0.1226
   54CHL1   H14 3939   5.286   4.022   7.679  0.7775  0.5370  0.0908
   54CHL1   C15 3940   5.484   4.033   7.686 -0.4849 -0.2508  0.1236
   54CHL1  H15A 3941   5.576   3.990   7.643 -1.0188  2.7805 -4.9068
   54CHL1  H15B 3942   5.471   4.135   7.644  0.8381 -0.7195 -1.5445
   54CHL1   C16 3943   5.489   4.034   7.839 -0.1435 -0.3786  0.1865
   54CHL1  H16A 3944   5.588   4.002   7.879  0.6686  2.3785  0.5939
   54CHL1  H16B 3945   5.480   4.134   7.885  2.3390 -0.9399  2.1340
   54CHL1   C17 3946   5.379   3.930   7.886 -0.4592  0.3616  0.4514
   54CHL1   H17 3947   5.286   3.990   7.894 -0.6739  0.1855 -0.5913
   54CHL1   C13 3948   5.359   3.842   7.759 -0.4996 -0.5879 -0.3931
   54CHL1   C18 3949   5.474   3.743   7.742  0.6417 -0.8055 -0.5455
   54CHL1  H18A 3950   5.466   3.696   7.642  1.7915 -0.4635 -0.8015
   54CHL1  H18B 3951   5.574   3.785   7.765  0.4740 -0.3349 -0.6596
   54CHL1  H18C 3952   5.448   3.654   7.804 -0.5662 -0.3358 -0.3400
   54CHL1   C12 3953   5.226   3.770   7.745  0.2178  0.2449  0.1418
   54CHL1  H12A 3954   5.238   3.681   7.810 -1.2372  1.3289  1.9627
   54CHL1  H12B 3955   5.147   3.843   7.773  0.0816  0.5495 -0.9900
   54CHL1   C11 3956   5.197   3.717   7.598 -0.1708 -0.0671 -0.0225
   54CHL1  H11A 3957   5.244   3.618   7.582 -1.5275 -0.9920  1.3988
   54CHL1  H11B 3958   5.090   3.693   7.578  0.1426  1.2324 -4.3433
   54CHL1    C9 3959   5.231   3.818   7.487  0.1108  0.1913 -0.2536
   54CHL1    H9 3960   5.151   3.895   7.496 -0.5659 -0.4233 -0.9353
   54CHL1   C10 3961   5.214   3.762   7.340 -0.3752 -0.1424  0.0643
   54CHL1   C19 3962   5.300   3.633   7.319  0.1187 -0.1845 -0.0060
   54CHL1  H19A 3963   5.273   3.585   7.222 -1.3450  0.4793  0.0485
   54CHL1  H19B 3964   5.410   3.654   7.320  0.3915 -0.1782 -5.0813
   54CHL1  H19C 3965   5.271   3.552   7.389 -0.9648  0.8191  0.7261
   54CHL1    C1 3966   5.066   3.730   7.317  0.5237 -0.4392  0.1593
   54CHL1   H1A 3967   5.048   3.639   7.377 -0.1778  0.2187  0.9832
   54CHL1   H1B 3968   5.001   3.801   7.373  2.4203  0.3667  1.4475
   54CHL1    C2 3969   5.008   3.713   7.174  0.2243  0.2749  0.5448
   54CHL1   H2A 3970   4.898   3.703   7.182 -0.0722  2.0575 -0.8675
   54CHL1   H2B 3971   5.044   3.619   7.128 -0.4976 -0.5289  1.5657
   54CHL1   C20 3972   5.402   3.869   8.027 -0.1422 -0.1720  0.3716
   54CHL1   H20 3973   5.469   3.782   8.014 -0.3719 -0.2961  0.0170
   54CHL1   C21 3974   5.270   3.810   8.072  0.2150 -0.3324 -0.0877
   54CHL1  H21A 3975   5.263   3.784   8.180 -3.0440 -0.1932 -0.1668
   54CHL1  H21B 3976   5.265   3.709   8.026 -0.9120 -0.8973  1.1769
   54CHL1  H21C 3977   5.186   3.879   8.050  0.1725 -0.3432  0.0348
   54CHL1   C22 3978   5.446   3.970   8.137  0.3343 -0.7345  0.2629
   54CHL1  H22A 3979   5.524   4.035   8.092 -0.6131  0.8903  0.8765
   54CHL1  H22B 3980   5.357   4.033   8.158  0.7496 -0.4707  1.3097
   54CHL1   C23 3981   5.505   3.921   8.275  0.7680 -0.1239 -0.3754
   54CHL1  H23A 3982   5.441   3.841   8.317 -0.4685  0.3654 -1.2540
   54CHL1  H23B 3983   5.603   3.875   8.252  0.1801 -1.3462 -0.5023
   54CHL1   C24 3984   5.516   4.037   8.375  0.1076 -0.3176 -0.6309
   54CHL1  H24A 3985   5.571   4.121   8.327  0.1445  0.3473  0.5556
   54CHL1  H24B 3986   5.411   4.070   8.386  0.5515  0.7510  0.5840
   54CHL1   C25 3987   5.584   4.000   8.511  0.3983  0.1829  0.0804
   54CHL1   H25 3988   5.681   3.949   8.492  0.4814  0.1544  0.5660
   54CHL1   C26 3989   5.607   4.122   8.595 -0.0470  0.6035 -0.1278
   54CHL1  H26A 3990   5.662   4.094   8.687  0.4189  0.1632 -0.5328
   54CHL1  H26B 3991   5.667   4.203   8.549  1.3075  0.0834  0.6680
   54CHL1  H26C 3992   5.507   4.167   8.613  0.7396  2.0317  0.9502
   54CHL1   C27 3993   5.500   3.890   8.581 -0.5939 -0.6812 -0.0545
   54CHL1  H27A 3994   5.409   3.924   8.635 -1.0462  1.1332 -1.8397
   54CHL1  H27B 3995   5.476   3.816   8.501  1.1610 -0.3534 -0.9326
   54CHL1  H27C 3996   5.560   3.831   8.654 -2.1274  0.6873  2.4413
   55CHL1    C3 3997   5.322   6.121   6.937  0.4836  0.4934  0.3254
   55CHL1    H3 3998   5.267   6.052   7.004 -0.3932  0.2428 -0.6366
   55CHL1    O3 3999   5.312   6.062   6.810  0.2373 -0.5058  0.2569
   55CHL1   H3' 4000   5.377   5.991   6.807  0.2949 -0.4432  0.0563
   55CHL1    C4 4001   5.264   6.265   6.938  0.9974 -0.5086 -0.0259
   55CHL1   H4A 4002   5.329   6.317   6.864  3.4208  1.0070  2.9295
   55CHL1   H4B 4003   5.156   6.267   6.912  0.2504  3.7299  2.4955
   55CHL1    C5 4004   5.270   6.334   7.075 -0.4858  0.0246  0.4259
   55CHL1    C6 4005   5.162   6.379   7.135  0.0753 -0.7413  0.4290
   55CHL1    H6 4006   5.061   6.374   7.094 -0.5399 -1.4001  1.9349
   55CHL1    C7 4007   5.160   6.443   7.274  0.1977 -0.0939  0.1277
   55CHL1   H7A 4008   5.103   6.539   7.272 -1.9356 -1.3140 -1.5039
   55CHL1   H7B 4009   5.113   6.378   7.351 -1.2207 -0.6304 -1.1555
   55CHL1    C8 4010   5.303   6.487   7.316  0.3262 -0.3166 -0.6503
   55CHL1    H8 4011   5.331   6.577   7.258  0.1961  1.5402  2.0095
   55CHL1   C14 4012   5.311   6.516   7.460 -0.4745  0.2508 -0.1383
   55CHL1   H14 4013   5.273   6.421   7.504  1.5697 -1.0001 -0.9327
   55CHL1   C15 4014   5.206   6.621   7.511 -0.6755 -1.2055 -0.3161
   55CHL1  H15A 4015   5.238   6.707   7.448  0.0941 -0.9661  0.3844
   55CHL1  H15B 4016   5.099   6.603   7.487 -0.5483 -3.0431  0.3105
   55CHL1   C16 4017   5.253   6.642   7.655  0.3156  0.3470  0.2494
   55CHL1  H16A 4018   5.284   6.748   7.663  2.6440 -0.3354  1.2413
   55CHL1  H16B 4019   5.182   6.613   7.736  0.4720  1.1909  0.7077
   55CHL1   C17 4020   5.395   6.572   7.671  0.1005  0.2405 -0.8913
   55CHL1   H17 4021   5.377   6.473   7.718  2.9333 -0.9733 -2.0969
   55CHL1   C13 4022   5.444   6.547   7.527 -0.6823 -0.3140  0.3803
   55CHL1   C18 4023   5.505   6.676   7.465 -0.0807 -0.4094  0.3888
   55CHL1  H18A 4024   5.444   6.758   7.508  1.5708  0.8044  0.5087
   55CHL1  H18B 4025   5.613   6.689   7.485  0.0669  0.2946 -0.8132
   55CHL1  H18C 4026   5.493   6.679   7.355 -1.4584 -0.7159  0.5078
   55CHL1   C12 4027   5.531   6.427   7.508 -0.0318  0.3087 -0.9188
   55CHL1  H12A 4028   5.639   6.442   7.532  0.6513  0.2291 -3.6007
   55CHL1  H12B 4029   5.497   6.333   7.556 -2.6989  0.5564 -2.1864
   55CHL1   C11 4030   5.537   6.401   7.362 -0.1180  0.4346 -0.0753
   55CHL1  H11A 4031   5.592   6.487   7.317 -0.3131  1.7044  2.0042
   55CHL1  H11B 4032   5.601   6.311   7.352 -1.7465 -1.2814  3.4271
   55CHL1    C9 4033   5.408   6.378   7.282  0.4971 -0.0112 -0.0185
   55CHL1    H9 4034   5.367   6.285   7.326 -0.8299  0.7958  0.5238
   55CHL1   C10 4035   5.412   6.336   7.137 -0.4135  0.1883 -0.8185
   55CHL1   C19 4036   5.484   6.443   7.052 -0.3361 -0.2756 -0.6050
   55CHL1  H19A 4037   5.585   6.462   7.095 -0.4956 -1.0390  0.1487
   55CHL1  H19B 4038   5.505   6.412   6.948 -0.3079 -1.3236 -0.3007
   55CHL1  H19C 4039   5.430   6.540   7.061  0.1193  0.0074 -0.8647
   55CHL1    C1 4040   5.477   6.200   7.122 -0.5487 -0.0576  0.0095
   55CHL1   H1A 4041   5.585   6.213   7.145 -0.6220  2.6727 -0.7877
   55CHL1   H1B 4042   5.439   6.140   7.207 -1.9152  1.7862  0.7564
   55CHL1    C2 4043   5.464   6.135   6.985  0.1093 -0.1679  0.3489
   55CHL1   H2A 4044   5.526   6.043   6.975  2.6064  1.4283  0.3594
   55CHL1   H2B 4045   5.501   6.208   6.910 -1.3363  1.2884  0.9914
   55CHL1   C20 4046   5.479   6.646   7.782 -0.1166  0.7108 -0.2199
   55CHL1   H20 4047   5.508   6.747   7.746 -0.0030  0.6988 -0.1636
   55CHL1   C21 4048   5.617   6.564   7.815  0.9492 -0.4806 -0.1051
   55CHL1  H21A 4049   5.678   6.577   7.723 -0.0488 -0.7536 -0.8290
   55CHL1  H21B 4050   5.588   6.461   7.844 -0.1345  0.3845  2.1888
   55CHL1  H21C 4051   5.662   6.618   7.901  1.0158 -0.3894 -0.1959
   55CHL1   C22 4052   5.395   6.683   7.913  0.7528 -0.4127  0.4225
   55CHL1  H22A 4053   5.469   6.725   7.983  0.4428  0.6082  0.1526
   55CHL1  H22B 4054   5.314   6.757   7.896 -0.2129 -1.7838 -1.2763
   55CHL1   C23 4055   5.316   6.566   7.986  0.4354 -0.0559  0.2567
   55CHL1  H23A 4056   5.231   6.537   7.921  0.2998 -0.7352  0.7190
   55CHL1  H23B 4057   5.385   6.479   7.992  0.2626 -0.2113  0.0242
   55CHL1   C24 4058   5.267   6.606   8.124  0.1959  0.2804  0.4292
   55CHL1  H24A 4059   5.336   6.669   8.185 -2.1913  1.0344  2.5381
   55CHL1  H24B 4060   5.182   6.676   8.109  0.1179  0.0403 -0.2389
   55CHL1   C25 4061   5.217   6.488   8.213  0.1924  0.1068 -0.3333
   55CHL1   H25 4062   5.175   6.414   8.142  1.7420 -0.6295 -0.5121
   55CHL1   C26 4063   5.332   6.415   8.280 -0.0593 -0.1684 -0.0048
   55CHL1  H26A 4064   5.298   6.354   8.366 -1.2964  0.7234  0.1532
   55CHL1  H26B 4065   5.402   6.367   8.208 -0.0359 -2.1351  1.2703
   55CHL1  H26C 4066   5.394   6.494   8.328  1.4082 -1.2530 -0.0421
   55CHL1   C27 4067   5.107   6.544   8.308  0.0939  0.1767  0.0879
   55CHL1  H27A 4068   5.015   6.539   8.246  0.1154 -0.6264  0.1028
   55CHL1  H27B 4069   5.095   6.466   8.387  0.3969 -0.4702 -0.4992
   55CHL1  H27C 4070   5.128   6.642   8.356  0.8588  0.6890 -1.2484
   56CHL1    C3 4071   3.135   0.745   6.999 -0.7055 -0.9017  0.2932
   56CHL1    H3 4072   3.025   0.753   6.992 -0.5178  1.1510 -1.5847
   56CHL1    O3 4073   3.185   0.727   6.870 -0.0347 -0.4491  0.7769
   56CHL1   H3' 4074   3.176   0.632   6.856  1.8817 -0.9067  2.2336
   56CHL1    C4 4075   3.190   0.878   7.056  0.2375  0.1834  0.0330
   56CHL1   H4A 4076   3.301   0.879   7.045  0.1973  0.8806 -0.4109
   56CHL1   H4B 4077   3.149   0.965   7.000  2.4815  1.3617  0.0949
   56CHL1    C5 4078   3.163   0.888   7.204  0.3658  0.4909  0.2726
   56CHL1    C6 4079   3.106   1.000   7.254  0.3676 -0.1592 -0.3371
   56CHL1    H6 4080   3.081   1.086   7.191 -1.4233  1.5254  2.4444
   56CHL1    C7 4081   3.071   1.015   7.407 -0.2514 -0.4090 -0.2716
   56CHL1   H7A 4082   3.088   1.123   7.428 -1.0813  0.2874 -2.8042
   56CHL1   H7B 4083   2.966   0.991   7.433 -0.2423  1.3127  1.5610
   56CHL1    C8 4084   3.149   0.910   7.497 -0.3200 -0.7894 -0.5816
   56CHL1    H8 4085   3.254   0.946   7.491 -0.9397  0.9712 -1.8271
   56CHL1   C14 4086   3.117   0.910   7.647  0.5765  0.4323 -0.9603
   56CHL1   H14 4087   3.011   0.878   7.645  1.0844 -1.4764  0.4967
   56CHL1   C15 4088   3.123   1.045   7.719  0.4450  0.3113 -0.3184
   56CHL1  H15A 4089   3.213   1.102   7.688 -0.3330  1.6716 -0.1898
   56CHL1  H15B 4090   3.041   1.114   7.687  1.2435  0.2796 -2.6189
   56CHL1   C16 4091   3.127   1.012   7.862  0.2398  0.3550 -0.0260
   56CHL1  H16A 4092   3.215   1.058   7.912  1.9174 -0.3166 -2.1864
   56CHL1  H16B 4093   3.037   1.054   7.912  0.2303 -0.6378  0.8156
   56CHL1   C17 4094   3.133   0.855   7.875  0.3419 -0.1690  0.4486
   56CHL1   H17 4095   3.025   0.828   7.879  0.7640 -1.9284  0.6024
   56CHL1   C13 4096   3.184   0.809   7.740  0.6274  0.2664  0.4126
   56CHL1   C18 4097   3.347   0.820   7.733  1.1220  0.5825 -0.4784
   56CHL1  H18A 4098   3.389   0.731   7.784 -0.5566  0.6330  1.1028
   56CHL1  H18B 4099   3.398   0.806   7.635 -0.1443 -0.0815 -1.0716
   56CHL1  H18C 4100   3.377   0.909   7.793 -0.7515 -0.0947  1.5755
   56CHL1   C12 4101   3.141   0.674   7.692  0.3012  0.3680  0.4717
   56CHL1  H12A 4102   3.189   0.582   7.732  0.5334 -1.2757 -3.1340
   56CHL1  H12B 4103   3.031   0.668   7.706  0.0892  1.5050 -0.5773
   56CHL1   C11 4104   3.177   0.652   7.538  0.4532 -0.1726  0.5169
   56CHL1  H11A 4105   3.287   0.638   7.542  0.2005 -4.1836 -1.4606
   56CHL1  H11B 4106   3.130   0.556   7.507  0.8024 -0.2584  0.2498
   56CHL1    C9 4107   3.135   0.770   7.441 -0.5658 -0.7526  0.2823
   56CHL1    H9 4108   3.025   0.760   7.428 -0.6495  2.0363 -2.4438
   56CHL1   C10 4109   3.196   0.759   7.290  0.2063  1.2692  0.1875
   56CHL1   C19 4110   3.356   0.757   7.294  0.1955  0.2159  0.1480
   56CHL1  H19A 4111   3.395   0.744   7.190 -0.2709  0.8021 -0.1054
   56CHL1  H19B 4112   3.384   0.857   7.333  1.8272  0.2048 -0.8913
   56CHL1  H19C 4113   3.404   0.675   7.351  2.7186  2.3574  1.2768
   56CHL1    C1 4114   3.148   0.635   7.223  0.1974 -0.3063  0.1203
   56CHL1   H1A 4115   3.179   0.544   7.280  1.5294  0.2523  0.3106
   56CHL1   H1B 4116   3.037   0.641   7.220  0.2965  1.3767 -1.6753
   56CHL1    C2 4117   3.188   0.620   7.077  0.4157 -0.3899  0.0555
   56CHL1   H2A 4118   3.167   0.523   7.027 -0.7168 -0.3892  0.5139
   56CHL1   H2B 4119   3.299   0.630   7.072  0.4142 -0.1441  0.5395
   56CHL1   C20 4120   3.210   0.805   8.005 -0.4213  0.3013  0.3469
   56CHL1   H20 4121   3.318   0.830   7.998  0.7388 -4.0030 -0.0356
   56CHL1   C21 4122   3.207   0.647   8.006 -0.3467 -0.2657  0.5303
   56CHL1  H21A 4123   3.098   0.629   7.988 -0.5916  1.7451 -0.2311
   56CHL1  H21B 4124   3.246   0.610   8.103 -1.4130 -1.5863  0.4835
   56CHL1  H21C 4125   3.266   0.608   7.921  2.4462  0.1262  2.1787
   56CHL1   C22 4126   3.145   0.855   8.131  0.2067 -0.8290 -0.7292
   56CHL1  H22A 4127   3.168   0.795   8.222 -0.1587  2.3801  1.6640
   56CHL1  H22B 4128   3.201   0.946   8.160  0.1822 -0.7617 -0.8937
   56CHL1   C23 4129   2.997   0.872   8.128 -0.1280  0.3160  0.6020
   56CHL1  H23A 4130   2.965   0.939   8.045  1.5105  0.0160 -0.2965
   56CHL1  H23B 4131   2.949   0.772   8.112 -0.9825  0.6293  1.1044
   56CHL1   C24 4132   2.930   0.937   8.247  0.0215 -0.1722  0.5593
   56CHL1  H24A 4133   2.963   0.882   8.337 -0.3818 -1.3384  0.0089
   56CHL1  H24B 4134   2.965   1.043   8.247 -1.0501  0.2822 -2.1520
   56CHL1   C25 4135   2.774   0.934   8.253 -0.6028 -0.8796  1.2166
   56CHL1   H25 4136   2.739   0.967   8.153  0.8786  0.1419  1.0149
   56CHL1   C26 4137   2.722   0.798   8.294 -0.0549  0.2772 -0.3511
   56CHL1  H26A 4138   2.743   0.716   8.222  0.2729 -0.4215  0.5193
   56CHL1  H26B 4139   2.612   0.802   8.315  0.0762 -1.5685  0.9824
   56CHL1  H26C 4140   2.774   0.776   8.390 -2.3661 -0.3086  0.8731
   56CHL1   C27 4141   2.721   1.040   8.343  0.1578  0.4761 -0.1961
   56CHL1  H27A 4142   2.767   1.031   8.444  0.9151 -1.4709 -0.6679
   56CHL1  H27B 4143   2.748   1.141   8.307 -0.2086  0.1640 -1.3954
   56CHL1  H27C 4144   2.611   1.022   8.354  0.0742 -1.2888 -2.9467
   57SAPC     N 4145   4.235   4.387  10.920 -0.6205  0.6428 -0.1365
   57SAPC   C12 4146   4.188   4.255  10.863  0.0441 -0.1404 -0.0682
   57SAPC  H12A 4147   4.111   4.278  10.791 -0.7486  2.9410  1.6168
   57SAPC  H12B 4148   4.136   4.200  10.940  1.7950 -0.6544  0.7990
   57SAPC   C13 4149   4.299   4.469  10.809 -0.5402 -0.3880 -0.1022
   57SAPC  H13A 4150   4.308   4.571  10.842  0.2095 -0.0567 -1.2760
   57SAPC  H13B 4151   4.400   4.435  10.789 -0.0506  1.9200 -1.9442
   57SAPC  H13C 4152   4.250   4.470  10.713 -0.0618  1.4148 -0.3670
   57SAPC   C14 4153   4.114   4.456  10.981 -0.1175 -0.2427 -0.6781
   57SAPC  H14A 4154   4.052   4.383  11.031  0.5288 -0.8729 -0.7768
   57SAPC  H14B 4155   4.149   4.530  11.051  0.6791 -0.2081 -1.1000
   57SAPC  H14C 4156   4.051   4.501  10.906 -1.7409 -3.3063 -1.3340
   57SAPC   C15 4157   4.334   4.358  11.029 -0.4837 -0.2705  0.8786
   57SAPC  H15A 4158   4.416   4.296  10.997  0.8976  1.8175  0.1894
   57SAPC  H15B 4159   4.373   4.446  11.078  0.5401 -0.3412  0.2214
   57SAPC  H15C 4160   4.283   4.300  11.104 -1.6428 -2.1618 -1.2399
   57SAPC   C11 4161   4.291   4.157  10.796 -0.6117 -0.8352 -0.3794
   57SAPC  H11A 4162   4.358   4.226  10.741 -1.0281 -0.5210 -0.4996
   57SAPC  H11B 4163   4.237   4.088  10.727 -1.0933 -0.6657 -0.1768
   57SAPC     P 4164   4.517   4.063  10.881 -0.4173 -0.6881 -0.1298
   57SAPC   O13 4165   4.590   4.185  10.933 -0.6653 -0.3639 -0.0767
   57SAPC   O14 4166   4.551   3.938  10.944 -1.1463  0.3846  0.1056
   57SAPC   O12 4167   4.366   4.083  10.892  0.0270 -0.7737 -0.6669
   57SAPC   O11 4168   4.551   4.060  10.735 -0.3161 -0.0803 -0.3163
   57SAPC    C1 4169   4.491   3.974  10.641  0.2247 -0.1633 -0.0413
   57SAPC    HA 4170   4.454   3.879  10.684  0.4248 -1.0846 -1.8091
   57SAPC    HB 4171   4.403   4.021  10.592 -1.1570  0.7856  3.0713
   57SAPC    C2 4172   4.589   3.942  10.523 -0.5650 -0.5189  0.3937
   57SAPC    HS 4173   4.543   3.873  10.449 -1.6423  0.1828  0.3884
   57SAPC   O21 4174   4.715   3.892  10.576 -0.0897 -0.2655 -0.2011
   57SAPC   C21 4175   4.718   3.764  10.622 -0.1605  0.3657 -0.2075
   57SAPC   O22 4176   4.626   3.692  10.636  0.9968 -0.0823  0.1400
   57SAPC   C22 4177   4.863   3.715  10.636 -0.3351 -0.9622 -0.2435
   57SAPC   H2R 4178   4.894   3.768  10.729 -0.1565  1.2146 -1.4716
   57SAPC   H2S 4179   4.847   3.612  10.673 -1.8365 -0.9042 -0.6847
   57SAPC    C3 4180   4.612   4.075  10.451  0.3322 -0.2387  0.5770
   57SAPC    HX 4181   4.664   4.141  10.524 -1.9737 -0.8581  2.9260
   57SAPC    HY 4182   4.511   4.112  10.423  0.1350 -1.1367  0.0587
   57SAPC   O31 4183   4.693   4.051  10.327  0.2261  0.4953  0.4131
   57SAPC   C31 4184   4.790   4.144  10.311  0.3180 -0.3511 -0.1906
   57SAPC   O32 4185   4.809   4.241  10.384  0.8387  0.1834  0.0967
   57SAPC   C32 4186   4.882   4.101  10.193  0.0687  0.1822  0.5063
   57SAPC   H2X 4187   4.826   4.096  10.098  4.1990 -1.4458 -2.1467
   57SAPC   H2Y 4188   4.907   3.994  10.214 -0.3048  0.1266  0.6651
   57SAPC   C23 4189   4.958   3.732  10.517  0.6610 -0.6527 -0.0009
   57SAPC   H3R 4190   5.062   3.718  10.552  0.1866 -0.2895  1.6374
   57SAPC   H3S 4191   4.952   3.839  10.485 -0.4226 -0.0469  2.0771
   57SAPC   C24 4192   4.918   3.635  10.398 -0.4682  0.2072  0.5105
   57SAPC   H4R 4193   4.808   3.645  10.406 -0.5013 -0.3041  0.7103
   57SAPC   H4S 4194   4.944   3.529  10.421 -0.3621 -0.1583 -1.1736
   57SAPC   C25 4195   4.981   3.668  10.268  0.1666 -0.3041  0.4941
   57SAPC   H5R 4196   5.088   3.690  10.266 -0.2674  2.1684  0.9709
   57SAPC   C26 4197   4.920   3.703  10.151 -0.7343 -0.6326  0.7690
   57SAPC   H6R 4198   4.986   3.722  10.065 -0.0054 -0.0728  1.4360
   57SAPC   C27 4199   4.773   3.696  10.128  0.7226  0.7451 -0.2059
   57SAPC   H7R 4200   4.720   3.694  10.226 -0.4006 -0.4728 -0.8142
   57SAPC   H7S 4201   4.743   3.600  10.082 -1.1939  0.1950  2.0300
   57SAPC   C28 4202   4.715   3.810  10.056 -0.0153 -0.3640 -0.1246
   57SAPC   H8R 4203   4.681   3.890  10.122  1.5719  0.2982 -0.0564
   57SAPC   C29 4204   4.702   3.838   9.926 -0.1728 -0.1983  0.0953
   57SAPC   H9R 4205   4.661   3.937   9.906 -0.3941 -0.4745 -0.8649
   57SAPC  C210 4206   4.759   3.762   9.804 -0.6643 -0.2504 -0.4907
   57SAPC  H10R 4207   4.682   3.696   9.758  0.2708 -1.7549  0.0363
   57SAPC  H10S 4208   4.840   3.693   9.835  0.8288  1.3578 -0.6560
   57SAPC  C211 4209   4.832   3.867   9.725 -0.1551  0.5506  0.3033
   57SAPC  H11R 4210   4.888   3.942   9.783 -0.7988  0.9416  0.4369
   57SAPC  C212 4211   4.825   3.891   9.591 -0.1825  0.3980 -0.0148
   57SAPC  H12R 4212   4.876   3.978   9.546 -0.2939  2.1668  3.0239
   57SAPC  C213 4213   4.733   3.819   9.485 -0.1081 -0.4437 -0.2852
   57SAPC  H13R 4214   4.648   3.885   9.457  0.6297  1.0660  0.8532
   57SAPC  H13S 4215   4.691   3.729   9.535 -2.3516  1.3196  1.2182
   57SAPC  C214 4216   4.813   3.786   9.365 -0.2964 -0.9859 -0.3737
   57SAPC  H14R 4217   4.918   3.754   9.373 -0.5497 -1.7820 -0.1617
   57SAPC  C215 4218   4.766   3.802   9.240 -0.8292  0.5520 -0.3188
   57SAPC  H15R 4219   4.824   3.757   9.158  0.1595  1.9083 -0.3853
   57SAPC  C216 4220   4.644   3.857   9.185 -0.0353 -0.2298  0.2550
   57SAPC  H16R 4221   4.588   3.917   9.260  0.6158  0.9018 -0.1464
   57SAPC  H16S 4222   4.577   3.779   9.143  1.3346 -0.4758 -1.5795
   57SAPC  C217 4223   4.684   3.965   9.083  0.3318 -0.5378  0.5156
   57SAPC  H17R 4224   4.739   3.920   8.998 -0.5198 -1.6126  0.5135
   57SAPC  H17S 4225   4.752   4.044   9.122  1.0501 -0.1324 -1.4490
   57SAPC  C218 4226   4.561   4.035   9.035  0.4454 -0.5314 -0.2591
   57SAPC  H18R 4227   4.505   4.076   9.122  0.1609 -0.9984 -0.2219
   57SAPC  H18S 4228   4.492   3.976   8.971  1.1469  0.2748 -1.8137
   57SAPC  C219 4229   4.589   4.157   8.946  0.1367 -0.0298 -0.0801
   57SAPC  H19R 4230   4.651   4.121   8.861  0.5564  1.4254 -0.4181
   57SAPC  H19S 4231   4.657   4.222   9.005  0.9313 -1.0139  0.1027
   57SAPC  C220 4232   4.463   4.221   8.894 -0.0196  0.2525  0.5800
   57SAPC  H20R 4233   4.414   4.277   8.976  0.2761 -1.5317  2.0357
   57SAPC  H20S 4234   4.394   4.146   8.848 -2.6015  3.0761 -0.4589
   57SAPC  H20T 4235   4.501   4.298   8.824  1.1549 -1.7884 -1.1740
   57SAPC   C33 4236   5.005   4.197  10.181 -0.1185  0.7690  0.9140
   57SAPC   H3X 4237   5.087   4.157  10.244 -1.7514  0.2150  2.8311
   57SAPC   H3Y 4238   4.983   4.303  10.207 -0.5610  0.6346  1.1027
   57SAPC   C34 4239   5.039   4.216  10.036  0.0662 -0.4326  1.0139
   57SAPC   H4X 4240   5.018   4.121   9.982  1.7888 -0.0232 -0.4782
   57SAPC   H4Y 4241   5.138   4.259  10.011 -0.3376  0.9156  1.6830
   57SAPC   C35 4242   4.948   4.308   9.943  0.0196 -0.2388 -1.1286
   57SAPC   H5X 4243   4.983   4.412   9.963  1.6408  0.0695 -4.7984
   57SAPC   H5Y 4244   4.841   4.289   9.967  0.0001  0.0451 -0.9866
   57SAPC   C36 4245   4.973   4.269   9.798 -0.6913 -0.1571  0.6834
   57SAPC   H6X 4246   4.949   4.160   9.798 -1.1123 -0.0701  0.1159
   57SAPC   H6Y 4247   5.079   4.263   9.765 -2.1811 -3.7975 -4.8437
   57SAPC   C37 4248   4.902   4.366   9.706  0.3591  0.1192  0.6026
   57SAPC   H7X 4249   4.915   4.468   9.749 -3.6833  1.0626  0.0424
   57SAPC   H7Y 4250   4.792   4.352   9.710 -0.1030  2.4963 -1.4435
   57SAPC   C38 4251   4.960   4.378   9.572  0.1231 -0.5531  0.8046
   57SAPC   H8X 4252   4.953   4.278   9.523 -0.1154 -0.6880  1.1069
   57SAPC   H8Y 4253   5.070   4.391   9.581  0.2031  0.8049 -1.3012
   57SAPC   C39 4254   4.898   4.492   9.492 -0.1981 -0.0172 -0.5137
   57SAPC   H9X 4255   4.900   4.571   9.570  0.5257 -0.6651  0.1381
   57SAPC   H9Y 4256   4.791   4.468   9.473  0.3605 -1.4273 -2.1141
   57SAPC  C310 4257   4.986   4.521   9.371  0.6979 -0.0716  0.1710
   57SAPC  H10X 4258   5.011   4.421   9.330  2.1392  0.1196  0.5519
   57SAPC  H10Y 4259   5.079   4.572   9.402  0.1995  1.8041 -1.2112
   57SAPC  C311 4260   4.926   4.615   9.267  0.2729 -0.0325 -0.7172
   57SAPC  H11X 4261   4.895   4.700   9.331  1.3700 -1.1208  1.3612
   57SAPC  H11Y 4262   4.827   4.572   9.239 -0.1718  0.2739  0.3077
   57SAPC  C312 4263   5.017   4.650   9.144  0.6409 -0.0009  1.1701
   57SAPC  H12X 4264   5.081   4.564   9.114  0.7199  0.5862 -0.4480
   57SAPC  H12Y 4265   5.086   4.730   9.179 -1.3096  3.1114 -1.4895
   57SAPC  C313 4266   4.932   4.708   9.026 -0.1913 -0.4927 -0.7584
   57SAPC  H13X 4267   4.881   4.800   9.062  1.0450 -0.5723  1.3394
   57SAPC  H13Y 4268   4.853   4.638   8.991 -0.8063 -0.0540 -0.2607
   57SAPC  C314 4269   5.024   4.741   8.903  0.5832  0.2244  0.0062
   57SAPC  H14X 4270   5.079   4.646   8.886 -0.5561 -0.4424 -0.0821
   57SAPC  H14Y 4271   5.100   4.820   8.921 -2.1417  3.1200 -0.3802
   57SAPC  C315 4272   4.951   4.776   8.776  0.2579 -0.3729  0.1633
   57SAPC  H15X 4273   4.888   4.686   8.757 -2.3275  0.8282  2.3814
   57SAPC  H15Y 4274   5.028   4.783   8.696  0.3447  0.8760  0.3475
   57SAPC  C316 4275   4.883   4.919   8.787 -0.1543 -0.7109  0.5552
   57SAPC  H16X 4276   4.950   5.004   8.809  1.6840 -1.8966 -0.1524
   57SAPC  H16Y 4277   4.813   4.915   8.872  0.3582 -0.3726  0.9972
   57SAPC  C317 4278   4.799   4.944   8.660  0.3111 -0.3090 -0.2954
   57SAPC  H17X 4279   4.715   4.872   8.663 -0.4006  0.4722 -0.8784
   57SAPC  H17Y 4280   4.853   4.924   8.565 -1.1251 -0.9243 -1.0175
   57SAPC  C318 4281   4.739   5.085   8.650  0.3434  0.2230 -0.5116
   57SAPC  H18X 4282   4.679   5.092   8.558 -0.7415 -1.8653 -0.0285
   57SAPC  H18Y 4283   4.819   5.161   8.634 -0.0514  1.0897  1.3519
   57SAPC  H18Z 4284   4.681   5.100   8.744 -1.5309 -1.8597 -1.2547
   58SAPC     N 4285   1.204   1.408  10.837  0.4826  0.2351 -0.9636
   58SAPC   C12 4286   1.255   1.459  10.707  0.4272 -0.3606 -0.2926
   58SAPC  H12A 4287   1.213   1.402  10.625  2.3283 -0.8236 -1.0033
   58SAPC  H12B 4288   1.360   1.441  10.690  0.2593  1.1151 -3.7731
   58SAPC   C13 4289   1.061   1.375  10.836 -0.2175 -0.3293  0.0239
   58SAPC  H13A 4290   1.016   1.362  10.934  0.9989  1.6860  0.9123
   58SAPC  H13B 4291   1.014   1.459  10.788 -1.8186 -1.0469  0.2610
   58SAPC  H13C 4292   1.051   1.279  10.788 -0.3593 -0.2237 -0.1608
   58SAPC   C14 4293   1.274   1.274  10.860 -0.6144 -0.0533  0.2070
   58SAPC  H14A 4294   1.378   1.299  10.870 -1.0310  1.8171  0.1484
   58SAPC  H14B 4295   1.243   1.226  10.952 -0.2043 -1.1242 -0.1932
   58SAPC  H14C 4296   1.256   1.202  10.782 -0.1983  0.3081 -0.2268
   58SAPC   C15 4297   1.233   1.502  10.953  0.0026  0.3561 -0.3103
   58SAPC  H15A 4298   1.213   1.451  11.046  1.6913 -2.0789 -1.2056
   58SAPC  H15B 4299   1.338   1.522  10.969  0.6179 -2.3649 -0.5227
   58SAPC  H15C 4300   1.167   1.588  10.951 -1.4289 -0.5257  2.8104
   58SAPC   C11 4301   1.231   1.611  10.680 -1.3611  0.2581  0.2901
   58SAPC  H11A 4302   1.269   1.624  10.577  0.4051  0.9743  0.9832
   58SAPC  H11B 4303   1.286   1.679  10.749 -2.5462 -0.4367  2.0084
   58SAPC     P 4304   1.040   1.778  10.641 -0.1270 -0.2099  0.0710
   58SAPC   O13 4305   0.995   1.859  10.753  0.1371  0.1038  0.6273
   58SAPC   O14 4306   1.137   1.841  10.549  0.0621 -0.0332  0.2385
   58SAPC   O12 4307   1.092   1.640  10.685  0.1385  0.4454 -0.0952
   58SAPC   O11 4308   0.911   1.747  10.557  0.0068 -0.0532  0.3276
   58SAPC    C1 4309   0.835   1.633  10.559 -0.4109 -1.0233 -0.5255
   58SAPC    HA 4310   0.800   1.611  10.662 -1.3769  0.4312 -0.5182
   58SAPC    HB 4311   0.731   1.648  10.524 -1.4153 -0.4345  2.4309
   58SAPC    C2 4312   0.894   1.520  10.472 -0.2792  0.0774  0.3339
   58SAPC    HS 4313   0.980   1.471  10.522 -1.0428 -1.2536  0.4081
   58SAPC   O21 4314   0.924   1.587  10.351 -0.6323 -0.6878 -0.5870
   58SAPC   C21 4315   1.044   1.552  10.302 -0.0842 -0.1174 -0.8350
   58SAPC   O22 4316   1.126   1.482  10.360  0.3605  0.4345 -0.1133
   58SAPC   C22 4317   1.057   1.613  10.165  0.5852  1.0887 -0.2166
   58SAPC   H2R 4318   0.981   1.565  10.099 -0.6332  1.0207  1.1791
   58SAPC   H2S 4319   1.023   1.718  10.171 -0.5742  0.6643  1.5263
   58SAPC    C3 4320   0.785   1.414  10.442  0.6732 -0.3645  0.0776
   58SAPC    HX 4321   0.712   1.465  10.375  0.3720 -0.1299  0.5849
   58SAPC    HY 4322   0.719   1.390  10.528  1.1565 -0.8356  0.3216
   58SAPC   O31 4323   0.833   1.298  10.378  0.1787 -0.1865  1.3690
   58SAPC   C31 4324   0.891   1.208  10.459  0.1167  0.1725 -0.2504
   58SAPC   O32 4325   0.893   1.208  10.582 -0.5961  0.6977  0.4047
   58SAPC   C32 4326   0.968   1.106  10.378 -0.4664 -0.4016  0.9640
   58SAPC   H2X 4327   0.921   1.005  10.383 -0.3203 -0.7517 -2.3742
   58SAPC   H2Y 4328   1.068   1.099  10.426 -0.1405  1.4771  0.6211
   58SAPC   C23 4329   1.197   1.592  10.112  0.3275 -0.0525  0.0236
   58SAPC   H3R 4330   1.184   1.494  10.062 -1.5037  0.4538 -0.5597
   58SAPC   H3S 4331   1.278   1.593  10.188  0.1094  0.5504  0.2492
   58SAPC   C24 4332   1.226   1.708  10.009 -0.4838 -0.4254  0.6900
   58SAPC   H4R 4333   1.224   1.806  10.062 -1.5103  0.6407 -1.2126
   58SAPC   H4S 4334   1.143   1.712   9.936  0.7430  1.9710 -0.7344
   58SAPC   C25 4335   1.347   1.681   9.927  0.0283 -0.2385 -0.2785
   58SAPC   H5R 4336   1.437   1.677   9.990 -0.5371  0.3978  0.5925
   58SAPC   C26 4337   1.359   1.654   9.793 -0.5614  0.0184  0.4432
   58SAPC   H6R 4338   1.457   1.652   9.743  0.0145 -1.2551  1.5591
   58SAPC   C27 4339   1.253   1.625   9.697 -0.0698 -0.1464  0.3658
   58SAPC   H7R 4340   1.251   1.705   9.620  0.5749 -1.2200 -0.8048
   58SAPC   H7S 4341   1.149   1.625   9.738 -0.7795  1.8560 -1.2770
   58SAPC   C28 4342   1.286   1.493   9.624  0.0243  0.4741  0.3276
   58SAPC   H8R 4343   1.281   1.404   9.688 -2.1983  1.2754  1.3473
   58SAPC   C29 4344   1.325   1.479   9.497 -0.0646 -0.1821  0.2294
   58SAPC   H9R 4345   1.363   1.379   9.472  1.6357  0.5720 -0.3503
   58SAPC  C210 4346   1.337   1.597   9.399  0.4132  0.9271 -0.2128
   58SAPC  H10R 4347   1.446   1.607   9.381  0.7300 -1.1431  0.3101
   58SAPC  H10S 4348   1.299   1.695   9.436 -1.7772  0.5576 -1.2952
   58SAPC  C211 4349   1.268   1.572   9.269  0.7576 -0.2627  0.5490
   58SAPC  H11R 4350   1.173   1.517   9.276  0.2881  0.3490 -0.6909
   58SAPC  C212 4351   1.316   1.602   9.143  0.1794  0.1180  0.0805
   58SAPC  H12R 4352   1.258   1.570   9.055  0.9762 -1.9635  0.2546
   58SAPC  C213 4353   1.442   1.675   9.108 -0.0200  0.5024  0.5123
   58SAPC  H13R 4354   1.522   1.614   9.061 -0.8431  0.1068 -0.4045
   58SAPC  H13S 4355   1.484   1.727   9.197  0.9431  2.3805 -0.9642
   58SAPC  C214 4356   1.403   1.785   9.010 -0.2460  0.2818  0.2474
   58SAPC  H14R 4357   1.343   1.867   9.052 -1.0377 -0.0784 -0.1667
   58SAPC  C215 4358   1.427   1.792   8.878 -0.8981  0.3198 -0.6122
   58SAPC  H15R 4359   1.376   1.867   8.816 -0.8048 -0.6129 -1.8712
   58SAPC  C216 4360   1.507   1.689   8.796  0.0610 -0.9987 -0.2111
   58SAPC  H16R 4361   1.552   1.607   8.856 -2.1486 -2.7830 -0.8386
   58SAPC  H16S 4362   1.593   1.732   8.741 -0.5304 -0.8716 -1.0590
   58SAPC  C217 4363   1.418   1.605   8.697  0.5979  1.1758 -0.1823
   58SAPC  H17R 4364   1.360   1.543   8.769  1.3067 -1.0398 -1.4076
   58SAPC  H17S 4365   1.484   1.531   8.646 -0.4464 -2.3562  3.1205
   58SAPC  C218 4366   1.343   1.681   8.592  0.1178  0.0834  0.1574
   58SAPC  H18R 4367   1.311   1.778   8.636 -0.1182  0.2934 -0.4601
   58SAPC  H18S 4368   1.252   1.622   8.570  0.2403 -0.9988  2.2989
   58SAPC  C219 4369   1.433   1.724   8.474  0.7105 -0.1813 -0.1507
   58SAPC  H19R 4370   1.451   1.632   8.414  1.0211 -0.4122  0.2979
   58SAPC  H19S 4371   1.528   1.771   8.505 -0.2655  2.5896 -1.0256
   58SAPC  C220 4372   1.372   1.831   8.384 -0.7415 -0.0172  0.6202
   58SAPC  H20R 4373   1.262   1.824   8.367 -0.6454 -0.6776  0.2284
   58SAPC  H20S 4374   1.429   1.824   8.289 -1.2843 -0.7358  0.3433
   58SAPC  H20T 4375   1.397   1.926   8.436 -1.1922 -0.3317  1.4272
   58SAPC   C33 4376   0.999   1.167  10.235  0.1969 -0.7448 -0.4311
   58SAPC   H3X 4377   1.093   1.131  10.188  1.0884  1.5751 -0.5240
   58SAPC   H3Y 4378   1.021   1.275  10.244  0.9558 -0.9924  0.8881
   58SAPC   C34 4379   0.889   1.130  10.134  0.6685  0.0934 -0.4639
   58SAPC   H4X 4380   0.787   1.111  10.176  1.3512 -0.2775  1.1207
   58SAPC   H4Y 4381   0.909   1.029  10.092  1.5531  0.1616 -0.2273
   58SAPC   C35 4382   0.898   1.244  10.030  0.4548  0.0868 -0.3119
   58SAPC   H5X 4383   1.000   1.243   9.986  1.1711  0.5989  1.2845
   58SAPC   H5Y 4384   0.874   1.336  10.088  0.6985  0.8858 -1.4383
   58SAPC   C36 4385   0.800   1.221   9.912  0.4257 -0.2381  0.4488
   58SAPC   H6X 4386   0.693   1.229   9.941  0.0154 -1.4576 -0.5840
   58SAPC   H6Y 4387   0.826   1.119   9.876  1.1398  0.1318 -0.1265
   58SAPC   C37 4388   0.834   1.328   9.802  0.0924  0.1922  0.1494
   58SAPC   H7X 4389   0.941   1.320   9.776  0.1365  0.8598  0.1018
   58SAPC   H7Y 4390   0.832   1.429   9.847 -3.1670 -0.0723  0.8331
   58SAPC   C38 4391   0.759   1.322   9.668 -0.5773  0.5101  0.1933
   58SAPC   H8X 4392   0.648   1.323   9.682 -0.5612 -0.2527  0.3844
   58SAPC   H8Y 4393   0.794   1.230   9.616  3.8743  1.0988  1.7637
   58SAPC   C39 4394   0.806   1.436   9.575 -0.2659  0.1647  0.8045
   58SAPC   H9X 4395   0.912   1.410   9.554 -0.3498 -0.3707  1.0155
   58SAPC   H9Y 4396   0.797   1.532   9.630  1.3835  0.3015  0.8674
   58SAPC  C310 4397   0.730   1.437   9.442 -0.1706  0.5257 -0.7966
   58SAPC  H10X 4398   0.620   1.436   9.461 -0.2269  0.0229 -1.1308
   58SAPC  H10Y 4399   0.753   1.339   9.395 -0.1642 -0.4201  1.1141
   58SAPC  C311 4400   0.752   1.565   9.363  0.0692  0.3846  0.2213
   58SAPC  H11X 4401   0.817   1.636   9.420 -0.3422  1.0347 -0.1171
   58SAPC  H11Y 4402   0.651   1.603   9.338 -1.5840 -1.9576  2.7465
   58SAPC  C312 4403   0.809   1.537   9.226 -0.1764  0.3265  0.3129
   58SAPC  H12X 4404   0.751   1.460   9.172 -0.4375  0.8110 -0.1101
   58SAPC  H12Y 4405   0.910   1.493   9.241  0.0407  0.0413 -1.6365
   58SAPC  C313 4406   0.813   1.653   9.126 -0.2922 -0.8488  0.4097
   58SAPC  H13X 4407   0.860   1.744   9.171 -0.6396  0.7821 -2.2702
   58SAPC  H13Y 4408   0.713   1.686   9.090 -0.7893 -1.3296  1.3145
   58SAPC  C314 4409   0.901   1.632   9.006 -0.7625  0.0590  0.8249
   58SAPC  H14X 4410   0.871   1.538   8.955 -0.8545  1.3177 -1.6058
   58SAPC  H14Y 4411   1.008   1.620   9.033  0.4523  0.5517 -3.1674
   58SAPC  C315 4412   0.896   1.749   8.909  0.4328 -0.5645 -0.2082
   58SAPC  H15X 4413   0.951   1.833   8.957  0.0319 -0.2586 -0.2752
   58SAPC  H15Y 4414   0.793   1.786   8.893  0.6692  0.2583  0.0992
   58SAPC  C316 4415   0.963   1.737   8.765  0.3155  0.8435 -0.4275
   58SAPC  H16X 4416   0.907   1.670   8.697  1.1517  0.3511 -0.6482
   58SAPC  H16Y 4417   1.068   1.702   8.771  1.0812  2.4659 -2.8494
   58SAPC  C317 4418   0.961   1.872   8.698 -0.0705 -0.9122  0.5690
   58SAPC  H17X 4419   1.020   1.940   8.763 -1.3783 -1.1601  2.0586
   58SAPC  H17Y 4420   0.855   1.904   8.697 -0.3231 -1.7137 -0.4000
   58SAPC  C318 4421   1.005   1.864   8.552 -0.5772  0.2138  0.3553
   58SAPC  H18X 4422   0.958   1.781   8.495  0.0193 -0.0237  0.2044
   58SAPC  H18Y 4423   1.114   1.845   8.559 -0.8119 -0.6101  2.4928
   58SAPC  H18Z 4424   1.008   1.962   8.498  0.7081 -0.0852 -0.1507
   59SAPC     N 4425   0.573   3.589  11.075  0.0089  0.4875 -0.4982
   59SAPC   C12 4426   0.596   3.548  10.924  0.3056  0.5277  0.1383
   59SAPC  H12A 4427   0.620   3.443  10.917  1.3265  0.7702 -0.0982
   59SAPC  H12B 4428   0.678   3.601  10.879 -0.3193  0.0658 -1.6246
   59SAPC   C13 4429   0.462   3.510  11.141 -0.5445  0.7881  0.0390
   59SAPC  H13A 4430   0.386   3.496  11.066  0.3654  0.5177 -0.8531
   59SAPC  H13B 4431   0.500   3.414  11.171  0.1165  1.4709  1.5022
   59SAPC  H13C 4432   0.417   3.567  11.222 -0.4139  1.3199 -0.2564
   59SAPC   C14 4433   0.698   3.576  11.152 -0.1746  0.6447  0.2346
   59SAPC  H14A 4434   0.680   3.589  11.258 -0.5741  0.3907  0.1989
   59SAPC  H14B 4435   0.735   3.476  11.133  1.0273  1.0796  0.1572
   59SAPC  H14C 4436   0.769   3.651  11.121  1.1238 -1.0047 -0.9827
   59SAPC   C15 4437   0.539   3.728  11.072  0.3957 -0.9190  0.4416
   59SAPC  H15A 4438   0.450   3.739  11.013 -0.3589 -1.8163  1.3854
   59SAPC  H15B 4439   0.509   3.771  11.166  0.6968 -0.7181  0.4506
   59SAPC  H15C 4440   0.618   3.788  11.029 -2.0550  3.1812  1.0544
   59SAPC   C11 4441   0.476   3.565  10.830 -0.3341 -0.1691 -0.1426
   59SAPC  H11A 4442   0.514   3.557  10.726  1.0084 -3.0008  0.4676
   59SAPC  H11B 4443   0.432   3.667  10.826 -1.2086 -0.5817 -1.9870
   59SAPC     P 4444   0.385   3.328  10.807  0.0949  0.3446 -0.2509
   59SAPC   O13 4445   0.527   3.278  10.797  0.0094 -0.1585 -0.1404
   59SAPC   O14 4446   0.294   3.231  10.866  0.3256  0.1289  0.0022
   59SAPC   O12 4447   0.377   3.469  10.868 -0.3488  0.3652  0.0641
   59SAPC   O11 4448   0.333   3.357  10.667 -0.4357 -0.5815 -0.2345
   59SAPC    C1 4449   0.237   3.464  10.647 -0.2362  0.3450 -0.4909
   59SAPC    HA 4450   0.149   3.461  10.715 -0.2426  2.8308 -0.3050
   59SAPC    HB 4451   0.284   3.564  10.657 -2.8081  1.6558 -0.6635
   59SAPC    C2 4452   0.176   3.474  10.504  0.8689  0.3759  0.2742
   59SAPC    HS 4453   0.111   3.563  10.494  2.6091  1.4662 -2.1598
   59SAPC   O21 4454   0.104   3.353  10.475  0.0389  0.0799  0.1240
   59SAPC   C21 4455  -0.013   3.336  10.544  0.6871 -0.1278  0.0128
   59SAPC   O22 4456  -0.077   3.425  10.599  0.5858 -0.3836 -0.0480
   59SAPC   C22 4457  -0.065   3.193  10.509  0.4296  0.2416  0.5734
   59SAPC   H2R 4458   0.023   3.143  10.465  1.3393  0.3486  2.2181
   59SAPC   H2S 4459  -0.069   3.132  10.602 -0.9257 -2.0455 -0.8863
   59SAPC    C3 4460   0.288   3.492  10.401 -0.7271  0.5801  0.1622
   59SAPC    HX 4461   0.348   3.398  10.396 -1.0359  0.1833  2.4292
   59SAPC    HY 4462   0.354   3.570  10.446  0.5303 -0.1465 -0.3598
   59SAPC   O31 4463   0.237   3.541  10.273  0.2238  0.5501 -0.0165
   59SAPC   C31 4464   0.301   3.488  10.174  0.1755 -0.1726 -0.2581
   59SAPC   O32 4465   0.413   3.431  10.172  0.2992 -0.5284  0.6660
   59SAPC   C32 4466   0.200   3.507  10.066  0.1164 -0.1761  0.3131
   59SAPC   H2X 4467   0.142   3.601  10.072  1.7759  0.7920  2.6501
   59SAPC   H2Y 4468   0.129   3.422  10.081 -1.1272  0.3550 -2.0755
   59SAPC   C23 4469  -0.186   3.173  10.414 -0.3205 -0.8319  0.0309
   59SAPC   H3R 4470  -0.258   3.249  10.452 -1.4659 -1.2040 -1.3104
   59SAPC   H3S 4471  -0.226   3.069  10.417 -0.0260 -0.9316  0.7475
   59SAPC   C24 4472  -0.164   3.239  10.274  0.6503  0.4682 -0.1692
   59SAPC   H4R 4473  -0.117   3.339  10.276 -0.5436  1.0690 -0.9033
   59SAPC   H4S 4474  -0.263   3.242  10.225 -1.2620 -0.7839  3.2663
   59SAPC   C25 4475  -0.071   3.149  10.201  0.3324  0.1181  0.5766
   59SAPC   H5R 4476  -0.021   3.071  10.260 -2.3443 -0.1266  2.6857
   59SAPC   C26 4477  -0.073   3.136  10.066  0.2775  0.0774 -0.1448
   59SAPC   H6R 4478   0.003   3.066  10.028  0.5635  0.5448 -0.4342
   59SAPC   C27 4479  -0.165   3.208   9.975  0.1386 -0.0290  0.9751
   59SAPC   H7R 4480  -0.171   3.311  10.016  0.4557 -0.4120  1.9977
   59SAPC   H7S 4481  -0.263   3.157   9.982 -0.9501  1.7916 -0.0424
   59SAPC   C28 4482  -0.105   3.224   9.831  0.8755 -0.2419 -0.0215
   59SAPC   H8R 4483   0.004   3.234   9.829  0.8474  1.9370  2.8723
   59SAPC   C29 4484  -0.172   3.238   9.712  0.0024  0.0604 -0.4429
   59SAPC   H9R 4485  -0.123   3.231   9.613  0.7476  0.6380 -0.1202
   59SAPC  C210 4486  -0.321   3.251   9.690 -0.1366 -0.5625  0.7107
   59SAPC  H10R 4487  -0.362   3.271   9.791 -0.6449  3.2176 -0.0836
   59SAPC  H10S 4488  -0.364   3.158   9.648  1.8936 -0.9510 -0.6917
   59SAPC  C211 4489  -0.338   3.375   9.592 -0.7145  0.2093  0.1392
   59SAPC  H11R 4490  -0.358   3.472   9.640  0.8149  1.5880 -1.8959
   59SAPC  C212 4491  -0.332   3.374   9.457  0.0123  0.1006 -0.0611
   59SAPC  H12R 4492  -0.366   3.465   9.404  0.1048 -0.2918 -0.8038
   59SAPC  C213 4493  -0.300   3.262   9.364  0.2229  0.4469 -0.2892
   59SAPC  H13R 4494  -0.275   3.172   9.424  0.9643  0.1142 -1.0811
   59SAPC  H13S 4495  -0.212   3.277   9.298 -0.8483  1.2669 -1.5798
   59SAPC  C214 4496  -0.429   3.238   9.290  0.6104 -0.8291 -0.2411
   59SAPC  H14R 4497  -0.523   3.246   9.345  1.0345 -0.5409  0.4544
   59SAPC  C215 4498  -0.442   3.217   9.155 -0.6923 -0.0940  0.2265
   59SAPC  H15R 4499  -0.537   3.198   9.104  1.0558  0.3555 -3.5033
   59SAPC  C216 4500  -0.343   3.207   9.043 -0.6042 -0.1639 -0.3739
   59SAPC  H16R 4501  -0.252   3.262   9.076 -1.5737  0.2914  1.6452
   59SAPC  H16S 4502  -0.379   3.259   8.952 -0.0031 -2.2836 -1.9329
   59SAPC  C217 4503  -0.293   3.062   9.020 -0.0277  0.3111 -0.1931
   59SAPC  H17R 4504  -0.382   3.001   8.993  0.1781  0.4203 -1.1460
   59SAPC  H17S 4505  -0.255   3.026   9.118  2.4141  1.4798 -0.6464
   59SAPC  C218 4506  -0.180   3.046   8.918 -0.3098 -0.1252 -0.1321
   59SAPC  H18R 4507  -0.106   3.123   8.949  1.9419 -1.4321 -1.9560
   59SAPC  H18S 4508  -0.216   3.076   8.817  0.4305 -0.7295 -0.5831
   59SAPC  C219 4509  -0.109   2.912   8.913  0.2370  0.6525  0.0085
   59SAPC  H19R 4510  -0.187   2.843   8.875  0.1928 -0.0675  1.3663
   59SAPC  H19S 4511  -0.079   2.885   9.016 -0.3865  1.8911  0.5354
   59SAPC  C220 4512   0.006   2.908   8.814  0.3398  0.3563 -0.3369
   59SAPC  H20R 4513   0.039   2.802   8.805 -1.1376  0.0203 -3.0329
   59SAPC  H20S 4514   0.085   2.977   8.850  1.3772 -0.7795 -0.3709
   59SAPC  H20T 4515  -0.026   2.938   8.712  0.6492 -0.6264 -0.7331
   59SAPC   C33 4516   0.260   3.496   9.918  0.6033 -0.6759 -0.4787
   59SAPC   H3X 4517   0.330   3.409   9.918 -0.2354 -1.3855 -1.9174
   59SAPC   H3Y 4518   0.318   3.591   9.919 -0.1162 -0.1534  2.5125
   59SAPC   C34 4519   0.156   3.508   9.810 -0.7023 -0.0754 -0.1274
   59SAPC   H4X 4520   0.102   3.605   9.814  1.7513  1.4204 -0.7623
   59SAPC   H4Y 4521   0.078   3.433   9.832 -1.6713  0.7809 -0.5363
   59SAPC   C35 4522   0.215   3.489   9.669 -0.0142 -0.9876 -0.1695
   59SAPC   H5X 4523   0.297   3.415   9.678  1.7980  0.9332 -0.2790
   59SAPC   H5Y 4524   0.273   3.580   9.644 -0.0100 -0.6397  1.0709
   59SAPC   C36 4525   0.112   3.454   9.558  0.1967 -0.1976 -0.7527
   59SAPC   H6X 4526   0.026   3.523   9.565  0.1714 -0.3204  0.4041
   59SAPC   H6Y 4527   0.073   3.353   9.584  1.6101 -0.2265  1.6080
   59SAPC   C37 4528   0.174   3.458   9.423  0.5844 -0.2554 -0.1686
   59SAPC   H7X 4529   0.262   3.390   9.428  0.4831 -0.7270 -3.0863
   59SAPC   H7Y 4530   0.214   3.561   9.409  0.1243  0.2344  1.8641
   59SAPC   C38 4531   0.092   3.399   9.306  0.2547 -0.1554  0.3509
   59SAPC   H8X 4532  -0.004   3.452   9.294 -0.0473 -1.2613 -3.2100
   59SAPC   H8Y 4533   0.074   3.290   9.319  0.5570 -0.2756 -0.1971
   59SAPC   C39 4534   0.177   3.417   9.183  0.3363  0.6058  0.2420
   59SAPC   H9X 4535   0.268   3.355   9.192 -1.1244 -2.1459 -2.1617
   59SAPC   H9Y 4536   0.201   3.525   9.176  1.6723  0.2567 -0.9111
   59SAPC  C310 4537   0.118   3.367   9.056  0.3202 -0.6708 -0.3587
   59SAPC  H10X 4538   0.050   3.448   9.024  0.0395  0.0573  1.9421
   59SAPC  H10Y 4539   0.066   3.270   9.075  1.8771 -1.6408 -0.8381
   59SAPC  C311 4540   0.223   3.356   8.949  0.0597 -0.5412 -0.0390
   59SAPC  H11X 4541   0.276   3.261   8.973  0.1098 -0.0809  1.7624
   59SAPC  H11Y 4542   0.292   3.443   8.943  2.9001 -2.4001  2.6699
   59SAPC  C312 4543   0.160   3.332   8.814 -0.8434 -0.0580  0.0700
   59SAPC  H12X 4544   0.095   3.420   8.789 -1.1719 -0.5772 -0.9701
   59SAPC  H12Y 4545   0.092   3.244   8.814 -1.0684  0.1124 -0.0730
   59SAPC  C313 4546   0.268   3.332   8.702  0.8452 -0.6908 -0.1911
   59SAPC  H13X 4547   0.327   3.239   8.713  3.0979  0.5071 -1.5093
   59SAPC  H13Y 4548   0.329   3.422   8.721 -0.0639 -0.0030 -0.4332
   59SAPC  C314 4549   0.213   3.334   8.565 -0.3004 -0.4146 -0.2105
   59SAPC  H14X 4550   0.294   3.366   8.496  0.7599 -1.1627  0.6574
   59SAPC  H14Y 4551   0.140   3.418   8.561 -0.3416 -0.2818  2.0780
   59SAPC  C315 4552   0.149   3.203   8.523  0.7139  0.6432  0.3118
   59SAPC  H15X 4553   0.053   3.178   8.574  0.1623 -2.1108 -1.8202
   59SAPC  H15Y 4554   0.217   3.119   8.548  0.1609 -0.3040 -1.2300
   59SAPC  C316 4555   0.110   3.197   8.373  0.1807 -0.3707  0.1845
   59SAPC  H16X 4556   0.200   3.187   8.309  0.2400 -1.0635  0.3722
   59SAPC  H16Y 4557   0.067   3.297   8.353  0.1658 -0.4715 -0.3158
   59SAPC  C317 4558   0.009   3.085   8.350  0.0467  0.3253 -0.4124
   59SAPC  H17X 4559  -0.021   3.084   8.243 -0.1599  1.2512 -0.3733
   59SAPC  H17Y 4560  -0.077   3.119   8.411 -0.7099 -2.8331  0.4695
   59SAPC  C318 4561   0.035   2.944   8.393 -0.0885  0.5588 -0.2772
   59SAPC  H18X 4562   0.123   2.896   8.345  0.5435  1.0513  0.3766
   59SAPC  H18Y 4563  -0.046   2.875   8.361  0.5764  0.5455 -2.0599
   59SAPC  H18Z 4564   0.057   2.927   8.500 -1.4304 -0.4266 -0.1230
   60SAPC     N 4565   2.801   3.106  10.660  0.2508  0.0862 -0.1782
   60SAPC   C12 4566   2.766   3.204  10.547 -0.2463  0.1819 -0.3145
   60SAPC  H12A 4567   2.797   3.156  10.455 -1.6853 -2.3942  0.4327
   60SAPC  H12B 4568   2.834   3.288  10.543  0.7379 -0.6391 -2.2390
   60SAPC   C13 4569   2.764   3.168  10.790 -0.1424  0.2197  0.3607
   60SAPC  H13A 4570   2.661   3.198  10.789  0.1504  1.3155  1.2193
   60SAPC  H13B 4571   2.771   3.093  10.868  1.8304  0.5095  0.5218
   60SAPC  H13C 4572   2.820   3.258  10.811 -1.5689  1.0793  0.5924
   60SAPC   C14 4573   2.722   2.977  10.660  0.4497  0.2731 -0.0102
   60SAPC  H14A 4574   2.745   2.917  10.573  0.9590 -0.2197  0.4607
   60SAPC  H14B 4575   2.736   2.917  10.748 -0.2777 -0.7913 -0.5982
   60SAPC  H14C 4576   2.616   2.999  10.666  0.1830  0.3263 -3.2244
   60SAPC   C15 4577   2.944   3.063  10.650  0.2407 -0.5006 -0.1940
   60SAPC  H15A 4578   3.008   3.150  10.661 -1.7280  1.1458 -0.9743
   60SAPC  H15B 4579   2.974   2.987  10.720 -0.4910  0.7875  1.5868
   60SAPC  H15C 4580   2.963   3.030  10.549 -1.2597  1.5611 -1.2246
   60SAPC   C11 4581   2.624   3.250  10.526 -0.0588 -0.0481 -0.1999
   60SAPC  H11A 4582   2.556   3.162  10.520 -0.2570  0.1630 -1.3776
   60SAPC  H11B 4583   2.617   3.296  10.425  0.1110  0.6738  0.1092
   60SAPC     P 4584   2.633   3.473  10.650 -0.1589 -0.1096 -0.1308
   60SAPC   O13 4585   2.567   3.520  10.775 -0.6073  0.1816  0.2242
   60SAPC   O14 4586   2.781   3.476  10.654  0.0937 -0.7036  0.3380
   60SAPC   O12 4587   2.574   3.330  10.630  0.7600 -0.2801 -0.0850
   60SAPC   O11 4588   2.589   3.559  10.524 -0.0468 -1.0771 -0.1307
   60SAPC    C1 4589   2.458   3.550  10.474  0.1229  0.6441 -0.3450
   60SAPC    HA 4590   2.438   3.448  10.435 -0.8048  0.4160  0.6622
   60SAPC    HB 4591   2.385   3.579  10.553 -1.4110 -1.0247 -1.0713
   60SAPC    C2 4592   2.433   3.644  10.353  0.3612  0.1458  0.1101
   60SAPC    HS 4593   2.345   3.602  10.298  1.3269  0.9601 -2.1837
   60SAPC   O21 4594   2.554   3.649  10.279 -0.3942 -0.0363  0.5330
   60SAPC   C21 4595   2.595   3.540  10.210  0.0972  0.7103  0.5687
   60SAPC   O22 4596   2.541   3.433  10.218  0.0676  0.1991  0.2698
   60SAPC   C22 4597   2.710   3.576  10.109  0.2985 -0.3208 -0.0835
   60SAPC   H2R 4598   2.806   3.579  10.164  0.6113  1.7178 -0.6360
   60SAPC   H2S 4599   2.724   3.489  10.042 -0.6764 -0.7791  0.2884
   60SAPC    C3 4600   2.401   3.777  10.417 -0.4666 -0.1718  0.6971
   60SAPC    HX 4601   2.489   3.801  10.480  0.1666 -3.6705  1.3982
   60SAPC    HY 4602   2.324   3.781  10.497 -0.7384 -1.6419  0.5531
   60SAPC   O31 4603   2.378   3.878  10.314  0.2743 -0.1693  0.0274
   60SAPC   C31 4604   2.476   3.969  10.287 -0.8656 -0.3070  0.5738
   60SAPC   O32 4605   2.588   3.971  10.336  0.4436  0.3701  0.1276
   60SAPC   C32 4606   2.436   4.077  10.188  0.1308 -0.4591 -0.1205
   60SAPC   H2X 4607   2.523   4.099  10.123  0.5390  0.9085  0.8382
   60SAPC   H2Y 4608   2.414   4.174  10.238  2.4778  1.0328 -1.7930
   60SAPC   C23 4609   2.679   3.712  10.036  0.4401  0.2831 -0.5384
   60SAPC   H3R 4610   2.761   3.742   9.968  0.6881  0.9912  0.0626
   60SAPC   H3S 4611   2.670   3.788  10.117 -1.1992  0.5827 -0.9589
   60SAPC   C24 4612   2.549   3.701   9.949  0.1112 -0.0741  0.2219
   60SAPC   H4R 4613   2.462   3.673  10.012 -0.0827 -0.3658 -0.1734
   60SAPC   H4S 4614   2.578   3.617   9.882 -0.7941  0.8673 -1.4245
   60SAPC   C25 4615   2.529   3.839   9.880 -0.5732  0.0866  0.0621
   60SAPC   H5R 4616   2.512   3.918   9.955  2.4067  0.8023  0.1399
   60SAPC   C26 4617   2.541   3.883   9.754  0.8804  0.3274  0.6567
   60SAPC   H6R 4618   2.522   3.987   9.725 -2.4506 -1.0900 -3.0558
   60SAPC   C27 4619   2.572   3.792   9.635  0.1926 -0.8328  0.3016
   60SAPC   H7R 4620   2.605   3.698   9.684  0.5434 -1.1789 -0.5915
   60SAPC   H7S 4621   2.657   3.828   9.574  0.6530 -0.0769  1.3490
   60SAPC   C28 4622   2.448   3.776   9.545  0.0250  0.4843  0.1802
   60SAPC   H8R 4623   2.370   3.703   9.573 -0.2496  0.1743 -1.3204
   60SAPC   C29 4624   2.434   3.840   9.422 -0.1679  0.3303 -0.2655
   60SAPC   H9R 4625   2.345   3.818   9.360  0.5881 -0.1696 -1.1897
   60SAPC  C210 4626   2.525   3.936   9.354 -0.4062 -0.4681  0.5372
   60SAPC  H10R 4627   2.496   3.946   9.248 -3.1646 -3.4508  0.8548
   60SAPC  H10S 4628   2.633   3.908   9.359  0.3386  2.0358  0.3531
   60SAPC  C211 4629   2.515   4.078   9.402  0.4393  0.8265 -0.0625
   60SAPC  H11R 4630   2.440   4.090   9.481 -0.7817 -2.7818 -0.5164
   60SAPC  C212 4631   2.570   4.188   9.346  0.5514 -0.0733 -0.0458
   60SAPC  H12R 4632   2.542   4.283   9.393 -1.0320 -0.2935 -0.4783
   60SAPC  C213 4633   2.654   4.192   9.224 -0.8733 -0.7586  0.9682
   60SAPC  H13R 4634   2.722   4.104   9.224  0.3639  0.1173 -1.1157
   60SAPC  H13S 4635   2.710   4.288   9.218 -2.2845  0.0027 -2.6894
   60SAPC  C214 4636   2.568   4.169   9.101 -0.3161  0.3466 -0.4428
   60SAPC  H14R 4637   2.487   4.096   9.113  1.0881 -1.2683 -0.3757
   60SAPC  C215 4638   2.564   4.230   8.983 -0.5779  0.3286 -0.1826
   60SAPC  H15R 4639   2.490   4.191   8.912  0.2280 -0.4273 -0.6320
   60SAPC  C216 4640   2.651   4.339   8.930  0.6781 -0.2347  0.0944
   60SAPC  H16R 4641   2.727   4.357   9.008  0.3744  0.0991  0.3173
   60SAPC  H16S 4642   2.583   4.422   8.903  1.8002  0.1508 -1.6604
   60SAPC  C217 4643   2.729   4.312   8.806 -0.2378  0.6763  0.2310
   60SAPC  H17R 4644   2.650   4.310   8.729  0.3765 -0.5316 -0.3915
   60SAPC  H17S 4645   2.772   4.210   8.808  1.5864  1.4143  1.1341
   60SAPC  C218 4646   2.826   4.418   8.756  0.2732 -0.4881 -0.3832
   60SAPC  H18R 4647   2.779   4.519   8.747  0.3628 -0.6189 -2.9417
   60SAPC  H18S 4648   2.864   4.396   8.654  0.4621 -0.2469 -0.3661
   60SAPC  C219 4649   2.945   4.411   8.837 -0.6159  0.0474 -0.1715
   60SAPC  H19R 4650   2.918   4.410   8.945 -1.1529 -2.1292 -0.2686
   60SAPC  H19S 4651   3.011   4.499   8.824 -0.9338  0.4016  0.5428
   60SAPC  C220 4652   3.035   4.279   8.817 -0.2612  0.3246 -0.2694
   60SAPC  H20R 4653   3.119   4.275   8.889  0.0902  0.3354 -0.6732
   60SAPC  H20S 4654   3.075   4.282   8.713  0.1548  1.5444 -0.0796
   60SAPC  H20T 4655   2.969   4.190   8.825  0.1926 -0.0649 -0.7417
   60SAPC   C33 4656   2.316   4.036  10.095  0.0962 -0.0126 -0.1374
   60SAPC   H3X 4657   2.222   4.038  10.155  1.0909  0.9677  1.4823
   60SAPC   H3Y 4658   2.331   3.927  10.077  5.8736  0.0909  1.9462
   60SAPC   C34 4659   2.298   4.101   9.965  0.4558  0.1475 -0.0136
   60SAPC   H4X 4660   2.403   4.115   9.932  1.5204  0.7583  3.2587
   60SAPC   H4Y 4661   2.262   4.206   9.971  1.1408  0.3307  1.4532
   60SAPC   C35 4662   2.215   4.017   9.862 -0.1818  0.4713  0.3072
   60SAPC   H5X 4663   2.111   3.993   9.891 -0.3133 -2.0562 -1.8908
   60SAPC   H5Y 4664   2.270   3.924   9.837 -0.4847  0.5704 -0.7816
   60SAPC   C36 4665   2.209   4.093   9.735  0.3129 -0.0715 -0.9083
   60SAPC   H6X 4666   2.312   4.109   9.695  0.5417 -0.6894 -0.5902
   60SAPC   H6Y 4667   2.176   4.196   9.759 -0.1087  0.1044 -2.1539
   60SAPC   C37 4668   2.110   4.052   9.621 -0.3048  0.7744 -0.3175
   60SAPC   H7X 4669   2.010   4.034   9.668  0.1886 -3.0549 -0.4538
   60SAPC   H7Y 4670   2.140   3.953   9.582 -0.2458  0.9095 -0.6152
   60SAPC   C38 4671   2.104   4.151   9.510 -0.2896  0.1276 -0.2883
   60SAPC   H8X 4672   2.211   4.157   9.479  0.6226  0.7212  2.6641
   60SAPC   H8Y 4673   2.071   4.247   9.554  1.0723 -0.2921  1.7872
   60SAPC   C39 4674   2.014   4.083   9.399 -0.0363 -0.2684  0.6317
   60SAPC   H9X 4675   1.909   4.063   9.429 -0.0832 -2.0805 -0.6116
   60SAPC   H9Y 4676   2.049   3.979   9.383 -0.8368 -0.4078 -0.2995
   60SAPC  C310 4677   2.004   4.163   9.271 -0.4054 -0.2162  0.3154
   60SAPC  H10X 4678   1.966   4.265   9.290  1.8634  0.5585  1.0113
   60SAPC  H10Y 4679   1.927   4.111   9.209 -0.8415 -1.7146  2.0407
   60SAPC  C311 4680   2.142   4.167   9.203  0.6044  0.0616 -0.5017
   60SAPC  H11X 4681   2.185   4.065   9.213  1.0314  0.2919  0.0724
   60SAPC  H11Y 4682   2.213   4.231   9.260  0.8370  0.0147 -0.7376
   60SAPC  C312 4683   2.151   4.205   9.050  0.2534  0.1159  0.2975
   60SAPC  H12X 4684   2.256   4.203   9.015  0.4453  1.2299  0.7396
   60SAPC  H12Y 4685   2.125   4.313   9.054  2.0217  0.5529  0.6853
   60SAPC  C313 4686   2.059   4.118   8.967 -0.3777  0.0561  0.2640
   60SAPC  H13X 4687   1.953   4.146   8.980 -0.8756 -0.1701 -2.5735
   60SAPC  H13Y 4688   2.076   4.018   9.011 -0.6625 -0.8575 -1.5886
   60SAPC  C314 4689   2.091   4.099   8.813  0.7025 -0.6361 -0.1844
   60SAPC  H14X 4690   2.074   4.201   8.772 -1.2229 -0.2506  1.4036
   60SAPC  H14Y 4691   2.019   4.035   8.757  1.1417 -2.2330  1.0134
   60SAPC  C315 4692   2.236   4.049   8.800  0.2745  1.3250  0.6620
   60SAPC  H15X 4693   2.242   3.961   8.869  0.4623  1.7474  1.1953
   60SAPC  H15Y 4694   2.308   4.121   8.846  0.3032  0.3854  2.1801
   60SAPC  C316 4695   2.275   4.005   8.663  0.0041  0.3988  0.2812
   60SAPC  H16X 4696   2.195   3.947   8.613  1.6688  0.3715 -2.5951
   60SAPC  H16Y 4697   2.359   3.933   8.673  0.4892  0.9991  0.5929
   60SAPC  C317 4698   2.305   4.130   8.576  0.5038  0.5728  0.2119
   60SAPC  H17X 4699   2.400   4.170   8.617  0.6336 -0.8344  1.3886
   60SAPC  H17Y 4700   2.224   4.202   8.600 -0.6612 -0.6686  0.1541
   60SAPC  C318 4701   2.318   4.110   8.424 -0.1660  0.7114  0.1477
   60SAPC  H18X 4702   2.349   4.204   8.374 -0.9702  0.2689 -1.2395
   60SAPC  H18Y 4703   2.227   4.061   8.384  0.4694  0.5213 -1.1223
   60SAPC  H18Z 4704   2.395   4.033   8.399  0.8911  1.5116  0.8458
   61SAPC     N 4705   4.280   3.775  11.163 -0.6200 -0.3505  0.1491
   61SAPC   C12 4706   4.286   3.827  11.021  0.2586  0.0347  0.0357
   61SAPC  H12A 4707   4.386   3.817  10.982  0.7818 -3.0687  1.7937
   61SAPC  H12B 4708   4.265   3.932  11.013  2.0351  0.4022 -0.1682
   61SAPC   C13 4709   4.339   3.634  11.168 -0.6449  0.0424 -0.5057
   61SAPC  H13A 4710   4.290   3.576  11.091  1.7574 -1.7474 -0.7920
   61SAPC  H13B 4711   4.443   3.628  11.139 -0.2499  1.9465  0.3670
   61SAPC  H13C 4712   4.321   3.593  11.266  0.6388  0.8385  0.0926
   61SAPC   C14 4713   4.348   3.874  11.256  0.1970 -0.3894 -0.5245
   61SAPC  H14A 4714   4.327   3.850  11.359 -3.7645  0.3264 -1.0113
   61SAPC  H14B 4715   4.455   3.886  11.250  0.0520  0.4846 -2.2166
   61SAPC  H14C 4716   4.304   3.970  11.232 -1.4521 -1.2050 -0.9260
   61SAPC   C15 4717   4.141   3.766  11.219  0.1796  0.5296  0.6351
   61SAPC  H15A 4718   4.099   3.864  11.237  1.5112  0.9673  1.4602
   61SAPC  H15B 4719   4.087   3.717  11.139  0.3696  0.8812  0.2894
   61SAPC  H15C 4720   4.137   3.708  11.310  0.2556 -0.9239 -0.2564
   61SAPC   C11 4721   4.185   3.748  10.928  0.0779 -0.2275  0.3545
   61SAPC  H11A 4722   4.210   3.641  10.944  2.1996  0.1054 -0.4391
   61SAPC  H11B 4723   4.222   3.770  10.825 -0.2970 -3.1238 -0.4971
   61SAPC     P 4724   3.986   3.906  10.889  0.1794  0.4776  0.2710
   61SAPC   O13 4725   3.842   3.885  10.913  0.5707  0.0381 -0.1570
   61SAPC   O14 4726   4.054   4.021  10.950  0.5433 -0.4325 -0.3738
   61SAPC   O12 4727   4.049   3.781  10.950  0.4436  0.2443  0.1683
   61SAPC   O11 4728   4.010   3.886  10.732 -0.0583  0.3888  0.7864
   61SAPC    C1 4729   3.973   3.758  10.672 -0.1558  0.0608 -0.6436
   61SAPC    HA 4730   3.982   3.681  10.752 -0.0004  0.4971 -0.2346
   61SAPC    HB 4731   3.869   3.769  10.633 -0.7477 -1.6562  0.3518
   61SAPC    C2 4732   4.064   3.724  10.557  0.2571  0.1761 -0.1937
   61SAPC    HS 4733   4.168   3.730  10.596  0.5923 -1.5189 -0.7498
   61SAPC   O21 4734   4.041   3.816  10.447 -0.4464  0.3525  0.2621
   61SAPC   C21 4735   4.147   3.833  10.368 -1.1179  0.2534  0.1038
   61SAPC   O22 4736   4.258   3.782  10.381 -0.3964 -0.6274  0.2235
   61SAPC   C22 4737   4.108   3.923  10.249  0.7152  0.0938  0.7879
   61SAPC   H2R 4738   4.008   3.892  10.213  2.5996 -2.4599 -2.8364
   61SAPC   H2S 4739   4.086   4.021  10.297 -2.3081  0.3701 -0.8816
   61SAPC    C3 4740   4.045   3.576  10.520  0.1448 -0.6065 -0.3033
   61SAPC    HX 4741   3.940   3.555  10.491 -0.8527  0.0712  2.5231
   61SAPC    HY 4742   4.061   3.510  10.608  1.0283 -1.6639 -1.2326
   61SAPC   O31 4743   4.126   3.544  10.413  0.0887  0.0154 -0.1525
   61SAPC   C31 4744   4.156   3.420  10.391  0.0661 -0.6105 -0.6527
   61SAPC   O32 4745   4.137   3.328  10.469 -0.2424  0.5576  0.4710
   61SAPC   C32 4746   4.232   3.419  10.257 -0.2633 -0.1680 -0.5708
   61SAPC   H2X 4747   4.309   3.339  10.268  0.4824  0.6787  0.6033
   61SAPC   H2Y 4748   4.276   3.518  10.237  1.1041 -0.2614  1.6015
   61SAPC   C23 4749   4.211   3.934  10.141 -0.0064  0.3210 -0.0844
   61SAPC   H3R 4750   4.271   3.842  10.124  0.5955  0.8400 -0.8504
   61SAPC   H3S 4751   4.277   4.020  10.167  1.2622  0.0691 -2.2059
   61SAPC   C24 4752   4.144   3.969  10.003  0.2384 -0.4917 -0.1951
   61SAPC   H4R 4753   4.218   4.012   9.933  1.0317 -0.1328  0.8312
   61SAPC   H4S 4754   4.076   4.051  10.036  0.9982  0.9067 -1.9659
   61SAPC   C25 4755   4.080   3.852   9.941 -0.2994 -0.5572  0.1483
   61SAPC   H5R 4756   4.004   3.803  10.004 -0.9836  0.1302 -0.1159
   61SAPC   C26 4757   4.110   3.800   9.817  0.9433  0.1659  0.6935
   61SAPC   H6R 4758   4.052   3.712   9.786  0.7466 -0.0182  1.5614
   61SAPC   C27 4759   4.197   3.867   9.713  0.1605 -0.0859 -0.0920
   61SAPC   H7R 4760   4.204   3.975   9.740 -1.2135 -0.3439  1.4558
   61SAPC   H7S 4761   4.147   3.871   9.614  0.5999 -0.6929 -0.3426
   61SAPC   C28 4762   4.337   3.805   9.712  0.2954  0.5245  0.5095
   61SAPC   H8R 4763   4.376   3.794   9.814 -1.8837 -1.0503  1.2498
   61SAPC   C29 4764   4.415   3.753   9.614 -0.1715  0.8808  0.3299
   61SAPC   H9R 4765   4.512   3.704   9.627  0.1678  0.0044 -3.9419
   61SAPC  C210 4766   4.380   3.745   9.468  0.7516  0.8709 -0.2438
   61SAPC  H10R 4767   4.467   3.744   9.400 -0.3980  0.4319 -1.7811
   61SAPC  H10S 4768   4.312   3.829   9.440 -0.1755  0.5126  0.8366
   61SAPC  C211 4769   4.305   3.616   9.439  0.4319  0.2317 -0.5288
   61SAPC  H11R 4770   4.291   3.544   9.521 -0.3727 -0.2712 -1.0861
   61SAPC  C212 4771   4.248   3.586   9.323 -0.4012  0.6091 -0.7471
   61SAPC  H12R 4772   4.180   3.500   9.320  0.2340  0.0188  0.9019
   61SAPC  C213 4773   4.253   3.681   9.205 -0.0402 -0.0632  0.5495
   61SAPC  H13R 4774   4.340   3.645   9.147 -0.7824 -1.0938  0.0379
   61SAPC  H13S 4775   4.288   3.785   9.221  1.2190 -0.2703 -0.6941
   61SAPC  C214 4776   4.139   3.672   9.112  0.9174 -0.3548  0.0170
   61SAPC  H14R 4777   4.044   3.699   9.159  0.5560  0.6837 -1.2368
   61SAPC  C215 4778   4.135   3.661   8.980 -0.6759 -0.0107  0.4878
   61SAPC  H15R 4779   4.041   3.656   8.923 -0.2935  1.0347 -0.2769
   61SAPC  C216 4780   4.261   3.659   8.891  0.6613 -0.2174 -0.7778
   61SAPC  H16R 4781   4.276   3.559   8.845 -0.1373 -0.4603 -0.5276
   61SAPC  H16S 4782   4.353   3.694   8.944 -0.8329  2.5289  0.2026
   61SAPC  C217 4783   4.224   3.757   8.774 -0.5843 -0.9928  0.1741
   61SAPC  H17R 4784   4.320   3.758   8.719 -0.5322 -0.3652  0.2596
   61SAPC  H17S 4785   4.215   3.860   8.817  0.4507 -0.7316 -0.1987
   61SAPC  C218 4786   4.122   3.723   8.667 -0.2794 -0.4881  0.0133
   61SAPC  H18R 4787   4.030   3.686   8.717  1.1226 -2.8149  1.0629
   61SAPC  H18S 4788   4.160   3.641   8.602 -0.2905 -0.7505  0.3377
   61SAPC  C219 4789   4.092   3.848   8.575  0.3361 -0.0932 -0.6643
   61SAPC  H19R 4790   4.038   3.796   8.493 -0.6104 -0.5971  0.2679
   61SAPC  H19S 4791   4.186   3.897   8.540 -0.5570  1.1387 -1.4069
   61SAPC  C220 4792   3.996   3.962   8.628 -0.8581  0.6625  0.1393
   61SAPC  H20R 4793   3.896   3.913   8.626 -0.6447  0.2010  0.5154
   61SAPC  H20S 4794   3.988   4.042   8.552 -3.1231 -0.0240 -0.4240
   61SAPC  H20T 4795   4.029   4.000   8.727 -4.4132 -1.8903  2.5767
   61SAPC   C33 4796   4.139   3.384  10.134  0.3037 -0.1426 -0.1329
   61SAPC   H3X 4797   4.067   3.468  10.123 -1.2055 -1.4229 -0.4658
   61SAPC   H3Y 4798   4.083   3.291  10.158  1.2021 -0.9228 -0.9379
   61SAPC   C34 4799   4.220   3.372  10.003  0.0511  0.1863 -0.4717
   61SAPC   H4X 4800   4.314   3.314  10.014  0.4128  1.0294  1.2046
   61SAPC   H4Y 4801   4.251   3.476   9.978 -0.4050  0.7916  1.3397
   61SAPC   C35 4802   4.139   3.289   9.899  0.0070 -1.0735 -0.7528
   61SAPC   H5X 4803   4.036   3.324   9.874 -0.5462 -1.1744  1.2146
   61SAPC   H5Y 4804   4.129   3.192   9.953 -0.7745  0.1174  1.3431
   61SAPC   C36 4805   4.219   3.258   9.771 -0.2503 -0.9265  0.4789
   61SAPC   H6X 4806   4.296   3.190   9.813 -1.3259 -1.8377  1.0182
   61SAPC   H6Y 4807   4.260   3.353   9.730 -0.7710  0.1006  2.2348
   61SAPC   C37 4808   4.131   3.198   9.661 -0.0977  0.5654  0.3456
   61SAPC   H7X 4809   4.040   3.257   9.636 -1.1128 -1.0746 -0.0446
   61SAPC   H7Y 4810   4.093   3.097   9.686  2.2862 -0.8985 -1.4650
   61SAPC   C38 4811   4.207   3.188   9.524 -0.3335  0.0895 -0.3940
   61SAPC   H8X 4812   4.285   3.109   9.524  0.1352  0.5377  0.4772
   61SAPC   H8Y 4813   4.258   3.283   9.497  2.2535 -0.8115  0.9665
   61SAPC   C39 4814   4.114   3.152   9.403 -0.6082 -0.6579  0.2596
   61SAPC   H9X 4815   4.028   3.221   9.400 -0.3533 -0.3741 -0.7634
   61SAPC   H9Y 4816   4.069   3.050   9.396  0.1102 -0.8958 -1.1159
   61SAPC  C310 4817   4.194   3.175   9.268  0.1941  0.4016 -0.5510
   61SAPC  H10X 4818   4.237   3.076   9.239 -0.1813  0.8306 -2.7658
   61SAPC  H10Y 4819   4.280   3.242   9.287  2.8373 -2.9350  0.3888
   61SAPC  C311 4820   4.101   3.217   9.152 -0.3145 -0.0690  0.5428
   61SAPC  H11X 4821   4.064   3.319   9.177 -3.5724 -0.9034 -0.3517
   61SAPC  H11Y 4822   4.018   3.145   9.133 -1.1217  1.2894 -1.3332
   61SAPC  C312 4823   4.175   3.217   9.015 -0.0284  0.1471  0.0256
   61SAPC  H12X 4824   4.226   3.120   8.993 -1.2284 -0.8313  1.4058
   61SAPC  H12Y 4825   4.255   3.291   9.036 -0.8494  0.6994  1.3321
   61SAPC  C313 4826   4.090   3.263   8.899 -0.0211 -0.4826 -0.4907
   61SAPC  H13X 4827   4.041   3.359   8.928  1.4498 -0.5425  2.5277
   61SAPC  H13Y 4828   4.012   3.187   8.878  0.2013 -0.2039 -2.5369
   61SAPC  C314 4829   4.179   3.274   8.775 -0.6736  0.1926  0.9158
   61SAPC  H14X 4830   4.227   3.176   8.754 -1.6425  0.1718 -1.6840
   61SAPC  H14Y 4831   4.268   3.339   8.791  1.4073 -1.8669 -1.3789
   61SAPC  C315 4832   4.100   3.327   8.653  0.3433  0.5478  0.1131
   61SAPC  H15X 4833   4.045   3.422   8.674  0.6510  0.8476 -0.4065
   61SAPC  H15Y 4834   4.035   3.247   8.612  3.2564 -1.5906 -0.6323
   61SAPC  C316 4835   4.191   3.349   8.541 -0.6255 -0.9371 -0.4319
   61SAPC  H16X 4836   4.245   3.257   8.513  1.2234  0.2631 -1.0118
   61SAPC  H16Y 4837   4.271   3.419   8.574 -1.2637 -0.8039  0.9264
   61SAPC  C317 4838   4.131   3.400   8.411  0.1218 -0.1165 -0.0825
   61SAPC  H17X 4839   4.213   3.420   8.339 -0.0898 -2.3707 -1.0218
   61SAPC  H17Y 4840   4.079   3.496   8.435 -0.8738 -0.7704  0.4534
   61SAPC  C318 4841   4.041   3.300   8.342  1.0985 -0.5260 -0.5825
   61SAPC  H18X 4842   3.976   3.349   8.267  0.7490 -2.1189 -1.3752
   61SAPC  H18Y 4843   3.959   3.266   8.410  0.7137 -0.6441 -1.0985
   61SAPC  H18Z 4844   4.094   3.208   8.311 -0.5076 -1.5783 -0.3587
   62SAPC     N 4845   4.976   3.316  10.940 -0.6841 -0.3067 -0.1725
   62SAPC   C12 4846   4.859   3.260  10.857  0.6152  0.9204 -0.2276
   62SAPC  H12A 4847   4.786   3.339  10.849 -0.7756 -0.2113  0.5871
   62SAPC  H12B 4848   4.819   3.191  10.930  0.3125  3.8248  2.5908
   62SAPC   C13 4849   5.058   3.411  10.856 -0.3388 -0.0232 -0.0687
   62SAPC  H13A 4850   5.132   3.472  10.905 -0.3234 -0.2420  0.1839
   62SAPC  H13B 4851   5.109   3.362  10.774 -0.5773 -1.2298  0.4758
   62SAPC  H13C 4852   4.995   3.475  10.796 -1.2176  0.0772  0.9384
   62SAPC   C14 4853   4.926   3.377  11.066  0.4082 -0.0847  0.4148
   62SAPC  H14A 4854   4.901   3.304  11.142  2.3206 -0.0135  1.1734
   62SAPC  H14B 4855   5.002   3.440  11.110 -0.5528  1.8355 -0.5380
   62SAPC  H14C 4856   4.839   3.441  11.059  1.4743  1.6184  1.9596
   62SAPC   C15 4857   5.070   3.204  10.975  0.4362  0.1158  0.2155
   62SAPC  H15A 4858   5.142   3.241  11.047  2.3706 -2.5866 -0.1492
   62SAPC  H15B 4859   5.012   3.122  11.016 -0.6062  0.0472 -1.3187
   62SAPC  H15C 4860   5.122   3.158  10.892  1.3845  1.3409  0.0955
   62SAPC   C11 4861   4.869   3.192  10.715  0.4780  0.2137 -0.6018
   62SAPC  H11A 4862   4.913   3.262  10.640 -2.5554  1.8814 -0.9924
   62SAPC  H11B 4863   4.764   3.173  10.684  0.3618  0.1673 -0.1910
   62SAPC     P 4864   4.868   2.939  10.762  0.1380 -0.2889  0.1079
   62SAPC   O13 4865   4.852   2.928  10.908 -0.0671 -0.0907 -0.7382
   62SAPC   O14 4866   4.747   2.926  10.681 -0.2179 -0.0047 -0.3300
   62SAPC   O12 4867   4.954   3.076  10.734 -0.4333 -0.4046  0.2216
   62SAPC   O11 4868   4.963   2.823  10.725 -0.3532 -0.2203 -0.1590
   62SAPC    C1 4869   4.897   2.708  10.657 -0.3382 -0.1289 -0.2021
   62SAPC    HA 4870   4.949   2.620  10.700 -0.3622  0.3951  0.9499
   62SAPC    HB 4871   4.790   2.694  10.681 -0.8045  1.5146 -1.1598
   62SAPC    C2 4872   4.915   2.706  10.504 -0.6698 -0.2059 -0.4975
   62SAPC    HS 4873   4.849   2.629  10.460 -0.7700 -0.3314 -0.1315
   62SAPC   O21 4874   5.048   2.663  10.481 -0.0606 -0.0591  0.1411
   62SAPC   C21 4875   5.079   2.538  10.492 -0.0694 -0.2316 -0.3996
   62SAPC   O22 4876   5.011   2.447  10.531  0.3001 -0.5299  0.3866
   62SAPC   C22 4877   5.224   2.511  10.451  0.0465 -0.2463  0.4715
   62SAPC   H2R 4878   5.208   2.504  10.342 -0.4083 -1.5813  0.5989
   62SAPC   H2S 4879   5.280   2.602  10.479 -1.9981  0.5860  2.2288
   62SAPC    C3 4880   4.897   2.838  10.435 -0.2044  0.2705  0.6693
   62SAPC    HX 4881   4.975   2.904  10.478  0.8866 -2.2111  2.7568
   62SAPC    HY 4882   4.802   2.890  10.455  0.2980  1.1926  0.6998
   62SAPC   O31 4883   4.898   2.822  10.287 -0.1807 -0.1536  0.0365
   62SAPC   C31 4884   4.981   2.903  10.219  0.3362 -0.4525  0.1785
   62SAPC   O32 4885   5.060   2.978  10.274  0.5652  0.3543  0.2711
   62SAPC   C32 4886   4.970   2.877  10.069  0.1621 -0.1518 -0.0817
   62SAPC   H2X 4887   4.861   2.860  10.051  0.3522  0.0854 -1.5733
   62SAPC   H2Y 4888   5.032   2.787  10.050  0.6022 -0.8808  3.9070
   62SAPC   C23 4889   5.278   2.379  10.494 -0.2195 -0.1789 -0.8070
   62SAPC   H3R 4890   5.237   2.339  10.589  0.6914 -0.5543 -0.5653
   62SAPC   H3S 4891   5.388   2.389  10.489 -0.3228  0.8188 -1.3490
   62SAPC   C24 4892   5.239   2.264  10.403 -0.2866 -0.2211  0.4534
   62SAPC   H4R 4893   5.128   2.259  10.398 -0.2194 -0.4067 -1.4955
   62SAPC   H4S 4894   5.269   2.169  10.453 -2.7496 -0.3854  1.7654
   62SAPC   C25 4895   5.301   2.281  10.266  0.2179 -0.1780  0.3752
   62SAPC   H5R 4896   5.411   2.287  10.259  0.3073 -2.3978 -0.9698
   62SAPC   C26 4897   5.227   2.288  10.149 -0.4284  0.3602 -0.6670
   62SAPC   H6R 4898   5.272   2.287  10.049 -1.0593  0.5273 -0.9608
   62SAPC   C27 4899   5.075   2.284  10.132  0.3996 -0.2558  0.2126
   62SAPC   H7R 4900   5.031   2.257  10.230  1.4242 -0.7451  0.5473
   62SAPC   H7S 4901   5.048   2.202  10.062  1.4777  2.3849 -3.6677
   62SAPC   C28 4902   5.018   2.421  10.093 -0.3872 -0.1410  0.3258
   62SAPC   H8R 4903   4.958   2.468  10.172 -0.9890 -0.5497  0.1170
   62SAPC   C29 4904   5.015   2.477   9.971 -0.4954 -0.7684 -0.8880
   62SAPC   H9R 4905   4.969   2.575   9.952 -0.2322 -0.5568 -0.4536
   62SAPC  C210 4906   5.058   2.414   9.844  0.3229  0.0504  0.5810
   62SAPC  H10R 4907   5.138   2.337   9.851 -0.2369 -0.5852  0.1188
   62SAPC  H10S 4908   5.107   2.494   9.785  2.1009 -2.1940 -1.2028
   62SAPC  C211 4909   4.949   2.334   9.772 -0.4645 -0.8333  0.7279
   62SAPC  H11R 4910   4.906   2.244   9.819 -2.0776  0.1370  1.1818
   62SAPC  C212 4911   4.915   2.355   9.645  0.5808 -0.3145  0.2826
   62SAPC  H12R 4912   4.841   2.287   9.602  0.0088  0.5833 -0.1954
   62SAPC  C213 4913   4.968   2.457   9.542  0.6292  0.2140  0.6734
   62SAPC  H13R 4914   4.970   2.555   9.594 -1.3917  0.7644 -0.1917
   62SAPC  H13S 4915   4.895   2.480   9.462  1.0736 -2.2450 -0.5162
   62SAPC  C214 4916   5.101   2.406   9.487 -0.2533  0.1475  0.3441
   62SAPC  H14R 4917   5.176   2.385   9.564  1.8605  1.2316 -1.2967
   62SAPC  C215 4918   5.133   2.394   9.356 -0.0417 -0.4549  0.3417
   62SAPC  H15R 4919   5.238   2.377   9.329  0.3631  3.5671 -1.2806
   62SAPC  C216 4920   5.049   2.430   9.235  0.3707  0.0205 -0.0620
   62SAPC  H16R 4921   4.951   2.377   9.237  0.7342 -0.7781 -1.8701
   62SAPC  H16S 4922   5.091   2.404   9.136  1.6515  2.2187 -0.1507
   62SAPC  C217 4923   5.041   2.590   9.232  0.4371 -0.2373  0.1099
   62SAPC  H17R 4924   5.135   2.628   9.187  0.0940 -0.1596 -0.5425
   62SAPC  H17S 4925   5.023   2.630   9.334  0.3040 -1.3593  0.5433
   62SAPC  C218 4926   4.918   2.632   9.146 -0.4012  0.3637  0.2141
   62SAPC  H18R 4927   4.912   2.742   9.132 -1.2687  0.0715 -2.1057
   62SAPC  H18S 4928   4.824   2.599   9.194  0.9879 -3.3083  0.7066
   62SAPC  C219 4929   4.923   2.580   8.997  0.0555 -0.3631  0.0273
   62SAPC  H19R 4930   4.894   2.474   9.005  0.3411 -0.4321  0.1508
   62SAPC  H19S 4931   5.020   2.609   8.951 -1.5951  0.4910 -3.1648
   62SAPC  C220 4932   4.813   2.648   8.917 -0.3117 -0.0561  0.0755
   62SAPC  H20R 4933   4.712   2.629   8.957 -0.5826 -0.4124 -0.7472
   62SAPC  H20S 4934   4.820   2.613   8.811 -0.9699  0.3854 -0.1155
   62SAPC  H20T 4935   4.830   2.756   8.900 -1.4313  0.0877 -0.1751
   62SAPC   C33 4936   5.023   2.988   9.977  0.5855 -0.2173 -0.1586
   62SAPC   H3X 4937   5.129   3.016   9.997  1.1408  0.0596 -3.0273
   62SAPC   H3Y 4938   4.954   3.070  10.004 -0.9563 -1.1615 -1.0556
   62SAPC   C34 4939   5.012   2.968   9.828 -0.3808  0.6040 -0.2252
   62SAPC   H4X 4940   4.908   2.990   9.798 -0.6479  0.9030  0.8828
   62SAPC   H4Y 4941   5.034   2.861   9.807  4.1671  1.6084 -1.8495
   62SAPC   C35 4942   5.109   3.056   9.745  0.0766 -0.3076  0.4312
   62SAPC   H5X 4943   5.205   3.052   9.801 -1.0815 -0.8836  2.4889
   62SAPC   H5Y 4944   5.072   3.160   9.749 -2.5782 -1.1908  0.6942
   62SAPC   C36 4945   5.130   3.004   9.601 -0.1538 -0.5723 -0.3062
   62SAPC   H6X 4946   5.149   2.896   9.585 -1.1601 -0.7685 -0.2370
   62SAPC   H6Y 4947   5.216   3.062   9.560 -1.6151  1.7187 -0.3342
   62SAPC   C37 4948   5.006   3.048   9.519  0.2865  0.0868  0.4386
   62SAPC   H7X 4949   4.978   3.152   9.546  2.6232  1.4297 -1.8298
   62SAPC   H7Y 4950   4.918   2.986   9.546 -0.7674  0.8908 -0.9885
   62SAPC   C38 4951   5.028   3.037   9.364 -0.2629 -0.7442  0.4139
   62SAPC   H8X 4952   5.050   2.930   9.341 -1.6505 -1.2337  1.2106
   62SAPC   H8Y 4953   5.117   3.099   9.339 -0.1154 -0.9859  0.3265
   62SAPC   C39 4954   4.902   3.080   9.283  0.0618  0.5973  0.0795
   62SAPC   H9X 4955   4.876   3.185   9.310  1.6107  1.1183 -0.3855
   62SAPC   H9Y 4956   4.811   3.022   9.313  0.9808  0.3090  2.5363
   62SAPC  C310 4957   4.919   3.058   9.142  0.4380  0.4669  0.2887
   62SAPC  H10X 4958   4.822   3.063   9.087  1.1250  0.5668 -0.9611
   62SAPC  H10Y 4959   4.964   2.957   9.137 -2.1612 -0.8640  1.5350
   62SAPC  C311 4960   5.004   3.160   9.076  0.0029  0.1964 -0.2361
   62SAPC  H11X 4961   5.112   3.137   9.087 -0.0569  0.3422  0.7947
   62SAPC  H11Y 4962   4.985   3.261   9.119  0.1946 -0.4776  1.5274
   62SAPC  C312 4963   4.976   3.172   8.919  0.1226 -0.5269  0.4057
   62SAPC  H12X 4964   5.048   3.250   8.885  1.2376 -1.3166  0.9006
   62SAPC  H12Y 4965   4.872   3.204   8.896 -0.0034 -2.2545 -1.8042
   62SAPC  C313 4966   4.998   3.033   8.845 -0.2271 -0.1629  0.2800
   62SAPC  H13X 4967   4.918   2.960   8.865 -0.5941  0.1444 -0.0558
   62SAPC  H13Y 4968   5.088   2.989   8.894 -1.4468 -2.0209  0.9603
   62SAPC  C314 4969   5.010   3.048   8.686 -0.3226 -0.3397 -0.7243
   62SAPC  H14X 4970   5.065   2.956   8.658  2.5632  0.4046  1.8033
   62SAPC  H14Y 4971   5.059   3.143   8.656 -0.3204 -0.5547 -1.4212
   62SAPC  C315 4972   4.868   3.060   8.625 -0.0388 -0.0475  0.4073
   62SAPC  H15X 4973   4.819   3.150   8.667 -1.7147 -0.3088 -0.8721
   62SAPC  H15Y 4974   4.811   2.967   8.649 -0.1547  0.4644  2.2745
   62SAPC  C316 4975   4.873   3.081   8.476  0.5162  0.4076  0.0890
   62SAPC  H16X 4976   4.954   3.152   8.449 -0.5608  1.7827  0.3595
   62SAPC  H16Y 4977   4.786   3.145   8.452 -0.3070 -0.9900 -0.7399
   62SAPC  C317 4978   4.863   2.959   8.381  0.1167  0.4451 -0.0785
   62SAPC  H17X 4979   4.937   2.882   8.413 -1.2694 -1.0095 -0.2705
   62SAPC  H17Y 4980   4.892   2.984   8.277  4.1950 -3.1611 -0.1207
   62SAPC  C318 4981   4.725   2.888   8.376  0.4889  0.1343  0.0804
   62SAPC  H18X 4982   4.705   2.831   8.283  0.0149  2.2073 -1.1564
   62SAPC  H18Y 4983   4.647   2.967   8.383  0.5986  0.0718  3.2381
   62SAPC  H18Z 4984   4.725   2.820   8.464  0.8567 -1.4224 -1.0819
   63SAPC     N 4985   0.185   3.331   6.325 -0.3387 -0.6793 -0.3252
   63SAPC   C12 4986   0.205   3.445   6.430  0.7050  0.3064  0.2583
   63SAPC  H12A 4987   0.276   3.413   6.506 -1.3346  0.7459  2.4695
   63SAPC  H12B 4988   0.109   3.457   6.477  0.1296 -1.4904 -0.3456
   63SAPC   C13 4989   0.085   3.363   6.223  0.4317 -0.5400  0.1737
   63SAPC  H13A 4990   0.113   3.451   6.168 -1.7312 -0.0950 -0.2864
   63SAPC  H13B 4991   0.062   3.286   6.151  0.3184 -0.7789  0.4629
   63SAPC  H13C 4992  -0.001   3.397   6.278  2.1756  0.6772  2.3030
   63SAPC   C14 4993   0.328   3.321   6.268 -0.0595 -0.1458  0.1196
   63SAPC  H14A 4994   0.411   3.290   6.329 -0.1724 -1.6239 -0.4362
   63SAPC  H14B 4995   0.327   3.256   6.182 -2.7250  2.0599 -1.7235
   63SAPC  H14C 4996   0.352   3.418   6.228 -1.7517  0.1391 -0.2986
   63SAPC   C15 4997   0.150   3.203   6.401  0.5499  0.2272  0.3032
   63SAPC  H15A 4998   0.217   3.195   6.486  1.8840  0.5407 -0.6902
   63SAPC  H15B 4999   0.051   3.198   6.444  0.1357 -2.7363 -0.7533
   63SAPC  H15C 5000   0.156   3.116   6.337  0.8818  0.2146  0.3504
   63SAPC   C11 5001   0.244   3.584   6.372  0.4391  0.0529  0.1615
   63SAPC  H11A 5002   0.225   3.661   6.449 -1.0494  0.8624 -0.9556
   63SAPC  H11B 5003   0.165   3.600   6.296  0.5342  2.2101  0.4785
   63SAPC     P 5004   0.509   3.611   6.369 -0.2830 -0.0478 -0.1521
   63SAPC   O13 5005   0.612   3.570   6.269  0.0281 -0.4626 -0.8606
   63SAPC   O14 5006   0.511   3.745   6.420  0.3611 -0.7328  0.3502
   63SAPC   O12 5007   0.369   3.592   6.302 -0.1521 -0.8761  0.0767
   63SAPC   O11 5008   0.496   3.514   6.491 -0.1447 -0.0773 -1.1530
   63SAPC    C1 5009   0.609   3.450   6.549 -0.3590 -0.2515 -0.1880
   63SAPC    HA 5010   0.679   3.407   6.474  2.2054 -2.1926  3.0385
   63SAPC    HB 5011   0.668   3.517   6.615  0.3495 -1.0454  0.0166
   63SAPC    C2 5012   0.565   3.334   6.647 -0.4924 -0.2270 -0.0576
   63SAPC    HS 5013   0.503   3.255   6.599  0.4891 -1.0982  0.0589
   63SAPC   O21 5014   0.494   3.381   6.763  0.6848 -0.5864 -0.0358
   63SAPC   C21 5015   0.355   3.372   6.767 -0.0899  0.3073  1.0689
   63SAPC   O22 5016   0.285   3.313   6.685 -0.2271 -0.5058 -0.2913
   63SAPC   C22 5017   0.309   3.447   6.891  0.2270  0.2433  0.3437
   63SAPC   H2R 5018   0.370   3.539   6.901 -2.4830  2.1276  0.7279
   63SAPC   H2S 5019   0.203   3.482   6.885  0.7982  1.8738 -3.0581
   63SAPC    C3 5020   0.701   3.268   6.697  0.4129  0.3735  0.0794
   63SAPC    HX 5021   0.755   3.223   6.610  1.9041  2.2813 -0.0487
   63SAPC    HY 5022   0.674   3.189   6.770  3.0187 -2.0465 -1.3543
   63SAPC   O31 5023   0.786   3.367   6.757 -0.7670 -0.3688  0.4199
   63SAPC   C31 5024   0.770   3.392   6.893 -0.4139  0.1677 -0.5770
   63SAPC   O32 5025   0.689   3.342   6.967 -0.3268  0.0413  0.3788
   63SAPC   C32 5026   0.850   3.512   6.942 -0.8802 -0.2011  0.3059
   63SAPC   H2X 5027   0.774   3.577   6.990 -0.4448  1.7147 -1.4483
   63SAPC   H2Y 5028   0.886   3.563   6.850 -2.3156 -0.9363 -0.7048
   63SAPC   C23 5029   0.339   3.368   7.019  0.2029  0.3861 -0.1191
   63SAPC   H3R 5030   0.449   3.358   7.023  0.2581  0.4056 -1.2989
   63SAPC   H3S 5031   0.314   3.261   7.001 -1.5402  0.7090  0.2170
   63SAPC   C24 5032   0.282   3.436   7.148 -0.6154 -0.2116 -0.6098
   63SAPC   H4R 5033   0.173   3.454   7.140 -0.4890  1.5525  0.8902
   63SAPC   H4S 5034   0.337   3.533   7.146 -1.7813  0.4609 -1.6442
   63SAPC   C25 5035   0.308   3.343   7.267  0.1132  0.0262 -0.6651
   63SAPC   H5R 5036   0.256   3.246   7.273  0.9091 -0.4741 -1.5604
   63SAPC   C26 5037   0.400   3.360   7.365  0.1747  0.0691 -0.1521
   63SAPC   H6R 5038   0.409   3.286   7.446  2.0610 -0.7036 -1.0104
   63SAPC   C27 5039   0.484   3.483   7.374 -0.0722 -0.1797 -0.8670
   63SAPC   H7R 5040   0.492   3.516   7.480  1.2540 -2.1152 -0.3141
   63SAPC   H7S 5041   0.449   3.570   7.315  1.0053  2.2301  1.7990
   63SAPC   C28 5042   0.624   3.455   7.315  0.7326 -0.4324  0.3014
   63SAPC   H8R 5043   0.617   3.413   7.214 -1.6566  1.7781 -0.5833
   63SAPC   C29 5044   0.743   3.483   7.368 -0.2332  0.1070  0.3188
   63SAPC   H9R 5045   0.830   3.466   7.303 -1.3081 -0.0912 -1.1071
   63SAPC  C210 5046   0.765   3.536   7.508  0.5459 -0.7378 -0.5228
   63SAPC  H10R 5047   0.665   3.556   7.552  1.3475  2.1798  0.2015
   63SAPC  H10S 5048   0.816   3.633   7.490  1.8806 -1.1734  0.7613
   63SAPC  C211 5049   0.862   3.460   7.587 -0.9386 -0.2844  0.2084
   63SAPC  H11R 5050   0.939   3.409   7.528 -2.5835 -0.2175 -2.1116
   63SAPC  C212 5051   0.859   3.433   7.719  0.1172  0.0665 -0.1494
   63SAPC  H12R 5052   0.940   3.368   7.755 -1.2649 -0.7556  1.6440
   63SAPC  C213 5053   0.749   3.480   7.809  0.1365 -0.6890 -0.5533
   63SAPC  H13R 5054   0.698   3.564   7.758  1.3293 -0.5539 -1.5833
   63SAPC  H13S 5055   0.805   3.529   7.891  0.6864 -0.6847 -0.9255
   63SAPC  C214 5056   0.672   3.362   7.867 -1.0273  0.1966  0.2249
   63SAPC  H14R 5057   0.623   3.306   7.786  0.8685  2.1707 -2.4635
   63SAPC  C215 5058   0.665   3.325   7.989 -0.7032  0.0933  0.5675
   63SAPC  H15R 5059   0.603   3.234   8.000  0.4826 -1.1195 -1.9257
   63SAPC  C216 5060   0.724   3.385   8.110  0.5003  0.1479 -0.6921
   63SAPC  H16R 5061   0.789   3.472   8.086 -1.2491  1.6925 -0.0828
   63SAPC  H16S 5062   0.781   3.305   8.162 -0.6801  0.4178  1.1084
   63SAPC  C217 5063   0.604   3.420   8.208  0.6159  0.4431 -0.0052
   63SAPC  H17R 5064   0.637   3.503   8.275 -0.0303  0.7847 -0.1033
   63SAPC  H17S 5065   0.587   3.330   8.271 -1.5586 -0.8370 -2.2464
   63SAPC  C218 5066   0.476   3.466   8.137 -0.1057  0.0504  0.2461
   63SAPC  H18R 5067   0.436   3.393   8.063 -2.0944  0.9227  0.4088
   63SAPC  H18S 5068   0.503   3.547   8.066 -1.1764 -2.1941 -2.9582
   63SAPC  C219 5069   0.354   3.508   8.222  0.0729  0.5871  0.0770
   63SAPC  H19R 5070   0.392   3.552   8.317 -1.2389  0.4790  0.6701
   63SAPC  H19S 5071   0.299   3.412   8.235  0.1941  0.2942 -1.4455
   63SAPC  C220 5072   0.270   3.618   8.146  0.3536 -0.4344  0.3866
   63SAPC  H20R 5073   0.203   3.675   8.214  1.6210  1.0939  0.4143
   63SAPC  H20S 5074   0.203   3.562   8.077  0.1454 -1.6330  1.5132
   63SAPC  H20T 5075   0.337   3.688   8.091 -1.9829  2.1536  0.6673
   63SAPC   C33 5076   0.966   3.483   7.039 -0.4281  0.1829  0.1500
   63SAPC   H3X 5077   1.035   3.405   7.001 -0.4406  0.5302 -0.6155
   63SAPC   H3Y 5078   0.930   3.436   7.133 -0.3615 -2.6043 -1.1260
   63SAPC   C34 5079   1.040   3.619   7.071 -0.4248 -0.2266  0.7598
   63SAPC   H4X 5080   0.957   3.681   7.111  0.0214  1.6056 -1.0143
   63SAPC   H4Y 5081   1.079   3.665   6.978  1.5991  0.1547  1.7338
   63SAPC   C35 5082   1.155   3.625   7.174  0.0708 -0.1694  0.6807
   63SAPC   H5X 5083   1.191   3.729   7.156  0.0573 -0.4754 -1.4426
   63SAPC   H5Y 5084   1.238   3.562   7.134  0.7437  1.2150 -0.2145
   63SAPC   C36 5085   1.111   3.611   7.321 -0.1308  0.0053 -0.5219
   63SAPC   H6X 5086   1.084   3.504   7.329 -0.6255  0.2648  2.4655
   63SAPC   H6Y 5087   1.025   3.676   7.349 -0.8917 -0.6630 -1.2770
   63SAPC   C37 5088   1.231   3.644   7.417  0.3426 -0.0888  0.0722
   63SAPC   H7X 5089   1.251   3.753   7.424  1.4192 -0.3153  0.7480
   63SAPC   H7Y 5090   1.327   3.598   7.384 -0.4878 -1.9596  0.1702
   63SAPC   C38 5091   1.203   3.588   7.562  0.4739  0.3244  0.3409
   63SAPC   H8X 5092   1.213   3.478   7.552 -1.1470  0.0065  1.8850
   63SAPC   H8Y 5093   1.100   3.616   7.591  0.2250 -1.0015  0.7541
   63SAPC   C39 5094   1.315   3.640   7.657  0.0084 -0.4153  0.1772
   63SAPC   H9X 5095   1.331   3.746   7.628  1.2366 -0.7102 -0.2816
   63SAPC   H9Y 5096   1.413   3.593   7.634 -0.3839 -0.9962 -0.3491
   63SAPC  C310 5097   1.278   3.606   7.806 -0.3404 -0.2359  0.1308
   63SAPC  H10X 5098   1.363   3.635   7.871 -0.5854 -1.5952  1.1096
   63SAPC  H10Y 5099   1.276   3.495   7.811 -0.7587 -0.5087 -3.2970
   63SAPC  C311 5100   1.149   3.664   7.876  0.4194  0.3729  0.5882
   63SAPC  H11X 5101   1.049   3.627   7.844  0.6534 -0.0686  0.3656
   63SAPC  H11Y 5102   1.150   3.774   7.862  0.3567  0.1968 -1.0537
   63SAPC  C312 5103   1.141   3.628   8.023  0.3332 -0.1477 -0.2665
   63SAPC  H12X 5104   1.051   3.665   8.076  0.4193  2.7967 -1.9650
   63SAPC  H12Y 5105   1.230   3.675   8.071 -0.9011 -0.1571  2.1598
   63SAPC  C313 5106   1.142   3.482   8.052  0.0333  0.2194  0.5692
   63SAPC  H13X 5107   1.238   3.432   8.030 -1.4594 -2.6805  0.1847
   63SAPC  H13Y 5108   1.070   3.441   7.978  0.8326  3.2887 -2.1378
   63SAPC  C314 5109   1.101   3.439   8.190  0.6919  0.3010  0.2920
   63SAPC  H14X 5110   0.993   3.450   8.212  0.6746  0.1856  0.2677
   63SAPC  H14Y 5111   1.153   3.496   8.270 -0.5063  1.4703  0.2643
   63SAPC  C315 5112   1.112   3.288   8.213 -0.2095  0.0422  0.9359
   63SAPC  H15X 5113   1.216   3.259   8.188 -0.0478  0.2077  1.4078
   63SAPC  H15Y 5114   1.051   3.236   8.136  2.1080 -3.1541  1.0607
   63SAPC  C316 5115   1.070   3.234   8.352  0.0034 -0.0696 -0.5107
   63SAPC  H16X 5116   1.068   3.124   8.337  0.3149 -0.2983  1.0141
   63SAPC  H16Y 5117   0.969   3.272   8.379  0.8223  2.3327 -0.5747
   63SAPC  C317 5118   1.162   3.266   8.462 -0.1943  0.0212 -0.4075
   63SAPC  H17X 5119   1.185   3.375   8.458  2.1350 -0.4124 -0.0837
   63SAPC  H17Y 5120   1.257   3.211   8.449 -0.5119 -0.9109  0.9782
   63SAPC  C318 5121   1.109   3.237   8.600 -0.7030 -0.7801 -0.9055
   63SAPC  H18X 5122   1.179   3.266   8.682 -2.2016 -1.2834  0.6098
   63SAPC  H18Y 5123   1.082   3.131   8.616  1.7737 -1.3196  0.1286
   63SAPC  H18Z 5124   1.013   3.292   8.611  0.9268  2.4010 -1.2492
   64SAPC     N 5125   1.020   0.524   6.236  0.5662  0.2883  0.1724
   64SAPC   C12 5126   1.108   0.617   6.161  0.1503  0.3092 -0.4752
   64SAPC  H12A 5127   1.082   0.718   6.188  0.5297  0.2830  0.0118
   64SAPC  H12B 5128   1.079   0.607   6.058  1.6821 -2.9559 -0.7245
   64SAPC   C13 5129   1.048   0.388   6.184  0.0643  0.5384  0.3410
   64SAPC  H13A 5130   0.997   0.315   6.245  0.0222 -0.2447 -0.6090
   64SAPC  H13B 5131   1.008   0.390   6.084 -2.0242  1.0807  1.1208
   64SAPC  H13C 5132   1.153   0.369   6.173 -0.0241  0.9748 -1.6494
   64SAPC   C14 5133   1.047   0.524   6.380  0.7310  1.0226 -0.7411
   64SAPC  H14A 5134   0.994   0.441   6.425  1.6953 -0.5933 -2.4241
   64SAPC  H14B 5135   1.147   0.484   6.391  0.7141  1.1970  0.1263
   64SAPC  H14C 5136   1.033   0.616   6.434 -2.1873 -0.5537  1.4574
   64SAPC   C15 5137   0.879   0.558   6.203  0.3622 -0.3806 -0.0365
   64SAPC  H15A 5138   0.871   0.665   6.202 -1.5800 -0.4750 -1.9947
   64SAPC  H15B 5139   0.861   0.536   6.099 -0.6344  1.6776 -0.3485
   64SAPC  H15C 5140   0.813   0.510   6.274  0.8724 -0.1165  0.6287
   64SAPC   C11 5141   1.262   0.592   6.183  0.2211  0.8533 -0.4348
   64SAPC  H11A 5142   1.289   0.594   6.290  2.1717  0.3072 -0.8694
   64SAPC  H11B 5143   1.312   0.682   6.143 -1.1607  1.9000  0.1176
   64SAPC     P 5144   1.462   0.436   6.114 -0.5124 -0.4054 -0.1077
   64SAPC   O13 5145   1.481   0.367   5.981 -1.2014  0.4368 -0.4576
   64SAPC   O14 5146   1.540   0.558   6.141  0.5416  0.3805  0.2607
   64SAPC   O12 5147   1.307   0.469   6.124  0.2814 -0.1192 -0.3602
   64SAPC   O11 5148   1.488   0.333   6.231 -0.3323 -0.2457 -0.0280
   64SAPC    C1 5149   1.398   0.224   6.266 -0.2354 -0.0521  0.8739
   64SAPC    HA 5150   1.340   0.180   6.181  1.9282 -2.2881  0.4531
   64SAPC    HB 5151   1.461   0.139   6.299 -1.7540 -1.7716 -0.3654
   64SAPC    C2 5152   1.313   0.265   6.388 -0.0515 -0.1425 -0.3506
   64SAPC    HS 5153   1.247   0.351   6.360  3.1780  2.1317 -1.5568
   64SAPC   O21 5154   1.403   0.294   6.503 -0.0992  0.6773  0.3776
   64SAPC   C21 5155   1.359   0.375   6.598  0.1809 -0.1239  0.3400
   64SAPC   O22 5156   1.266   0.450   6.589  0.0422  0.7063  0.7216
   64SAPC   C22 5157   1.451   0.365   6.723  0.0143 -0.9352 -0.1101
   64SAPC   H2R 5158   1.511   0.271   6.725  3.7249  1.2035  2.5896
   64SAPC   H2S 5159   1.519   0.452   6.733  1.1591 -1.9283  1.2366
   64SAPC    C3 5160   1.220   0.141   6.422  0.9656 -0.4715 -0.2360
   64SAPC    HX 5161   1.283   0.067   6.476  0.5977  0.3328  1.3591
   64SAPC    HY 5162   1.175   0.095   6.332 -1.9851  0.1468  0.8135
   64SAPC   O31 5163   1.103   0.184   6.498 -0.1605  0.0649  0.1254
   64SAPC   C31 5164   1.104   0.152   6.624 -0.7677 -0.0151 -0.0814
   64SAPC   O32 5165   1.191   0.088   6.678  0.0816 -1.4197 -0.1743
   64SAPC   C32 5166   0.991   0.220   6.692  0.2009 -0.2451  0.7555
   64SAPC   H2X 5167   0.896   0.192   6.641 -0.8476  2.1781  1.2253
   64SAPC   H2Y 5168   1.018   0.328   6.691  0.8204 -0.4036  0.1457
   64SAPC   C23 5169   1.370   0.353   6.859 -0.2553 -0.1384  0.7351
   64SAPC   H3R 5170   1.438   0.312   6.938  1.0926  0.0106 -0.3058
   64SAPC   H3S 5171   1.299   0.270   6.840 -0.2056 -0.7155  2.8348
   64SAPC   C24 5172   1.308   0.485   6.907  1.2186 -0.8605 -0.6644
   64SAPC   H4R 5173   1.247   0.470   6.999  1.8493  0.6573  0.0378
   64SAPC   H4S 5174   1.243   0.528   6.827 -0.5342 -2.2886 -0.0835
   64SAPC   C25 5175   1.404   0.591   6.952  0.0307 -0.2513 -0.0984
   64SAPC   H5R 5176   1.466   0.636   6.873  0.9739  2.1627  1.9150
   64SAPC   C26 5177   1.439   0.642   7.066 -0.8417 -0.5125 -0.1697
   64SAPC   H6R 5178   1.520   0.716   7.061 -0.3491 -1.0566 -0.3210
   64SAPC   C27 5179   1.394   0.610   7.202 -0.1302  0.2236 -1.2446
   64SAPC   H7R 5180   1.285   0.626   7.211  0.0267  1.6828 -1.6916
   64SAPC   H7S 5181   1.438   0.685   7.272  1.7383  1.0805 -3.2195
   64SAPC   C28 5182   1.424   0.465   7.248 -0.0973  0.1763 -0.1274
   64SAPC   H8R 5183   1.399   0.394   7.168 -1.0627 -0.1449  0.4405
   64SAPC   C29 5184   1.484   0.414   7.360  0.5484 -0.7130  0.2475
   64SAPC   H9R 5185   1.515   0.308   7.368  1.1653 -0.5202  0.4781
   64SAPC  C210 5186   1.531   0.502   7.475 -0.1786  0.1537 -0.1404
   64SAPC  H10R 5187   1.469   0.481   7.565 -1.4363 -0.0454 -1.0415
   64SAPC  H10S 5188   1.518   0.610   7.449 -2.5154  0.0759  0.5002
   64SAPC  C211 5189   1.678   0.481   7.511 -0.2055 -0.4843 -0.1558
   64SAPC  H11R 5190   1.750   0.533   7.446  0.4355  0.3431  1.1638
   64SAPC  C212 5191   1.730   0.400   7.607  0.1615  0.2552 -1.0689
   64SAPC  H12R 5192   1.838   0.378   7.612  0.8189  2.9660  4.4717
   64SAPC  C213 5193   1.644   0.319   7.704  0.0025 -0.0611 -0.4919
   64SAPC  H13R 5194   1.585   0.239   7.654  1.0868  0.0709 -2.0912
   64SAPC  H13S 5195   1.561   0.379   7.746  0.7713  0.0070  0.9848
   64SAPC  C214 5196   1.727   0.254   7.819 -0.0517  0.2115  0.5740
   64SAPC  H14R 5197   1.827   0.228   7.782  0.2715  1.2711  0.6656
   64SAPC  C215 5198   1.676   0.210   7.939 -0.6184 -0.7607  0.3698
   64SAPC  H15R 5199   1.741   0.164   8.015 -0.2983 -0.3411  0.3532
   64SAPC  C216 5200   1.533   0.225   7.980 -0.0272 -1.0427  0.0325
   64SAPC  H16R 5201   1.491   0.134   8.027 -2.8994  0.6859  1.0432
   64SAPC  H16S 5202   1.463   0.244   7.896 -1.3512 -1.1307  1.0906
   64SAPC  C217 5203   1.514   0.341   8.077  0.4673 -0.0525  0.0024
   64SAPC  H17R 5204   1.615   0.363   8.118  0.5882  0.1242 -0.3894
   64SAPC  H17S 5205   1.446   0.316   8.161  1.4778  0.5191  1.0211
   64SAPC  C218 5206   1.472   0.472   8.017 -0.1699 -0.1930  0.5296
   64SAPC  H18R 5207   1.388   0.453   7.947 -0.4799 -2.4528  1.4031
   64SAPC  H18S 5208   1.555   0.489   7.945 -1.5571 -3.4289 -2.0543
   64SAPC  C219 5209   1.446   0.583   8.124 -0.0709 -0.6457  0.2303
   64SAPC  H19R 5210   1.454   0.685   8.080  0.9879 -1.4147 -1.4473
   64SAPC  H19S 5211   1.528   0.572   8.198 -0.1245 -1.2390  0.2025
   64SAPC  C220 5212   1.314   0.580   8.204 -0.0098  0.5465  0.2647
   64SAPC  H20R 5213   1.225   0.601   8.141  0.4670  1.1488 -0.2217
   64SAPC  H20S 5214   1.308   0.653   8.288  0.4665  1.6170 -0.5992
   64SAPC  H20T 5215   1.293   0.483   8.252  0.1567  1.0167  1.3139
   64SAPC   C33 5216   0.988   0.163   6.837  0.4174  0.2517 -0.5603
   64SAPC   H3X 5217   1.083   0.196   6.886  0.9235 -0.3909 -1.1027
   64SAPC   H3Y 5218   0.974   0.053   6.844  0.1308  0.3569  1.1507
   64SAPC   C34 5219   0.887   0.235   6.927 -0.0026 -0.6460  0.3076
   64SAPC   H4X 5220   0.792   0.193   6.887  0.5293 -1.9385  0.3348
   64SAPC   H4Y 5221   0.892   0.345   6.914 -1.7777 -0.5774 -0.0089
   64SAPC   C35 5222   0.884   0.188   7.075 -0.0878  0.3481  0.3630
   64SAPC   H5X 5223   0.841   0.086   7.088  2.0120 -1.2662 -3.7303
   64SAPC   H5Y 5224   0.804   0.247   7.126 -1.0596  0.0330 -0.7612
   64SAPC   C36 5225   1.013   0.205   7.158  0.0814 -0.1297 -0.5463
   64SAPC   H6X 5226   1.049   0.310   7.147  0.7248 -0.2009  0.7229
   64SAPC   H6Y 5227   1.094   0.146   7.109  1.1372  1.8717 -1.3578
   64SAPC   C37 5228   1.013   0.164   7.299  0.5373 -0.4808  0.4796
   64SAPC   H7X 5229   1.111   0.176   7.349 -0.4027 -1.8683  2.8486
   64SAPC   H7Y 5230   0.986   0.057   7.292  1.0585 -0.6204  0.5975
   64SAPC   C38 5231   0.922   0.252   7.394  0.2585  0.1383 -0.3365
   64SAPC   H8X 5232   0.823   0.258   7.342 -1.6708  0.9256  3.1569
   64SAPC   H8Y 5233   0.966   0.353   7.402  2.3534 -0.8871  3.6139
   64SAPC   C39 5234   0.886   0.179   7.529 -0.0019  0.1157  0.5597
   64SAPC   H9X 5235   0.855   0.073   7.513  1.1527 -0.3042  0.9850
   64SAPC   H9Y 5236   0.796   0.233   7.566  0.6611  0.5538  1.5803
   64SAPC  C310 5237   0.993   0.176   7.636 -0.6346 -0.2027  0.3606
   64SAPC  H10X 5238   1.046   0.273   7.644 -1.2297 -0.0138  3.1125
   64SAPC  H10Y 5239   1.062   0.091   7.616  1.3096  1.2310  0.6390
   64SAPC  C311 5240   0.938   0.162   7.779 -0.4026  0.6631 -0.6589
   64SAPC  H11X 5241   0.879   0.069   7.784 -0.3235  0.6826  1.2379
   64SAPC  H11Y 5242   0.860   0.240   7.793 -2.1505 -1.1325 -0.1423
   64SAPC  C312 5243   1.046   0.163   7.890 -0.5926 -0.2038  0.7153
   64SAPC  H12X 5244   1.118   0.246   7.875 -0.6530  0.3063  2.8655
   64SAPC  H12Y 5245   1.099   0.066   7.887  1.3357  0.8233  0.2564
   64SAPC  C313 5246   0.996   0.187   8.031 -0.1761  0.0587 -0.3508
   64SAPC  H13X 5247   0.913   0.118   8.057 -0.2499  0.2654 -0.0267
   64SAPC  H13Y 5248   0.950   0.288   8.042  1.2938  0.7668 -0.5707
   64SAPC  C314 5249   1.088   0.172   8.150 -0.1036 -0.1282  0.5485
   64SAPC  H14X 5250   1.165   0.252   8.145 -2.7504  2.6748  1.5861
   64SAPC  H14Y 5251   1.134   0.072   8.139  2.9825  1.4353 -3.3163
   64SAPC  C315 5252   1.008   0.191   8.281 -0.0610 -0.2273 -0.8348
   64SAPC  H15X 5253   0.934   0.109   8.288 -1.4349  0.9540 -0.9492
   64SAPC  H15Y 5254   0.962   0.292   8.280 -0.0450 -0.1930  0.3268
   64SAPC  C316 5255   1.098   0.199   8.402 -0.7641 -0.3375  0.3976
   64SAPC  H16X 5256   1.182   0.266   8.374  0.3844 -1.6085  0.6832
   64SAPC  H16Y 5257   1.141   0.099   8.426 -1.0496 -0.3682  0.7831
   64SAPC  C317 5258   1.031   0.259   8.524  0.4259 -0.2343 -1.5533
   64SAPC  H17X 5259   0.964   0.183   8.569 -0.1340 -0.0115 -2.0023
   64SAPC  H17Y 5260   0.962   0.338   8.489  0.3670 -0.4313 -1.8862
   64SAPC  C318 5261   1.115   0.302   8.645 -0.6300 -0.2556 -0.0078
   64SAPC  H18X 5262   1.128   0.221   8.719 -0.2186  0.6503  0.9400
   64SAPC  H18Y 5263   1.071   0.388   8.700 -0.8694 -0.9278  0.8628
   64SAPC  H18Z 5264   1.211   0.348   8.614 -1.1928  0.4651 -0.7354
   65SAPC     N 5265   3.446   2.226   5.900 -0.3941  0.1943  0.2439
   65SAPC   C12 5266   3.411   2.295   6.032  0.2226  0.0560 -0.8937
   65SAPC  H12A 5267   3.313   2.340   6.028  0.5870  0.8459 -1.1575
   65SAPC  H12B 5268   3.487   2.370   6.048  0.1475  0.1275 -0.8726
   65SAPC   C13 5269   3.351   2.120   5.872  0.1895  0.4323  0.4767
   65SAPC  H13A 5270   3.344   2.053   5.957  1.4791 -0.8907 -0.4317
   65SAPC  H13B 5271   3.253   2.161   5.855  0.2634  0.9054  1.1398
   65SAPC  H13C 5272   3.376   2.058   5.787  0.1803 -1.4661  1.7787
   65SAPC   C14 5273   3.435   2.322   5.782 -0.6157  0.1529  0.0468
   65SAPC  H14A 5274   3.468   2.280   5.687 -1.4260  1.0099 -0.6345
   65SAPC  H14B 5275   3.334   2.360   5.774 -0.9712 -0.1692  2.4988
   65SAPC  H14C 5276   3.496   2.410   5.800  0.1179 -0.5442  1.0598
   65SAPC   C15 5277   3.578   2.166   5.889 -0.0737  0.6343  0.6099
   65SAPC  H15A 5278   3.658   2.238   5.900  1.3464 -0.5630 -1.2307
   65SAPC  H15B 5279   3.599   2.092   5.965  1.1878 -3.4955 -3.3045
   65SAPC  H15C 5280   3.594   2.115   5.795 -1.9059  3.4729 -1.4257
   65SAPC   C11 5281   3.400   2.200   6.151 -0.4674 -0.3267  0.3760
   65SAPC  H11A 5282   3.332   2.113   6.140  1.0099 -1.4994  0.1874
   65SAPC  H11B 5283   3.350   2.256   6.233  0.2176  0.6911  0.1121
   65SAPC     P 5284   3.575   2.003   6.209  0.2223 -0.2774  0.2892
   65SAPC   O13 5285   3.515   1.925   6.097 -0.5337 -1.3114 -0.2249
   65SAPC   O14 5286   3.721   2.016   6.227 -0.1580 -0.3075 -0.0730
   65SAPC   O12 5287   3.529   2.155   6.193  0.0560  0.0988 -0.1257
   65SAPC   O11 5288   3.494   1.968   6.346  0.1463 -0.9523 -0.0910
   65SAPC    C1 5289   3.514   2.057   6.461  0.2966 -0.1054  0.3230
   65SAPC    HA 5290   3.596   2.132   6.452  2.0403 -1.9603 -0.0791
   65SAPC    HB 5291   3.419   2.110   6.482  0.7869  0.2559  1.7779
   65SAPC    C2 5292   3.538   1.968   6.586 -0.1190  0.3685 -0.3603
   65SAPC    HS 5293   3.541   2.040   6.671  0.5759 -0.8380  0.6789
   65SAPC   O21 5294   3.659   1.889   6.570 -0.0399 -0.8532 -0.1045
   65SAPC   C21 5295   3.719   1.855   6.676 -0.4041  0.8654  0.3878
   65SAPC   O22 5296   3.677   1.874   6.789 -0.5008 -0.3559  0.0677
   65SAPC   C22 5297   3.851   1.788   6.641 -0.7496  0.5398  0.0856
   65SAPC   H2R 5298   3.831   1.679   6.651  1.5690 -0.0580 -1.2241
   65SAPC   H2S 5299   3.876   1.794   6.532  0.5614 -0.7646  0.2845
   65SAPC    C3 5300   3.413   1.879   6.609  0.2972  0.3170 -0.4684
   65SAPC    HX 5301   3.406   1.799   6.532 -0.8399 -0.1943  0.1444
   65SAPC    HY 5302   3.319   1.938   6.595  0.9838  1.3305 -0.9675
   65SAPC   O31 5303   3.390   1.831   6.746 -0.2226 -0.3321 -0.7724
   65SAPC   C31 5304   3.405   1.694   6.769 -0.4468 -0.0677  0.1500
   65SAPC   O32 5305   3.415   1.610   6.686  0.3061 -0.3235  0.1688
   65SAPC   C32 5306   3.369   1.677   6.917 -0.2460  0.2497 -0.5646
   65SAPC   H2X 5307   3.385   1.571   6.943 -1.3903 -0.1104 -1.2353
   65SAPC   H2Y 5308   3.260   1.694   6.929  0.0050  0.4627  2.0434
   65SAPC   C23 5309   3.971   1.849   6.726 -0.5861  0.3243 -0.4514
   65SAPC   H3R 5310   3.936   1.873   6.828  0.7095  1.6534 -0.2897
   65SAPC   H3S 5311   4.022   1.934   6.674 -0.7074 -0.3978 -1.8059
   65SAPC   C24 5312   4.089   1.744   6.737 -0.1878  0.8148  0.3191
   65SAPC   H4R 5313   4.082   1.692   6.640 -0.4373  1.8665 -0.2444
   65SAPC   H4S 5314   4.048   1.666   6.805 -0.4082 -0.4896 -1.2588
   65SAPC   C25 5315   4.217   1.797   6.792 -0.5168  0.0357  1.1411
   65SAPC   H5R 5316   4.282   1.833   6.711 -1.0731  1.9497  1.5000
   65SAPC   C26 5317   4.267   1.817   6.914  0.0108  0.2413 -0.0782
   65SAPC   H6R 5318   4.364   1.865   6.935  0.9934 -1.4436 -0.5124
   65SAPC   C27 5319   4.188   1.779   7.037  0.8198  0.3748  0.2576
   65SAPC   H7R 5320   4.263   1.748   7.113  2.6552 -1.8162 -2.2596
   65SAPC   H7S 5321   4.120   1.692   7.026 -0.4651  1.2709  0.8263
   65SAPC   C28 5322   4.093   1.884   7.087  0.3139  0.0778  0.9562
   65SAPC   H8R 5323   4.030   1.928   7.008 -0.1275  3.3713  2.9693
   65SAPC   C29 5324   4.092   1.928   7.216  0.7710  0.1911  0.1543
   65SAPC   H9R 5325   3.997   1.979   7.242  1.0735  0.1305  1.4352
   65SAPC  C210 5326   4.185   1.876   7.334  0.2724 -0.0959 -0.6820
   65SAPC  H10R 5327   4.237   1.968   7.369 -0.4146 -1.3496  4.3101
   65SAPC  H10S 5328   4.261   1.800   7.310  0.9477 -0.1002  1.2819
   65SAPC  C211 5329   4.117   1.812   7.454  0.0348  0.6923  0.5233
   65SAPC  H11R 5330   4.101   1.705   7.436 -1.4737  1.0520 -0.4319
   65SAPC  C212 5331   4.077   1.868   7.568  0.5687 -1.1827  0.3620
   65SAPC  H12R 5332   4.021   1.811   7.644 -0.4921 -0.7303 -0.0563
   65SAPC  C213 5333   4.091   2.015   7.590  0.6113  0.3390 -0.2379
   65SAPC  H13R 5334   4.103   2.073   7.496  1.3045  1.7085  0.6535
   65SAPC  H13S 5335   4.183   2.035   7.649  1.6718 -0.6847 -1.4992
   65SAPC  C214 5336   3.970   2.060   7.675  0.0474  0.1168  0.0605
   65SAPC  H14R 5337   3.875   2.096   7.633 -0.0874 -0.8514 -0.4973
   65SAPC  C215 5338   3.967   2.044   7.804 -0.4860 -0.2817 -0.5096
   65SAPC  H15R 5339   3.879   2.073   7.863  0.1598  1.2787 -0.2756
   65SAPC  C216 5340   4.080   1.990   7.886  0.3707 -0.0341  0.9367
   65SAPC  H16R 5341   4.150   2.074   7.902 -1.0208  1.7786 -1.7017
   65SAPC  H16S 5342   4.131   1.907   7.831  0.8057  1.1212 -0.4785
   65SAPC  C217 5343   4.028   1.921   8.010 -0.4369 -0.4415 -0.6002
   65SAPC  H17R 5344   4.098   1.868   8.078 -0.2001  0.1296 -0.3921
   65SAPC  H17S 5345   3.947   1.854   7.973 -1.6171  1.0265 -0.7736
   65SAPC  C218 5346   3.968   2.026   8.103  0.7506 -0.5559 -0.9648
   65SAPC  H18R 5347   3.881   2.088   8.071  1.4855  1.9723  1.5262
   65SAPC  H18S 5348   4.040   2.107   8.125  0.6488 -0.4165 -1.1383
   65SAPC  C219 5349   3.921   1.959   8.237 -0.3449  0.4744  0.1308
   65SAPC  H19R 5350   3.986   1.874   8.268 -3.4674 -0.9401  3.4801
   65SAPC  H19S 5351   3.822   1.912   8.219  0.4384 -1.1982 -0.0397
   65SAPC  C220 5352   3.924   2.057   8.349 -0.4582  0.1598  0.5339
   65SAPC  H20R 5353   4.021   2.106   8.369 -0.0552 -0.7951  0.9758
   65SAPC  H20S 5354   3.889   1.997   8.436 -0.7884 -1.3385 -0.5816
   65SAPC  H20T 5355   3.851   2.139   8.328  0.0135  0.9731  1.9158
   65SAPC   C33 5356   3.452   1.770   7.008 -0.0645  0.1702 -1.2117
   65SAPC   H3X 5357   3.435   1.874   6.970 -0.6036  0.5232 -0.0543
   65SAPC   H3Y 5358   3.557   1.741   6.986  0.1957  1.0664 -1.2106
   65SAPC   C34 5359   3.433   1.769   7.158  0.3125  0.6477 -0.1428
   65SAPC   H4X 5360   3.514   1.826   7.208 -0.6492  0.4425  1.7074
   65SAPC   H4Y 5361   3.439   1.666   7.200 -0.4472 -0.6379 -2.9221
   65SAPC   C35 5362   3.299   1.831   7.198 -0.1229 -0.4308 -0.0341
   65SAPC   H5X 5363   3.208   1.789   7.149  0.0388 -2.2547  1.1396
   65SAPC   H5Y 5364   3.301   1.934   7.155  1.9944 -0.5785 -0.3782
   65SAPC   C36 5365   3.280   1.837   7.343 -0.1727 -0.6579 -0.2472
   65SAPC   H6X 5366   3.373   1.867   7.395 -0.8915  3.0531 -0.8049
   65SAPC   H6Y 5367   3.250   1.742   7.393 -0.5774  0.2206  1.2290
   65SAPC   C37 5368   3.181   1.937   7.391  0.4373  0.0542  0.1687
   65SAPC   H7X 5369   3.076   1.933   7.354  0.5634  3.5545 -0.9315
   65SAPC   H7Y 5370   3.215   2.031   7.341 -0.4840 -0.3143 -1.2058
   65SAPC   C38 5371   3.170   1.951   7.542  1.0960  0.0811  0.3214
   65SAPC   H8X 5372   3.140   2.053   7.576  1.2197 -0.1985  1.2806
   65SAPC   H8Y 5373   3.265   1.925   7.591  0.7461  0.3574  1.1626
   65SAPC   C39 5374   3.067   1.851   7.596 -0.1073  0.1797 -0.0837
   65SAPC   H9X 5375   3.095   1.750   7.562 -0.6129 -0.3893  1.1083
   65SAPC   H9Y 5376   2.968   1.888   7.561  0.6395 -0.0331 -2.5653
   65SAPC  C310 5377   3.059   1.843   7.747 -0.3565 -0.2402 -0.2452
   65SAPC  H10X 5378   3.159   1.836   7.796 -0.3673 -0.2593 -0.2262
   65SAPC  H10Y 5379   3.011   1.745   7.764 -0.2952 -0.2444 -0.0902
   65SAPC  C311 5380   3.000   1.967   7.820 -0.5658  0.0833 -0.3757
   65SAPC  H11X 5381   2.895   1.993   7.799 -1.3065 -1.1919  1.4461
   65SAPC  H11Y 5382   3.050   2.054   7.772  1.4920 -1.2272 -0.7789
   65SAPC  C312 5383   3.026   1.960   7.973  0.1329  0.0757  0.2288
   65SAPC  H12X 5384   3.129   1.926   7.995 -0.7764 -1.3290  2.7290
   65SAPC  H12Y 5385   2.960   1.875   8.004 -0.8673  0.2491 -1.3049
   65SAPC  C313 5386   3.000   2.096   8.038  0.2307  0.2382  0.3405
   65SAPC  H13X 5387   2.891   2.120   8.034  0.3200  0.6501  0.3415
   65SAPC  H13Y 5388   3.045   2.174   7.973 -0.4475  0.7655  0.4884
   65SAPC  C314 5389   3.060   2.108   8.184  0.0829  0.2717  0.1037
   65SAPC  H14X 5390   3.046   2.212   8.219  1.7556  0.9181 -1.0102
   65SAPC  H14Y 5391   3.169   2.086   8.182  0.3519  1.2776  1.7858
   65SAPC  C315 5392   3.015   1.997   8.282 -0.2743  0.0318  0.3793
   65SAPC  H15X 5393   3.065   2.007   8.381  1.2656  1.7516 -0.5176
   65SAPC  H15Y 5394   3.046   1.905   8.228 -0.6962  0.8191 -1.2758
   65SAPC  C316 5395   2.861   1.998   8.304  0.6547 -0.1848  0.3086
   65SAPC  H16X 5396   2.831   1.899   8.345  0.5389  0.5938  2.1943
   65SAPC  H16Y 5397   2.802   2.002   8.209  0.9731 -0.5056  0.0939
   65SAPC  C317 5398   2.828   2.099   8.406 -0.1566 -0.2182  0.5986
   65SAPC  H17X 5399   2.831   2.199   8.359  1.1262 -0.7253 -0.4337
   65SAPC  H17Y 5400   2.909   2.095   8.481  1.0660  0.3916 -0.6523
   65SAPC  C318 5401   2.700   2.060   8.487 -0.4203  0.5016  0.0595
   65SAPC  H18X 5402   2.687   2.144   8.559 -0.8693  1.9443 -1.6537
   65SAPC  H18Y 5403   2.708   1.969   8.551 -2.7548 -0.6501 -1.1787
   65SAPC  H18Z 5404   2.617   2.053   8.414  0.8492  4.0557 -1.9648
   66SAPC     N 5405   0.894   2.982   5.858 -0.4087  0.2568 -0.4604
   66SAPC   C12 5406   0.948   2.987   6.000 -0.4148 -0.0097 -0.4447
   66SAPC  H12A 5407   0.904   3.069   6.055 -0.6940 -1.1065  1.0200
   66SAPC  H12B 5408   1.054   3.008   6.000 -0.2624 -0.7560 -0.9729
   66SAPC   C13 5409   0.934   3.104   5.791 -0.4477 -0.6082  0.3244
   66SAPC  H13A 5410   0.898   3.195   5.835  2.5091 -0.1219  1.9813
   66SAPC  H13B 5411   1.042   3.107   5.788 -0.4652 -0.3516 -0.3910
   66SAPC  H13C 5412   0.896   3.098   5.690  1.2389 -0.5167 -0.3531
   66SAPC   C14 5413   0.968   2.864   5.796 -0.0993  0.4975  0.2121
   66SAPC  H14A 5414   0.962   2.785   5.869  1.9035  0.6587  0.5981
   66SAPC  H14B 5415   0.924   2.837   5.701 -1.4457 -3.4645  1.7322
   66SAPC  H14C 5416   1.068   2.904   5.787  0.5918 -1.4507 -1.7971
   66SAPC   C15 5417   0.748   2.959   5.848  0.4965  0.6598  0.3755
   66SAPC  H15A 5418   0.685   3.019   5.912  1.2737  2.1429 -0.2013
   66SAPC  H15B 5419   0.715   2.971   5.746 -0.8106 -2.3628  0.3484
   66SAPC  H15C 5420   0.729   2.854   5.864 -0.2835  0.7313 -0.0501
   66SAPC   C11 5421   0.926   2.869   6.098  0.4681  0.0632 -0.1972
   66SAPC  H11A 5422   0.819   2.840   6.086  0.4522 -0.9825  1.9924
   66SAPC  H11B 5423   0.945   2.900   6.203 -0.3710  1.2861 -0.3961
   66SAPC     P 5424   1.159   2.768   6.095 -0.4296  0.4679  0.0082
   66SAPC   O13 5425   1.228   2.645   6.053 -0.2075 -0.0066 -0.7121
   66SAPC   O14 5426   1.214   2.901   6.051 -0.6737  0.0337 -0.2901
   66SAPC   O12 5427   1.006   2.753   6.062  0.5590 -0.5381 -0.5217
   66SAPC   O11 5428   1.166   2.777   6.258  0.4345  0.2094  0.5269
   66SAPC    C1 5429   1.138   2.649   6.322 -0.1631 -0.3326 -0.8371
   66SAPC    HA 5430   1.176   2.559   6.270  0.8474 -0.4082 -0.0228
   66SAPC    HB 5431   1.184   2.652   6.424 -1.2659 -0.5291 -0.3138
   66SAPC    C2 5432   0.991   2.630   6.357  0.1967 -1.1418 -1.1999
   66SAPC    HS 5433   0.928   2.667   6.273 -0.9023  0.8389  0.4003
   66SAPC   O21 5434   0.972   2.731   6.462 -0.1441  0.2623  0.0572
   66SAPC   C21 5435   0.844   2.734   6.498  0.0039 -0.2651  0.4331
   66SAPC   O22 5436   0.747   2.684   6.447  0.3241  0.0640 -0.0310
   66SAPC   C22 5437   0.833   2.803   6.628  0.3399 -0.2384 -0.5459
   66SAPC   H2R 5438   0.930   2.849   6.658 -1.2465  2.5029  0.8152
   66SAPC   H2S 5439   0.771   2.895   6.621  1.9759  0.8698 -1.1236
   66SAPC    C3 5440   0.964   2.480   6.390  0.7428 -0.1816  0.1245
   66SAPC    HX 5441   0.985   2.427   6.295 -0.0363  0.7341 -0.5718
   66SAPC    HY 5442   0.857   2.459   6.412  0.2960  1.0205 -0.8097
   66SAPC   O31 5443   1.040   2.427   6.496 -1.1352 -0.4286 -0.4453
   66SAPC   C31 5444   1.065   2.300   6.499 -0.1485  0.3223 -0.1642
   66SAPC   O32 5445   1.002   2.215   6.434 -0.4079 -0.5297 -0.5728
   66SAPC   C32 5446   1.165   2.271   6.618  0.5612 -0.4956  0.5200
   66SAPC   H2X 5447   1.117   2.321   6.705  0.1887 -1.5719  0.9462
   66SAPC   H2Y 5448   1.269   2.305   6.597  0.8375 -0.7821  1.3822
   66SAPC   C23 5449   0.774   2.700   6.733 -0.1165  0.3286  0.1687
   66SAPC   H3R 5450   0.685   2.642   6.699 -0.6733  0.1876  1.7669
   66SAPC   H3S 5451   0.746   2.763   6.820 -0.7856 -1.4224  1.2824
   66SAPC   C24 5452   0.877   2.601   6.783  0.6195  0.6895  0.1331
   66SAPC   H4R 5453   0.914   2.543   6.696 -0.1869 -1.1717  0.9655
   66SAPC   H4S 5454   0.831   2.523   6.848 -0.7513  0.2540 -1.2918
   66SAPC   C25 5455   0.991   2.659   6.850  0.8041 -0.3215 -0.3436
   66SAPC   H5R 5456   1.064   2.710   6.785  2.2632 -2.5848 -0.5917
   66SAPC   C26 5457   1.022   2.660   6.983 -0.0394  0.0408  0.0071
   66SAPC   H6R 5458   1.115   2.707   7.019 -1.0256  0.1776  2.6108
   66SAPC   C27 5459   0.944   2.602   7.100 -0.4134  0.4156  1.1699
   66SAPC   H7R 5460   0.840   2.579   7.070  0.1252 -1.7555  0.7972
   66SAPC   H7S 5461   0.933   2.675   7.184 -0.6519 -1.0437  2.4399
   66SAPC   C28 5462   1.002   2.469   7.149  0.3064 -0.4974 -0.3645
   66SAPC   H8R 5463   1.011   2.391   7.072  0.8880 -0.2108 -0.6017
   66SAPC   C29 5464   1.053   2.433   7.267 -0.2415 -0.5012  0.1556
   66SAPC   H9R 5465   1.094   2.332   7.275 -0.5142 -0.6701 -0.5451
   66SAPC  C210 5466   1.070   2.520   7.386 -0.0701 -0.1998 -0.6486
   66SAPC  H10R 5467   0.971   2.538   7.434  0.1432  2.6325 -1.1179
   66SAPC  H10S 5468   1.111   2.620   7.362 -0.5033  0.3487  0.7891
   66SAPC  C211 5469   1.177   2.474   7.478 -0.0991  0.1683  0.2146
   66SAPC  H11R 5470   1.280   2.510   7.465  0.1589 -0.8082 -0.5544
   66SAPC  C212 5471   1.146   2.396   7.586 -0.0487  0.9121 -0.1889
   66SAPC  H12R 5472   1.227   2.354   7.646 -1.1336 -1.3195 -0.1579
   66SAPC  C213 5473   1.012   2.343   7.618 -0.5384 -0.4438 -0.5813
   66SAPC  H13R 5474   1.032   2.247   7.670  0.6115 -0.9311 -1.8543
   66SAPC  H13S 5475   0.952   2.325   7.527  0.9225  0.7923 -1.8582
   66SAPC  C214 5476   0.934   2.434   7.707 -0.1473  0.6584 -0.3711
   66SAPC  H14R 5477   0.863   2.500   7.655 -0.5198  1.7175  1.3925
   66SAPC  C215 5478   0.943   2.452   7.841  0.7362 -0.0877 -0.0486
   66SAPC  H15R 5479   0.867   2.511   7.895  1.3449  1.0528 -0.3918
   66SAPC  C216 5480   1.039   2.387   7.942 -0.2962  0.1048  0.2785
   66SAPC  H16R 5481   1.096   2.454   8.010  0.2319 -0.5311  0.4710
   66SAPC  H16S 5482   1.110   2.323   7.884 -0.6489 -0.2632  0.2504
   66SAPC  C217 5483   0.976   2.274   8.035 -0.4753 -0.2903 -0.3761
   66SAPC  H17R 5484   1.066   2.223   8.076 -0.5496  0.8114  1.2245
   66SAPC  H17S 5485   0.913   2.202   7.978 -1.7326  1.6718 -1.5815
   66SAPC  C218 5486   0.886   2.327   8.144  0.0387  0.4268 -0.0642
   66SAPC  H18R 5487   0.792   2.369   8.103  0.7423 -0.8592 -3.2809
   66SAPC  H18S 5488   0.944   2.410   8.188 -0.9837  1.3732 -0.4495
   66SAPC  C219 5489   0.854   2.226   8.253 -0.2471 -0.3585  0.6982
   66SAPC  H19R 5490   0.950   2.191   8.297 -0.2254  0.1329  1.0395
   66SAPC  H19S 5491   0.814   2.129   8.215  1.0193  0.0326 -1.9094
   66SAPC  C220 5492   0.766   2.292   8.360 -0.6646  0.2293 -0.2481
   66SAPC  H20R 5493   0.660   2.277   8.332 -0.3226 -1.2063 -0.8785
   66SAPC  H20S 5494   0.784   2.400   8.380  3.4253 -0.6011  1.6369
   66SAPC  H20T 5495   0.775   2.239   8.457 -2.3684 -1.3009 -0.8821
   66SAPC   C33 5496   1.185   2.120   6.637 -0.0196 -0.6567 -0.3725
   66SAPC   H3X 5497   1.275   2.091   6.696  0.3657 -1.3172 -1.2579
   66SAPC   H3Y 5498   1.205   2.080   6.536 -1.2465  1.5999 -1.5801
   66SAPC   C34 5499   1.063   2.061   6.694  0.3321 -0.1485 -0.6841
   66SAPC   H4X 5500   1.071   1.950   6.684 -1.3729 -0.2776 -0.9964
   66SAPC   H4Y 5501   0.972   2.090   6.636  1.2617 -1.2645 -2.8354
   66SAPC   C35 5502   1.043   2.084   6.847 -0.1888 -0.2148  0.0176
   66SAPC   H5X 5503   0.953   2.026   6.877  0.6906 -2.8385 -2.0121
   66SAPC   H5Y 5504   1.019   2.192   6.859  2.5851  0.5716 -0.7268
   66SAPC   C36 5505   1.153   2.045   6.947  0.1650  0.4849 -0.2039
   66SAPC   H6X 5506   1.250   2.098   6.930  0.4204  0.2063  0.3723
   66SAPC   H6Y 5507   1.175   1.936   6.943 -1.4099  0.1662 -1.1775
   66SAPC   C37 5508   1.110   2.079   7.093 -0.2626  0.9191  0.8252
   66SAPC   H7X 5509   1.007   2.040   7.103 -0.3696 -0.2757 -3.2455
   66SAPC   H7Y 5510   1.116   2.188   7.113  0.5757  0.9330  0.5467
   66SAPC   C38 5511   1.213   2.013   7.189 -0.0334 -0.1169  0.3674
   66SAPC   H8X 5512   1.309   2.067   7.173 -1.7449  3.2082  0.3846
   66SAPC   H8Y 5513   1.217   1.904   7.173 -1.0062 -0.6705  3.3915
   66SAPC   C39 5514   1.192   2.040   7.341  0.0001  0.0092  0.4969
   66SAPC   H9X 5515   1.094   2.005   7.379 -0.4071  0.4407 -0.1287
   66SAPC   H9Y 5516   1.192   2.151   7.353 -0.0085 -0.1202  1.8045
   66SAPC  C310 5517   1.316   1.981   7.413 -0.1553 -1.0130 -0.5756
   66SAPC  H10X 5518   1.397   2.044   7.374 -0.6687 -1.1662 -1.9334
   66SAPC  H10Y 5519   1.344   1.879   7.378  1.7337 -1.3540  1.6878
   66SAPC  C311 5520   1.304   1.991   7.566 -0.3879 -0.3055 -0.0836
   66SAPC  H11X 5521   1.226   1.917   7.593 -1.3643  0.8100  0.2587
   66SAPC  H11Y 5522   1.253   2.086   7.595 -1.9761 -0.9721 -0.5881
   66SAPC  C312 5523   1.439   1.972   7.639  0.1633 -0.3973  0.5265
   66SAPC  H12X 5524   1.514   2.042   7.595 -0.7827 -0.7067 -1.7548
   66SAPC  H12Y 5525   1.473   1.868   7.621 -0.9447 -0.5827 -0.7259
   66SAPC  C313 5526   1.425   1.998   7.783 -0.1558  0.5822  0.3793
   66SAPC  H13X 5527   1.345   1.929   7.817 -1.1676  0.1922 -2.5118
   66SAPC  H13Y 5528   1.393   2.104   7.796 -0.5565  0.7674 -1.6649
   66SAPC  C314 5529   1.546   1.966   7.875 -0.0920 -0.3800 -0.0062
   66SAPC  H14X 5530   1.628   2.035   7.846 -1.4884  1.0352 -0.7664
   66SAPC  H14Y 5531   1.586   1.863   7.864 -1.1992 -0.8328  0.0255
   66SAPC  C315 5532   1.520   1.984   8.032  0.0161  0.3480  0.5078
   66SAPC  H15X 5533   1.431   1.922   8.057  0.9192 -2.1934 -1.9387
   66SAPC  H15Y 5534   1.501   2.089   8.062 -0.9235  1.1483 -2.5693
   66SAPC  C316 5535   1.647   1.940   8.121 -0.4391  0.0814 -0.1379
   66SAPC  H16X 5536   1.618   1.976   8.222  1.5410 -0.6966  0.7740
   66SAPC  H16Y 5537   1.746   1.978   8.088  0.7772 -1.1322  1.8874
   66SAPC  C317 5538   1.659   1.782   8.129  0.6764  0.5292 -0.1422
   66SAPC  H17X 5539   1.722   1.749   8.043  3.4988  3.7983  0.4437
   66SAPC  H17Y 5540   1.565   1.730   8.102  1.3272 -0.5504 -0.4112
   66SAPC  C318 5541   1.712   1.720   8.259  0.3802 -0.1820  0.2467
   66SAPC  H18X 5542   1.814   1.759   8.276  0.1078  0.0404  1.4198
   66SAPC  H18Y 5543   1.721   1.610   8.267  0.7408 -0.1530  0.2281
   66SAPC  H18Z 5544   1.652   1.754   8.346  1.8446  0.6267  0.9747
   67SAPC     N 5545   4.409   4.943   6.251 -0.1880 -0.1927 -0.0464
   67SAPC   C12 5546   4.409   4.874   6.388 -0.0868 -0.4026 -0.3271
   67SAPC  H12A 5547   4.404   4.939   6.474  3.3691 -1.1278  0.5620
   67SAPC  H12B 5548   4.505   4.830   6.407  0.3652  0.5011 -0.4828
   67SAPC   C13 5549   4.418   4.840   6.146 -0.1980 -1.0663  0.3922
   67SAPC  H13A 5550   4.516   4.797   6.136 -0.2230 -1.0796  0.2019
   67SAPC  H13B 5551   4.347   4.763   6.172 -1.4820  0.7459  2.7664
   67SAPC  H13C 5552   4.386   4.880   6.051 -0.9972 -1.1983  0.5957
   67SAPC   C14 5553   4.287   5.026   6.229  0.6568 -0.2111  0.6984
   67SAPC  H14A 5554   4.274   5.054   6.126 -0.2877  0.6431  1.0260
   67SAPC  H14B 5555   4.196   4.973   6.254  1.1433 -2.4476 -1.8306
   67SAPC  H14C 5556   4.297   5.114   6.290 -0.3571  0.2091  0.2878
   67SAPC   C15 5557   4.526   5.036   6.244  0.3239  0.2708 -0.4651
   67SAPC  H15A 5558   4.514   5.125   6.303  0.7908  1.9273 -2.7052
   67SAPC  H15B 5559   4.615   4.983   6.274 -0.7484 -1.9499 -1.0447
   67SAPC  H15C 5560   4.545   5.063   6.141 -3.1513  0.6011 -1.1621
   67SAPC   C11 5561   4.307   4.762   6.426 -0.2549  0.5624 -0.5632
   67SAPC  H11A 5562   4.321   4.715   6.526  0.8333 -1.2255 -1.4998
   67SAPC  H11B 5563   4.324   4.673   6.363  0.7998  0.6638 -0.4417
   67SAPC     P 5564   4.097   4.896   6.531 -0.0937  0.1120 -0.0884
   67SAPC   O13 5565   4.009   4.998   6.473  0.1744  0.1902 -0.6348
   67SAPC   O14 5566   4.041   4.800   6.627 -0.2134  0.4590  0.5319
   67SAPC   O12 5567   4.172   4.813   6.409  0.4026 -0.3033 -0.0235
   67SAPC   O11 5568   4.224   4.964   6.582  0.3545  0.1934  1.0425
   67SAPC    C1 5569   4.214   5.081   6.670 -0.1432  0.6109 -0.1727
   67SAPC    HA 5570   4.307   5.140   6.657 -0.0469  0.9111  1.6669
   67SAPC    HB 5571   4.136   5.156   6.645  1.2384  1.5020 -2.0475
   67SAPC    C2 5572   4.201   5.049   6.818  0.7869 -0.2836 -0.1022
   67SAPC    HS 5573   4.094   5.027   6.834  0.6558 -1.1164 -1.8443
   67SAPC   O21 5574   4.249   5.150   6.903  0.6098 -0.2779 -0.3891
   67SAPC   C21 5575   4.170   5.252   6.903 -0.1130  0.1432 -0.3302
   67SAPC   O22 5576   4.059   5.255   6.850 -0.1824 -0.4475  0.2299
   67SAPC   C22 5577   4.234   5.374   6.983 -0.1184 -0.0114  0.5375
   67SAPC   H2R 5578   4.257   5.331   7.083 -0.7249 -0.9991  0.2572
   67SAPC   H2S 5579   4.327   5.391   6.924  0.1008  2.4883  1.4806
   67SAPC    C3 5580   4.289   4.913   6.846 -0.0077 -0.4845 -0.4196
   67SAPC    HX 5581   4.398   4.933   6.835  0.6576 -2.4804  1.7117
   67SAPC    HY 5582   4.259   4.831   6.777  0.0603  0.6631 -1.8748
   67SAPC   O31 5583   4.269   4.870   6.982  0.5761 -0.0943 -0.2296
   67SAPC   C31 5584   4.218   4.747   7.008  0.5249  0.1356 -0.3930
   67SAPC   O32 5585   4.217   4.653   6.933  0.6830 -0.5457  0.0055
   67SAPC   C32 5586   4.155   4.747   7.146  0.0054  0.7181 -0.0537
   67SAPC   H2X 5587   4.125   4.853   7.160 -0.3526  0.7352 -0.9119
   67SAPC   H2Y 5588   4.244   4.739   7.212 -0.0958 -2.3148 -0.1310
   67SAPC   C23 5589   4.135   5.494   6.990  0.2573  0.1815  0.0263
   67SAPC   H3R 5590   4.093   5.512   6.889 -1.7557 -1.1782  0.5545
   67SAPC   H3S 5591   4.198   5.580   7.021 -0.4886  0.7223  0.0530
   67SAPC   C24 5592   4.031   5.480   7.100  0.9435  0.6820 -0.2573
   67SAPC   H4R 5593   4.066   5.423   7.188  1.2457  1.4278  0.1117
   67SAPC   H4S 5594   3.969   5.406   7.045  2.2219 -0.5450 -0.1172
   67SAPC   C25 5595   3.945   5.601   7.125  0.2192 -0.0172  0.0340
   67SAPC   H5R 5596   3.996   5.686   7.173 -0.5200  0.7690 -0.5224
   67SAPC   C26 5597   3.819   5.627   7.096  0.8086  0.0799 -0.7386
   67SAPC   H6R 5598   3.775   5.720   7.135  1.1610 -0.6274  1.5296
   67SAPC   C27 5599   3.717   5.531   7.033  0.2712 -0.1509 -0.1793
   67SAPC   H7R 5600   3.720   5.445   7.103  1.5781  1.5353  1.9354
   67SAPC   H7S 5601   3.762   5.506   6.934 -1.1109 -1.6105 -0.4849
   67SAPC   C28 5602   3.571   5.580   7.034 -0.2602  0.3026  0.1251
   67SAPC   H8R 5603   3.562   5.670   6.972  0.5513 -0.4580 -1.1316
   67SAPC   C29 5604   3.468   5.522   7.100  0.4584 -0.2051  0.0191
   67SAPC   H9R 5605   3.367   5.564   7.084  1.8578  2.9988 -1.1565
   67SAPC  C210 5606   3.473   5.409   7.202  0.4772  0.4758  0.6407
   67SAPC  H10R 5607   3.437   5.448   7.300 -0.3013  1.1602  0.0957
   67SAPC  H10S 5608   3.575   5.371   7.225  0.6709 -0.9483 -2.1905
   67SAPC  C211 5609   3.387   5.283   7.171 -0.0859 -0.2030  0.0860
   67SAPC  H11R 5610   3.341   5.278   7.071  2.2254 -2.4410 -0.9699
   67SAPC  C212 5611   3.363   5.182   7.259  0.3364  0.0383  0.2876
   67SAPC  H12R 5612   3.295   5.104   7.220  0.1817  0.7825 -0.9713
   67SAPC  C213 5613   3.420   5.166   7.398 -0.4762 -0.6057  0.1064
   67SAPC  H13R 5614   3.528   5.189   7.386 -0.5250 -0.3628  0.1229
   67SAPC  H13S 5615   3.417   5.062   7.438  2.7487 -1.2065 -0.8679
   67SAPC  C214 5616   3.355   5.248   7.499 -0.1994  0.2588  0.1306
   67SAPC  H14R 5617   3.255   5.286   7.474 -0.6364  0.7701  2.4218
   67SAPC  C215 5618   3.399   5.271   7.625 -0.5927  0.0552  0.0385
   67SAPC  H15R 5619   3.331   5.312   7.702 -2.8871 -0.8281 -1.3873
   67SAPC  C216 5620   3.533   5.210   7.677 -0.6376 -0.2362  0.1464
   67SAPC  H16R 5621   3.613   5.285   7.658 -0.1228  0.2713  3.5748
   67SAPC  H16S 5622   3.564   5.114   7.631  0.8336  1.2677 -2.1840
   67SAPC  C217 5623   3.533   5.171   7.836  0.3519  0.0133 -0.0281
   67SAPC  H17R 5624   3.510   5.267   7.888  0.4674  0.3251 -0.5468
   67SAPC  H17S 5625   3.637   5.139   7.860  0.7552 -0.0036 -1.7080
   67SAPC  C218 5626   3.440   5.063   7.884  0.1909 -0.3166  0.8496
   67SAPC  H18R 5627   3.466   4.962   7.847 -0.1868 -0.4287  0.8839
   67SAPC  H18S 5628   3.339   5.082   7.843  0.4129  0.0001  0.4417
   67SAPC  C219 5629   3.441   5.056   8.039  0.1926 -0.1308  0.3988
   67SAPC  H19R 5630   3.536   5.092   8.084 -1.0176  2.2447  1.2187
   67SAPC  H19S 5631   3.435   4.951   8.075 -0.7800 -0.3097 -0.2551
   67SAPC  C220 5632   3.320   5.132   8.091 -0.1659 -0.4479 -0.7549
   67SAPC  H20R 5633   3.340   5.135   8.200  3.4694  3.3305 -1.2364
   67SAPC  H20S 5634   3.227   5.073   8.079 -0.8078  0.4490 -0.3180
   67SAPC  H20T 5635   3.323   5.232   8.042  0.9174 -0.2911 -0.3896
   67SAPC   C33 5636   4.037   4.641   7.167 -0.1669 -1.2077 -0.8758
   67SAPC   H3X 5637   4.083   4.540   7.166 -0.0148 -1.2018  1.4044
   67SAPC   H3Y 5638   3.965   4.646   7.083 -0.0043  0.9112 -0.9483
   67SAPC   C34 5639   3.955   4.671   7.289  0.0036  0.5709 -0.0349
   67SAPC   H4X 5640   3.900   4.577   7.311  2.8868 -0.8755  1.5938
   67SAPC   H4Y 5641   3.897   4.764   7.267  0.8072  1.1042  0.0434
   67SAPC   C35 5642   4.044   4.713   7.417 -0.1530 -0.2826  0.2895
   67SAPC   H5X 5643   3.976   4.754   7.495  0.8411  2.2923 -0.0935
   67SAPC   H5Y 5644   4.105   4.805   7.406 -0.2256  0.1763  2.9566
   67SAPC   C36 5645   4.137   4.609   7.467 -0.3273 -0.1780 -0.1428
   67SAPC   H6X 5646   4.226   4.590   7.403 -0.6871  0.9994 -1.0307
   67SAPC   H6Y 5647   4.080   4.515   7.485 -0.7667  0.3631  1.4979
   67SAPC   C37 5648   4.205   4.642   7.605 -0.1344 -0.0013  1.0390
   67SAPC   H7X 5649   4.271   4.731   7.596  0.0144 -0.2452 -0.4200
   67SAPC   H7Y 5650   4.280   4.564   7.631  0.4299  0.2342  0.1529
   67SAPC   C38 5651   4.108   4.665   7.724 -0.5626  0.2658  0.0501
   67SAPC   H8X 5652   4.058   4.568   7.745 -1.2270  0.1498 -1.8461
   67SAPC   H8Y 5653   4.029   4.736   7.691 -0.8571 -0.0168  0.1371
   67SAPC   C39 5654   4.195   4.710   7.843 -0.6291 -0.0716  0.1027
   67SAPC   H9X 5655   4.243   4.807   7.822 -2.7193  1.1167  0.5264
   67SAPC   H9Y 5656   4.272   4.631   7.858  1.0887  1.7275  1.1196
   67SAPC  C310 5657   4.110   4.718   7.972 -0.2272 -0.3672 -0.1052
   67SAPC  H10X 5658   4.056   4.624   7.996 -1.5107  1.1974  4.0338
   67SAPC  H10Y 5659   4.037   4.800   7.955  1.7929  1.0266 -2.8662
   67SAPC  C311 5660   4.194   4.759   8.092  0.0663 -0.6203  0.6188
   67SAPC  H11X 5661   4.236   4.860   8.074 -1.6746  0.2714  1.3140
   67SAPC  H11Y 5662   4.271   4.682   8.114  0.9833  0.3689  0.9313
   67SAPC  C312 5663   4.109   4.765   8.221  0.3356  0.8521  0.0378
   67SAPC  H12X 5664   4.176   4.759   8.309 -1.0852 -0.7512  1.0732
   67SAPC  H12Y 5665   4.046   4.674   8.231  1.8055 -0.3473 -1.1563
   67SAPC  C313 5666   4.016   4.884   8.244  0.2268 -0.0349  1.1078
   67SAPC  H13X 5667   3.967   4.901   8.146 -0.7875 -1.7202  1.2754
   67SAPC  H13Y 5668   4.073   4.972   8.280 -1.5778  2.1205 -1.0215
   67SAPC  C314 5669   3.904   4.853   8.342 -0.2902  0.3321  0.0007
   67SAPC  H14X 5670   3.945   4.847   8.445  1.3226 -1.6531 -0.6802
   67SAPC  H14Y 5671   3.864   4.754   8.312  1.5627 -0.6418  0.5632
   67SAPC  C315 5672   3.811   4.972   8.335 -0.5493 -0.2396 -0.2452
   67SAPC  H15X 5673   3.760   4.978   8.236  0.0544  1.6531 -0.4871
   67SAPC  H15Y 5674   3.879   5.060   8.336 -1.1346  0.2291  1.1932
   67SAPC  C316 5675   3.719   4.995   8.456 -0.4619 -0.0411 -0.0143
   67SAPC  H16X 5676   3.779   5.020   8.546  2.7612 -2.5515 -1.3124
   67SAPC  H16Y 5677   3.670   4.898   8.481  0.3370 -0.1842  1.0384
   67SAPC  C317 5678   3.623   5.114   8.431  0.5838  0.3795  0.0662
   67SAPC  H17X 5679   3.538   5.121   8.503 -0.5969 -2.0676 -0.9778
   67SAPC  H17Y 5680   3.580   5.109   8.329  1.5546  0.1838 -0.3472
   67SAPC  C318 5681   3.697   5.250   8.445  0.1530  0.6079 -0.1078
   67SAPC  H18X 5682   3.677   5.296   8.544  0.7073 -1.7506  1.1732
   67SAPC  H18Y 5683   3.664   5.322   8.367  0.2502 -1.3647 -2.0566
   67SAPC  H18Z 5684   3.806   5.237   8.425  0.0729 -0.1890 -0.0420
   68SAPC     N 5685   1.807   3.234   5.908  0.0864  0.2482 -0.3846
   68SAPC   C12 5686   1.876   3.244   6.044  0.4416 -0.1705 -1.0725
   68SAPC  H12A 5687   1.918   3.149   6.074  1.3876  0.8740  1.1737
   68SAPC  H12B 5688   1.791   3.257   6.110  1.4619 -1.4190  0.5515
   68SAPC   C13 5689   1.747   3.367   5.859  0.9357  0.1761  0.0826
   68SAPC  H13A 5690   1.656   3.387   5.914 -0.1268 -0.3785 -1.3975
   68SAPC  H13B 5691   1.813   3.451   5.864 -1.1768  2.2168 -2.7779
   68SAPC  H13C 5692   1.720   3.339   5.758 -1.1510 -2.5876  1.2384
   68SAPC   C14 5693   1.906   3.182   5.812  0.8022 -0.6353 -0.5596
   68SAPC  H14A 5694   1.979   3.260   5.796  0.7197 -0.4232  0.0694
   68SAPC  H14B 5695   1.962   3.093   5.834  2.6870  0.0910 -2.1041
   68SAPC  H14C 5696   1.855   3.149   5.723 -0.3457 -0.7464  0.1150
   68SAPC   C15 5697   1.699   3.132   5.917  0.5881 -0.1195  0.2263
   68SAPC  H15A 5698   1.626   3.160   5.992 -0.1308  2.4345 -1.2963
   68SAPC  H15B 5699   1.643   3.127   5.824  1.3592 -0.9963 -0.2107
   68SAPC  H15C 5700   1.732   3.033   5.942  2.8207  0.5128 -0.0337
   68SAPC   C11 5701   1.984   3.359   6.074  0.1213  0.3154 -0.5741
   68SAPC  H11A 5702   2.015   3.362   6.180 -0.4767 -1.0257 -0.3417
   68SAPC  H11B 5703   1.920   3.449   6.065 -1.9378 -0.9486  0.6550
   68SAPC     P 5704   2.221   3.261   6.003  0.4169 -0.0595 -0.4382
   68SAPC   O13 5705   2.295   3.253   5.881  0.0516 -0.1838  0.3791
   68SAPC   O14 5706   2.289   3.309   6.129 -0.0780 -0.0537 -0.1847
   68SAPC   O12 5707   2.096   3.358   5.985 -0.0431 -0.0355  0.0516
   68SAPC   O11 5708   2.161   3.120   6.017 -0.8019 -0.3652 -0.1543
   68SAPC    C1 5709   2.237   3.012   6.071 -0.2848  0.5515 -0.3399
   68SAPC    HA 5710   2.192   2.918   6.034 -0.1910  1.2074 -2.2083
   68SAPC    HB 5711   2.341   3.009   6.034  0.3610  0.5724  1.3801
   68SAPC    C2 5712   2.240   3.011   6.234  0.0524 -0.5588  0.1906
   68SAPC    HS 5713   2.284   3.111   6.256 -3.1078  0.3554  3.3824
   68SAPC   O21 5714   2.319   2.901   6.278  0.6697  0.2705 -0.7392
   68SAPC   C21 5715   2.405   2.932   6.380  0.7182  0.5994  0.5860
   68SAPC   O22 5716   2.430   3.041   6.422  0.1804  0.0523 -0.4672
   68SAPC   C22 5717   2.458   2.801   6.445 -0.3346 -1.3255  0.5337
   68SAPC   H2R 5718   2.388   2.716   6.441  0.6119 -2.3653  3.2411
   68SAPC   H2S 5719   2.536   2.768   6.373 -0.5122 -1.0119  0.1943
   68SAPC    C3 5720   2.104   3.018   6.301 -0.6320 -0.0008  0.5343
   68SAPC    HX 5721   2.052   2.921   6.288 -0.7841  0.3970 -2.7786
   68SAPC    HY 5722   2.034   3.093   6.259 -1.3075 -1.3207 -0.7725
   68SAPC   O31 5723   2.121   3.030   6.445 -0.0153  0.0272  0.1243
   68SAPC   C31 5724   2.116   3.151   6.494 -0.7125 -0.4952  0.0874
   68SAPC   O32 5725   2.084   3.251   6.426 -0.0294  0.3011  0.7301
   68SAPC   C32 5726   2.162   3.155   6.640  0.0101 -0.3258 -0.5790
   68SAPC   H2X 5727   2.228   3.071   6.669  1.1250  0.4421 -0.8176
   68SAPC   H2Y 5728   2.070   3.140   6.701 -0.6491 -3.0692 -2.0858
   68SAPC   C23 5729   2.510   2.815   6.588  0.2940  0.7045 -0.6172
   68SAPC   H3R 5730   2.586   2.896   6.594  0.0068  0.9307  0.0059
   68SAPC   H3S 5731   2.544   2.715   6.623  0.3534  0.6140 -0.9282
   68SAPC   C24 5732   2.400   2.860   6.689 -0.6049  0.3632  0.1672
   68SAPC   H4R 5733   2.304   2.837   6.638 -0.3965  1.6527 -0.8514
   68SAPC   H4S 5734   2.404   2.970   6.702  1.3549  0.2435  0.8027
   68SAPC   C25 5735   2.416   2.802   6.823 -0.5234  0.8221  1.0214
   68SAPC   H5R 5736   2.382   2.697   6.833  0.9424  0.2360  0.1540
   68SAPC   C26 5737   2.468   2.860   6.933 -0.1309 -0.1300  0.7135
   68SAPC   H6R 5738   2.464   2.808   7.030  3.3644 -0.6434  0.7423
   68SAPC   C27 5739   2.529   2.998   6.949  0.6230  0.6321 -0.4131
   68SAPC   H7R 5740   2.532   3.020   7.058 -2.1339 -1.7458  0.2820
   68SAPC   H7S 5741   2.451   3.067   6.912  1.2174  2.4277  1.4919
   68SAPC   C28 5742   2.655   3.017   6.870  0.1764  0.4936  0.1958
   68SAPC   H8R 5743   2.691   2.935   6.805  2.0821 -0.3248  2.1449
   68SAPC   C29 5744   2.743   3.112   6.891  0.2906 -0.4200 -0.2073
   68SAPC   H9R 5745   2.841   3.116   6.841  1.5273  4.1333  2.0282
   68SAPC  C210 5746   2.724   3.222   6.988 -0.2301 -0.6653 -0.0111
   68SAPC  H10R 5747   2.616   3.232   7.009 -0.3607 -0.1302 -0.8578
   68SAPC  H10S 5748   2.761   3.319   6.947  1.1248 -0.7298  0.9863
   68SAPC  C211 5749   2.799   3.206   7.118 -0.3750  0.6700  0.2786
   68SAPC  H11R 5750   2.895   3.156   7.105 -1.0490 -0.6702  0.3133
   68SAPC  C212 5751   2.760   3.243   7.246 -0.3874 -0.4120  0.2717
   68SAPC  H12R 5752   2.811   3.194   7.330 -0.9277 -0.9853  0.2725
   68SAPC  C213 5753   2.629   3.312   7.274  0.5715  0.4446  0.6555
   68SAPC  H13R 5754   2.597   3.264   7.369 -0.6974 -2.9665 -1.3287
   68SAPC  H13S 5755   2.555   3.273   7.201 -0.4107  2.1601  0.6802
   68SAPC  C214 5756   2.636   3.463   7.257 -0.4410  0.8252  0.5626
   68SAPC  H14R 5757   2.632   3.496   7.152  1.1853 -0.7581 -0.0352
   68SAPC  C215 5758   2.626   3.544   7.365 -0.0832 -0.4000 -0.3169
   68SAPC  H15R 5759   2.619   3.652   7.344  1.4036 -0.3881 -0.8888
   68SAPC  C216 5760   2.606   3.503   7.512 -0.7314 -0.4209  0.7188
   68SAPC  H16R 5761   2.543   3.412   7.520  1.0383 -1.8653 -0.9681
   68SAPC  H16S 5762   2.549   3.586   7.559 -3.5217 -1.3294 -0.7914
   68SAPC  C217 5763   2.749   3.486   7.568  0.1400  0.2102 -0.4069
   68SAPC  H17R 5764   2.811   3.575   7.545  0.2714  0.4163  0.6762
   68SAPC  H17S 5765   2.802   3.398   7.526 -0.1137  0.1463 -0.5989
   68SAPC  C218 5766   2.752   3.477   7.723  0.0646  0.3472  0.6442
   68SAPC  H18R 5767   2.701   3.570   7.756 -0.9446 -0.2323  0.7520
   68SAPC  H18S 5768   2.858   3.483   7.757  0.0615  0.2966  0.6621
   68SAPC  C219 5769   2.672   3.355   7.776 -0.3808  0.2857  0.0417
   68SAPC  H19R 5770   2.592   3.325   7.705 -1.1827 -0.4838  1.2227
   68SAPC  H19S 5771   2.621   3.381   7.871 -2.5752  1.3794 -1.3426
   68SAPC  C220 5772   2.768   3.237   7.811  0.1268  0.6751 -0.1459
   68SAPC  H20R 5773   2.810   3.196   7.717 -1.6740  0.7332 -1.0313
   68SAPC  H20S 5774   2.705   3.163   7.866  0.8583  0.7320  0.8072
   68SAPC  H20T 5775   2.854   3.263   7.876  0.2221 -1.8835  0.8805
   68SAPC   C33 5776   2.230   3.278   6.691  0.3952 -0.2036  0.4799
   68SAPC   H3X 5777   2.173   3.370   6.666  3.0815  2.0609  2.1594
   68SAPC   H3Y 5778   2.318   3.300   6.627 -1.5006  1.3546 -1.7772
   68SAPC   C34 5779   2.263   3.281   6.842 -0.4528 -0.4429  0.1993
   68SAPC   H4X 5780   2.282   3.174   6.863  0.1531 -1.0946 -3.0646
   68SAPC   H4Y 5781   2.185   3.324   6.909 -1.8080 -3.4139  0.6689
   68SAPC   C35 5782   2.390   3.371   6.889 -0.4353  0.2733  0.4643
   68SAPC   H5X 5783   2.474   3.318   6.840 -0.3065 -1.0056  1.9749
   68SAPC   H5Y 5784   2.401   3.356   6.999  1.6566  0.7490  0.3531
   68SAPC   C36 5785   2.382   3.517   6.849 -0.5375 -0.2706 -0.3968
   68SAPC   H6X 5786   2.438   3.573   6.926  1.2165 -1.4831 -0.7125
   68SAPC   H6Y 5787   2.280   3.559   6.861 -0.3309  0.5096 -1.2974
   68SAPC   C37 5788   2.449   3.564   6.717  0.2904 -0.0415  0.1838
   68SAPC   H7X 5789   2.405   3.495   6.643 -0.6111 -0.1001  0.7592
   68SAPC   H7Y 5790   2.557   3.537   6.711  0.1855 -0.4663  0.1892
   68SAPC   C38 5791   2.420   3.706   6.679  0.6123 -0.8618  0.6990
   68SAPC   H8X 5792   2.343   3.746   6.748 -1.0870 -2.2631 -0.2854
   68SAPC   H8Y 5793   2.365   3.708   6.582 -0.3385 -1.5077  1.2106
   68SAPC   C39 5794   2.536   3.802   6.705 -0.6820  0.5464  0.6681
   68SAPC   H9X 5795   2.597   3.798   6.613 -3.4640  1.6797 -1.3801
   68SAPC   H9Y 5796   2.589   3.763   6.795  1.0823 -0.8545 -0.9049
   68SAPC  C310 5797   2.497   3.951   6.719 -0.5256  0.5516 -0.1982
   68SAPC  H10X 5798   2.409   3.955   6.787 -1.1542 -1.5656 -0.8149
   68SAPC  H10Y 5799   2.464   3.986   6.619 -0.1416 -0.9444 -0.8800
   68SAPC  C311 5800   2.613   4.030   6.788  0.6639 -0.3171 -0.0156
   68SAPC  H11X 5801   2.578   4.135   6.796 -0.3516 -0.7650  2.4003
   68SAPC  H11Y 5802   2.712   4.026   6.737 -0.8138  0.1831 -3.1477
   68SAPC  C312 5803   2.648   3.993   6.935  0.0499 -1.0010  0.2765
   68SAPC  H12X 5804   2.714   4.069   6.981 -0.1380  0.2466 -1.4435
   68SAPC  H12Y 5805   2.697   3.893   6.931 -0.0624 -1.1087  1.2972
   68SAPC  C313 5806   2.522   3.972   7.024 -0.4358 -0.8827  0.0325
   68SAPC  H13X 5807   2.472   3.879   6.990 -0.8631  0.0298 -1.9634
   68SAPC  H13Y 5808   2.456   4.058   7.004  0.8079 -0.2610 -1.5832
   68SAPC  C314 5809   2.562   3.957   7.174 -0.0330  0.0813 -0.3801
   68SAPC  H14X 5810   2.631   4.032   7.218  0.9904 -1.5106  0.8349
   68SAPC  H14Y 5811   2.614   3.859   7.181 -1.0038 -0.4245 -0.0219
   68SAPC  C315 5812   2.434   3.953   7.263  0.1839 -0.0621 -0.2625
   68SAPC  H15X 5813   2.362   3.896   7.202  1.5654 -0.2252 -1.8041
   68SAPC  H15Y 5814   2.412   4.062   7.271  0.3772  0.0190 -0.8297
   68SAPC  C316 5815   2.463   3.898   7.403 -0.2794  0.3960  0.0462
   68SAPC  H16X 5816   2.503   3.795   7.394  0.6515  0.6410  1.0735
   68SAPC  H16Y 5817   2.363   3.881   7.447  1.6617 -2.1179  4.0971
   68SAPC  C317 5818   2.558   3.978   7.506 -0.3416  0.0425 -0.4205
   68SAPC  H17X 5819   2.525   4.084   7.505  0.6548  0.3687  0.2353
   68SAPC  H17Y 5820   2.665   3.969   7.478 -0.6062 -1.8537 -0.9389
   68SAPC  C318 5821   2.550   3.919   7.644  0.4375  0.1628  0.4655
   68SAPC  H18X 5822   2.588   3.982   7.727 -3.3053 -0.6743  3.0741
   68SAPC  H18Y 5823   2.603   3.821   7.643 -0.7023 -0.4733 -0.5762
   68SAPC  H18Z 5824   2.445   3.902   7.675  1.1512 -1.7876  2.0657
   69SLPC     N 5825   6.577   1.815  11.089 -0.0280 -0.1586 -0.5771
   69SLPC   C13 5826   6.467   1.824  11.193  0.6496 -0.9266  0.3263
   69SLPC  H13A 5827   6.379   1.866  11.146  1.2439  1.3356  1.0807
   69SLPC  H13B 5828   6.447   1.730  11.242 -0.1894 -0.2742  1.2786
   69SLPC  H13C 5829   6.503   1.900  11.262  3.1020 -0.4954 -1.3314
   69SLPC   C14 5830   6.700   1.762  11.156  0.5072 -0.0674 -0.2118
   69SLPC  H14A 5831   6.668   1.691  11.231 -2.2090  1.5799  0.3524
   69SLPC  H14B 5832   6.772   1.722  11.087  1.4923 -2.9381  2.2585
   69SLPC  H14C 5833   6.736   1.838  11.224  0.2126  0.7585 -0.9653
   69SLPC   C15 5834   6.603   1.958  11.052 -0.2968  0.8351  0.3045
   69SLPC  H15A 5835   6.635   2.018  11.136  1.7766  0.1531  0.0774
   69SLPC  H15B 5836   6.688   1.958  10.985 -1.6614 -0.5207 -1.5198
   69SLPC  H15C 5837   6.521   2.005  11.001  0.4531  1.0575 -0.7362
   69SLPC   C12 5838   6.535   1.740  10.965  0.4459  0.2417  0.3475
   69SLPC  H12A 5839   6.433   1.761  10.939  0.3906 -0.7031 -0.2591
   69SLPC  H12B 5840   6.548   1.634  10.984  0.1547 -0.1145 -1.3184
   69SLPC   C11 5841   6.619   1.749  10.839 -0.3894  0.5128  0.4718
   69SLPC  H11A 5842   6.618   1.852  10.797  1.5081 -0.2602 -1.7275
   69SLPC  H11B 5843   6.571   1.688  10.759  0.8992 -0.4592  0.4007
   69SLPC     P 5844   6.795   1.555  10.872  0.0478  0.1204 -0.2214
   69SLPC   O13 5845   6.920   1.547  10.951  0.1566  0.0639 -0.6856
   69SLPC   O14 5846   6.681   1.465  10.913  0.1300  0.1342  0.1211
   69SLPC   O12 5847   6.753   1.701  10.865  0.6568 -0.6036  0.5220
   69SLPC   O11 5848   6.837   1.525  10.723  0.0676 -0.1290 -0.7919
   69SLPC    C1 5849   6.913   1.632  10.657 -0.6529  0.3328  0.1386
   69SLPC    HA 5850   6.965   1.701  10.727 -0.5935  1.2820 -0.8223
   69SLPC    HB 5851   6.996   1.573  10.614  0.7856  0.0293  3.0548
   69SLPC    C2 5852   6.825   1.705  10.549 -0.2054  0.3587  0.0459
   69SLPC    HS 5853   6.751   1.773  10.596 -0.7070 -1.4616  2.0508
   69SLPC   O21 5854   6.754   1.598  10.478  0.5400  0.0468 -0.0346
   69SLPC   C21 5855   6.640   1.631  10.425  0.3885 -0.0948 -0.0512
   69SLPC   O22 5856   6.594   1.743  10.428 -0.6731  0.7966 -0.0050
   69SLPC   C22 5857   6.565   1.505  10.386 -0.4392  0.6982  0.6520
   69SLPC   H2R 5858   6.638   1.445  10.328 -1.3980 -1.6170  1.6821
   69SLPC   H2S 5859   6.538   1.447  10.477 -1.5852 -1.0514 -0.7103
   69SLPC    C3 5860   6.918   1.786  10.461  0.5268  0.5793  0.0065
   69SLPC    HX 5861   6.991   1.705  10.438  1.0751  1.6711 -2.3755
   69SLPC    HY 5862   6.969   1.868  10.514  0.1508  0.8629 -0.0673
   69SLPC   O31 5863   6.862   1.825  10.334  0.1658  0.0411  0.6223
   69SLPC   C31 5864   6.803   1.941  10.337 -0.2575 -0.4267  0.4871
   69SLPC   O32 5865   6.775   2.010  10.433 -0.5780 -0.0782  0.2827
   69SLPC   C32 5866   6.755   1.980  10.195  0.2232  0.4123 -0.1992
   69SLPC   H2X 5867   6.669   1.916  10.166  0.7602 -0.0200 -0.8510
   69SLPC   H2Y 5868   6.833   1.968  10.117 -0.7780  3.2122 -1.7701
   69SLPC   C23 5869   6.434   1.533  10.306 -0.0858 -0.5707  0.1589
   69SLPC   H3R 5870   6.453   1.590  10.213  2.4130 -0.0334  0.9286
   69SLPC   H3S 5871   6.353   1.589  10.357 -2.5642 -1.3689 -2.6200
   69SLPC   C24 5872   6.375   1.398  10.259 -0.1827 -0.6711  0.3376
   69SLPC   H4R 5873   6.369   1.330  10.346  1.0063 -0.6824  0.4257
   69SLPC   H4S 5874   6.449   1.351  10.191 -0.2978 -0.7134  0.2408
   69SLPC   C25 5875   6.244   1.408  10.177  0.2370 -0.6830 -0.8379
   69SLPC   H5R 5876   6.202   1.505  10.210  1.7342 -0.5429  0.8276
   69SLPC   H5S 5877   6.180   1.321  10.204  1.0184 -1.1860 -0.5638
   69SLPC   C26 5878   6.272   1.410  10.027  0.2038 -0.6634 -0.3764
   69SLPC   H6R 5879   6.340   1.324  10.007 -0.4222 -1.7168  1.7803
   69SLPC   H6S 5880   6.316   1.506   9.993  0.7521 -0.7985 -0.0470
   69SLPC   C27 5881   6.142   1.393   9.948 -0.8329 -0.2407 -0.1686
   69SLPC   H7R 5882   6.090   1.489   9.968 -2.2221 -0.9896 -0.0375
   69SLPC   H7S 5883   6.085   1.315  10.003 -0.7927 -0.3709 -0.3104
   69SLPC   C28 5884   6.169   1.375   9.796  0.5750  0.1242  0.1445
   69SLPC   H8R 5885   6.226   1.463   9.760 -1.6936  0.8765 -1.9535
   69SLPC   H8S 5886   6.070   1.380   9.745  0.4020 -1.5286  0.2780
   69SLPC   C29 5887   6.226   1.243   9.759 -0.4039 -0.1811  0.6756
   69SLPC   H9R 5888   6.290   1.202   9.839  1.5546 -0.5001 -0.9667
   69SLPC  C210 5889   6.221   1.174   9.649  0.6194  0.2346 -0.2945
   69SLPC  H10R 5890   6.261   1.072   9.642 -1.0408 -0.4491 -0.4246
   69SLPC  C211 5891   6.145   1.226   9.530 -0.0903  0.7412  0.0138
   69SLPC  H11R 5892   6.144   1.337   9.524 -0.8468  0.6908 -0.8772
   69SLPC  H11S 5893   6.046   1.177   9.529  1.0491 -1.9922 -3.9909
   69SLPC  C212 5894   6.212   1.167   9.411  1.3547  0.3471 -0.3115
   69SLPC  H12R 5895   6.304   1.108   9.426  1.3343  0.0040 -1.4394
   69SLPC  C213 5896   6.166   1.166   9.285  0.0862  0.5032 -0.1837
   69SLPC  H13R 5897   6.238   1.126   9.211  0.4099  1.8715 -0.6304
   69SLPC  C214 5898   6.034   1.228   9.240 -0.1902  0.4806 -0.1528
   69SLPC  H14R 5899   5.980   1.257   9.332 -1.6344 -0.7987 -0.5422
   69SLPC  H14S 5900   5.966   1.159   9.185  0.4536 -1.3970  1.2671
   69SLPC  C215 5901   6.053   1.358   9.162  0.0725  0.2557 -0.2268
   69SLPC  H15R 5902   6.121   1.429   9.213  1.2210 -0.9203 -0.0829
   69SLPC  H15S 5903   5.955   1.410   9.167  0.8911  1.7409  3.1060
   69SLPC  C216 5904   6.119   1.333   9.025  0.0765  0.7072 -0.6195
   69SLPC  H16R 5905   6.201   1.261   9.044 -1.3515 -1.3439 -1.7946
   69SLPC  H16S 5906   6.180   1.421   8.995  0.5677  0.0083 -1.7215
   69SLPC  C217 5907   6.021   1.291   8.912  0.5918 -0.1190  0.1987
   69SLPC  H17R 5908   5.928   1.351   8.912 -0.1588 -1.0520  3.5428
   69SLPC  H17S 5909   5.971   1.194   8.932 -2.4374  1.0905 -0.9053
   69SLPC  C218 5910   6.081   1.298   8.769  0.0082 -0.2609  0.1960
   69SLPC  H18R 5911   6.148   1.386   8.768 -3.0993  2.3593  2.1833
   69SLPC  H18S 5912   6.003   1.305   8.690  2.8864 -0.3870 -2.9019
   69SLPC  H18T 5913   6.141   1.207   8.746  0.9523  0.1688  0.9045
   69SLPC   C33 5914   6.698   2.125  10.191  0.5030  0.0943  0.4075
   69SLPC   H3X 5915   6.785   2.193  10.203  2.1518 -1.2904 -2.5029
   69SLPC   H3Y 5916   6.628   2.137  10.276 -1.9884 -0.9149 -1.3858
   69SLPC   C34 5917   6.621   2.150  10.063  0.2622  0.0814  0.4451
   69SLPC   H4X 5918   6.602   2.258  10.073 -0.4614 -0.0964  1.0592
   69SLPC   H4Y 5919   6.526   2.093  10.062  0.7565 -0.7841 -0.3583
   69SLPC   C35 5920   6.688   2.124   9.928 -0.3987  0.3974 -0.6679
   69SLPC   H5X 5921   6.734   2.023   9.916  2.2355  1.3818  0.3822
   69SLPC   H5Y 5922   6.771   2.197   9.924 -0.1867  0.1289 -1.2866
   69SLPC   C36 5923   6.590   2.158   9.809 -0.6489 -1.1428 -0.4835
   69SLPC   H6X 5924   6.560   2.263   9.831  1.6675 -0.4151 -0.5286
   69SLPC   H6Y 5925   6.502   2.093   9.823 -0.0131 -1.9507 -0.1789
   69SLPC   C37 5926   6.657   2.146   9.672 -0.4595 -0.8400  0.1715
   69SLPC   H7X 5927   6.726   2.060   9.682  1.7453  0.6378 -1.4059
   69SLPC   H7Y 5928   6.714   2.241   9.672 -2.3591  0.3638 -1.0031
   69SLPC   C38 5929   6.572   2.144   9.548 -0.1162  0.1672  0.3005
   69SLPC   H8X 5930   6.495   2.224   9.550  0.8410  1.1076  0.5881
   69SLPC   H8Y 5931   6.517   2.049   9.559  1.6090 -1.0333 -0.9756
   69SLPC   C39 5932   6.657   2.145   9.424 -0.2392 -0.1813  0.0827
   69SLPC   H9X 5933   6.722   2.057   9.444 -0.5555 -0.5199 -0.3687
   69SLPC   H9Y 5934   6.724   2.231   9.404 -0.4378 -0.2488 -0.9344
   69SLPC  C310 5935   6.567   2.108   9.300 -0.2931 -0.2794  0.1485
   69SLPC  H10X 5936   6.507   2.200   9.290  0.3659  0.4974  2.6928
   69SLPC  H10Y 5937   6.501   2.024   9.332  0.9760 -1.6033 -0.5641
   69SLPC  C311 5938   6.644   2.058   9.176  0.0764  0.6650  0.1523
   69SLPC  H11X 5939   6.703   1.968   9.203 -0.7700 -0.1782 -0.7018
   69SLPC  H11Y 5940   6.723   2.134   9.162 -0.1420  0.9349  0.3852
   69SLPC  C312 5941   6.555   2.037   9.051 -0.2860 -0.5913  0.3787
   69SLPC  H12X 5942   6.518   2.136   9.016  0.4502  0.3783  2.1827
   69SLPC  H12Y 5943   6.470   1.976   9.089  0.1336 -1.4957 -0.0995
   69SLPC  C313 5944   6.627   1.978   8.931  0.3984  0.3218  0.8086
   69SLPC  H13X 5945   6.682   1.884   8.957  0.9837  0.2142 -0.7112
   69SLPC  H13Y 5946   6.707   2.043   8.890  2.5755 -2.6724 -0.0126
   69SLPC  C314 5947   6.527   1.947   8.817 -0.2192 -0.1460 -0.3640
   69SLPC  H14X 5948   6.512   2.042   8.762  0.3844  0.3036  0.2362
   69SLPC  H14Y 5949   6.430   1.915   8.861  0.6881 -1.8619  0.4697
   69SLPC  C315 5950   6.586   1.834   8.721 -0.2006  0.1130 -1.3518
   69SLPC  H15X 5951   6.581   1.743   8.784  1.6382  1.9316  1.6585
   69SLPC  H15Y 5952   6.691   1.867   8.705 -0.8161  2.5929 -0.7783
   69SLPC  C316 5953   6.515   1.820   8.588 -0.1678 -0.3478 -0.5947
   69SLPC  H16X 5954   6.571   1.742   8.533  0.2636 -1.9812  1.9650
   69SLPC  H16Y 5955   6.519   1.921   8.541 -0.5786  0.1975  0.5041
   69SLPC  C317 5956   6.366   1.773   8.608 -0.6437  0.1549 -0.4854
   69SLPC  H17X 5957   6.307   1.776   8.515 -3.6798 -1.6279  1.2339
   69SLPC  H17Y 5958   6.312   1.830   8.687  1.1305 -0.0599  0.9543
   69SLPC  C318 5959   6.353   1.626   8.661 -0.1775 -0.1050 -0.3623
   69SLPC  H18X 5960   6.245   1.607   8.682  0.4038 -3.3431  0.2347
   69SLPC  H18Y 5961   6.408   1.619   8.757 -2.2555 -1.4428  0.8050
   69SLPC  H18Z 5962   6.384   1.543   8.594 -1.4486 -3.9182  3.2795
   70SLPC     N 5963   6.448   4.371  10.847  0.1352  0.1680  0.3337
   70SLPC   C13 5964   6.506   4.340  10.712  0.4263  0.7672  0.1387
   70SLPC  H13A 5965   6.493   4.233  10.704 -2.0454  0.9619  0.8519
   70SLPC  H13B 5966   6.439   4.372  10.634  1.5452 -0.4336 -1.3786
   70SLPC  H13C 5967   6.608   4.373  10.698  0.2421  0.9844 -0.7200
   70SLPC   C14 5968   6.540   4.312  10.949  0.0530 -0.2546 -0.3688
   70SLPC  H14A 5969   6.607   4.389  10.985 -2.8510  1.3089  2.1962
   70SLPC  H14B 5970   6.486   4.269  11.032 -1.9177  1.2798 -0.7891
   70SLPC  H14C 5971   6.599   4.233  10.904  0.4057 -0.3364  0.2228
   70SLPC   C15 5972   6.322   4.294  10.864 -0.1921 -0.4124  0.1088
   70SLPC  H15A 5973   6.294   4.294  10.968  0.3867  1.7155  0.3069
   70SLPC  H15B 5974   6.237   4.337  10.814 -1.6540 -1.8936  1.2183
   70SLPC  H15C 5975   6.318   4.191  10.832 -2.1887 -1.3304  2.9319
   70SLPC   C12 5976   6.437   4.516  10.867  0.3928  0.3242 -0.4897
   70SLPC  H12A 5977   6.534   4.562  10.862  1.3335 -1.4249  0.7169
   70SLPC  H12B 5978   6.391   4.531  10.964  1.2605  1.6371 -0.2548
   70SLPC   C11 5979   6.334   4.583  10.776 -0.5461 -0.1770  0.0844
   70SLPC  H11A 5980   6.328   4.563  10.667 -1.6537  1.8081 -0.2661
   70SLPC  H11B 5981   6.360   4.691  10.771 -1.6881  0.0480 -1.5362
   70SLPC     P 5982   6.120   4.680  10.901  0.2044 -0.4231 -0.2009
   70SLPC   O13 5983   5.986   4.637  10.951 -0.5232  0.8530  0.2616
   70SLPC   O14 5984   6.207   4.741  11.001  0.2288 -0.7108 -0.4936
   70SLPC   O12 5985   6.200   4.561  10.828  0.0419 -0.7335  0.6682
   70SLPC   O11 5986   6.111   4.785  10.785 -0.1001 -0.1273 -0.1527
   70SLPC    C1 5987   6.027   4.767  10.675 -0.2726  0.4305  0.7738
   70SLPC    HA 5988   6.059   4.680  10.615  0.9367  1.7031 -0.5183
   70SLPC    HB 5989   5.921   4.748  10.700 -0.5658  0.2902 -0.5099
   70SLPC    C2 5990   6.029   4.886  10.577 -0.1347  0.5341  0.2044
   70SLPC    HS 5991   6.139   4.896  10.566  0.3664 -0.0561  3.5116
   70SLPC   O21 5992   5.970   5.002  10.630 -0.7844 -0.7654  0.7113
   70SLPC   C21 5993   6.007   5.118  10.572  0.2352 -0.4809 -0.8375
   70SLPC   O22 5994   6.104   5.134  10.500 -0.1483 -0.2175  1.2649
   70SLPC   C22 5995   5.907   5.230  10.622  0.0435  0.4675  0.4669
   70SLPC   H2R 5996   5.809   5.185  10.647 -0.5334  1.2158 -0.4038
   70SLPC   H2S 5997   5.942   5.275  10.718  0.9747 -0.8653  0.7763
   70SLPC    C3 5998   5.957   4.844  10.445  0.0535 -0.4700  0.8719
   70SLPC    HX 5999   5.858   4.850  10.494  0.5809  1.0976  1.8378
   70SLPC    HY 6000   5.987   4.739  10.426  0.8428  0.3708 -3.6457
   70SLPC   O31 6001   5.945   4.933  10.331 -0.2563  0.1541  0.0425
   70SLPC   C31 6002   6.052   4.915  10.248  0.1778  0.2362 -0.3420
   70SLPC   O32 6003   6.148   4.845  10.269  0.5533  0.2413 -0.0293
   70SLPC   C32 6004   6.045   5.011  10.129  1.3413  0.3255  0.4512
   70SLPC   H2X 6005   6.137   5.074  10.128  0.0403  2.5276 -3.2682
   70SLPC   H2Y 6006   5.967   5.085  10.153  2.2815  1.7695 -0.7142
   70SLPC   C23 6007   5.870   5.330  10.510 -0.4507 -0.1264 -0.9095
   70SLPC   H3R 6008   5.779   5.388  10.539  1.0973  2.3120 -0.7024
   70SLPC   H3S 6009   5.842   5.280  10.415  2.1744 -0.9784 -1.3096
   70SLPC   C24 6010   5.974   5.430  10.485 -0.3350 -0.7759  0.2423
   70SLPC   H4R 6011   6.080   5.397  10.483  1.1505  3.3553  1.0487
   70SLPC   H4S 6012   5.973   5.504  10.568 -3.2783 -1.2017  0.6866
   70SLPC   C25 6013   5.928   5.521  10.367 -0.2650 -0.2204 -0.3319
   70SLPC   H5R 6014   5.951   5.628  10.382  0.3408 -0.4807  0.6981
   70SLPC   H5S 6015   5.818   5.527  10.372 -0.2177 -0.1638  1.1120
   70SLPC   C26 6016   5.976   5.471  10.231 -0.2418  1.0560 -0.3747
   70SLPC   H6R 6017   5.963   5.360  10.230  1.6390  0.7467  1.5620
   70SLPC   H6S 6018   6.085   5.488  10.223 -0.4204  2.1827 -0.4927
   70SLPC   C27 6019   5.920   5.531  10.107 -0.7641  0.3025 -0.1774
   70SLPC   H7R 6020   5.935   5.640  10.115  1.3339  0.0478  0.0528
   70SLPC   H7S 6021   5.811   5.514  10.113 -1.1181  1.6289 -2.0460
   70SLPC   C28 6022   5.956   5.461   9.979 -0.0177 -0.2742  0.0341
   70SLPC   H8R 6023   5.885   5.491   9.898 -1.3211 -2.8645  0.1126
   70SLPC   H8S 6024   5.932   5.353   9.985  0.6476 -0.6674 -2.6998
   70SLPC   C29 6025   6.097   5.478   9.935 -0.8167 -0.6495  0.2654
   70SLPC   H9R 6026   6.168   5.449  10.014 -1.2315 -1.0431  0.5017
   70SLPC  C210 6027   6.142   5.528   9.815 -0.6686  0.7050  0.1721
   70SLPC  H10R 6028   6.251   5.543   9.804 -0.3919 -0.2182  1.3629
   70SLPC  C211 6029   6.055   5.584   9.709  0.3994  0.2413 -0.0496
   70SLPC  H11R 6030   6.090   5.681   9.670  0.3392  0.0741 -0.5219
   70SLPC  H11S 6031   5.963   5.618   9.763  1.0071  2.1356 -0.1691
   70SLPC  C212 6032   6.051   5.485   9.595  0.1279  0.3202  0.2094
   70SLPC  H12R 6033   6.123   5.402   9.598  0.2141  0.2775 -1.5567
   70SLPC  C213 6034   5.975   5.494   9.478  0.1386  0.3455 -0.0556
   70SLPC  H13R 6035   5.991   5.416   9.401 -0.7275 -2.7993  2.7194
   70SLPC  C214 6036   5.876   5.603   9.472 -0.5095  0.3317 -0.2682
   70SLPC  H14R 6037   5.849   5.630   9.576  0.6918  1.1408 -0.1455
   70SLPC  H14S 6038   5.790   5.558   9.417 -1.6252  0.6445  1.1702
   70SLPC  C215 6039   5.932   5.729   9.407  0.0956 -0.0513 -1.2336
   70SLPC  H15R 6040   6.020   5.772   9.460  0.6285  0.7917 -2.7438
   70SLPC  H15S 6041   5.860   5.814   9.406  0.5083  0.3094 -1.0732
   70SLPC  C216 6042   5.965   5.712   9.264  0.1118 -0.2574  0.8879
   70SLPC  H16R 6043   5.899   5.650   9.199  1.4237 -0.8575  0.0865
   70SLPC  H16S 6044   6.067   5.669   9.264  0.6531  0.8829 -1.1909
   70SLPC  C217 6045   5.961   5.854   9.189 -0.1627  0.0197  0.1463
   70SLPC  H17R 6046   6.007   5.927   9.259  0.6388  0.9181 -1.2764
   70SLPC  H17S 6047   5.864   5.907   9.182  0.8990  2.1756  0.8404
   70SLPC  C218 6048   6.019   5.856   9.044  0.2113  0.5039  0.3510
   70SLPC  H18R 6049   5.960   5.782   8.986 -3.8889  1.9046  2.2788
   70SLPC  H18S 6050   6.124   5.822   9.046 -0.3944 -1.4726  0.6518
   70SLPC  H18T 6051   6.006   5.955   8.994  0.0960  0.2470 -0.1330
   70SLPC   C33 6052   6.031   4.953   9.987  0.1338  0.6587  0.3468
   70SLPC   H3X 6053   5.952   4.876   9.977  0.2014  0.6168  0.1222
   70SLPC   H3Y 6054   6.129   4.903   9.972 -1.3053 -1.9264 -1.2678
   70SLPC   C34 6055   5.988   5.057   9.881 -0.0509 -0.2242  0.3314
   70SLPC   H4X 6056   6.025   5.157   9.912  0.0162 -0.6215  1.6174
   70SLPC   H4Y 6057   5.877   5.057   9.877 -0.2412  0.4587  3.1816
   70SLPC   C35 6058   6.055   5.023   9.752 -0.5705  0.0701  0.4384
   70SLPC   H5X 6059   6.047   4.913   9.744  0.1448  0.0893 -0.9112
   70SLPC   H5Y 6060   6.161   5.054   9.764 -0.3450  0.8174 -2.6678
   70SLPC   C36 6061   5.976   5.075   9.634  0.9885 -0.4567  0.5472
   70SLPC   H6X 6062   5.962   5.182   9.659 -2.8519  0.0528 -2.8011
   70SLPC   H6Y 6063   5.872   5.037   9.626 -0.0401  2.1021  0.7884
   70SLPC   C37 6064   6.043   5.059   9.501  0.0736  0.1170  0.6834
   70SLPC   H7X 6065   6.045   4.948   9.486 -1.3888 -0.2909  3.0175
   70SLPC   H7Y 6066   6.146   5.102   9.503 -0.4315  1.3343  1.8778
   70SLPC   C38 6067   5.962   5.126   9.386  0.3325 -0.0645  0.0521
   70SLPC   H8X 6068   5.983   5.235   9.392 -0.2771  0.2192 -2.1705
   70SLPC   H8Y 6069   5.856   5.102   9.407  0.1985  0.5873  0.1447
   70SLPC   C39 6070   5.985   5.056   9.248 -0.4525 -0.6649 -0.4328
   70SLPC   H9X 6071   5.969   4.947   9.256 -1.4189 -0.5723 -0.9866
   70SLPC   H9Y 6072   6.093   5.076   9.227 -0.2020 -0.9006  0.6058
   70SLPC  C310 6073   5.885   5.113   9.146  0.1224  0.8263  0.4301
   70SLPC  H10X 6074   5.921   5.212   9.111  0.8813  1.1044  1.9354
   70SLPC  H10Y 6075   5.782   5.111   9.189  0.0469  0.9705  0.2616
   70SLPC  C311 6076   5.891   5.007   9.021 -0.3870 -0.2991 -0.2921
   70SLPC  H11X 6077   5.867   4.905   9.060  0.2730 -1.2308 -2.1868
   70SLPC  H11Y 6078   5.999   5.004   8.993 -0.8782  0.9700 -2.5361
   70SLPC  C312 6079   5.812   5.053   8.898 -0.9617  0.0299 -0.7281
   70SLPC  H12X 6080   5.825   4.985   8.811 -1.1314 -1.3250  0.2831
   70SLPC  H12Y 6081   5.862   5.142   8.855  2.5187 -0.9335  0.9284
   70SLPC  C313 6082   5.662   5.074   8.915 -0.1090  0.3165 -0.5036
   70SLPC  H13X 6083   5.628   5.163   8.971 -0.9193 -0.2437 -0.0765
   70SLPC  H13Y 6084   5.619   4.985   8.966  1.9619  0.8461  2.3941
   70SLPC  C314 6085   5.601   5.092   8.779  0.6151 -0.0025 -0.5269
   70SLPC  H14X 6086   5.627   5.006   8.713  0.1613 -0.1741 -0.4894
   70SLPC  H14Y 6087   5.639   5.183   8.728  1.0140  2.2163  3.3364
   70SLPC  C315 6088   5.449   5.132   8.782  0.0633  0.3766 -0.0680
   70SLPC  H15X 6089   5.457   5.216   8.854  0.9923  0.2791 -0.0537
   70SLPC  H15Y 6090   5.399   5.039   8.817  2.0076 -0.5829  0.3062
   70SLPC  C316 6091   5.391   5.166   8.646  0.9230  0.1945  0.2667
   70SLPC  H16X 6092   5.439   5.256   8.603 -0.2909  0.0473 -1.5255
   70SLPC  H16Y 6093   5.282   5.187   8.655  0.4213 -1.4099 -1.2889
   70SLPC  C317 6094   5.410   5.055   8.534  0.7458 -0.7074 -0.7645
   70SLPC  H17X 6095   5.519   5.032   8.534  0.5222 -2.0603  1.7224
   70SLPC  H17Y 6096   5.372   5.088   8.434 -2.1183 -1.0407  0.1227
   70SLPC  C318 6097   5.351   4.922   8.575  0.5843  1.0238 -0.5473
   70SLPC  H18X 6098   5.411   4.868   8.652 -0.8211  0.1485 -0.0299
   70SLPC  H18Y 6099   5.335   4.855   8.488 -2.1893  0.8892 -0.0162
   70SLPC  H18Z 6100   5.248   4.927   8.615  0.6384 -4.4035  1.1414
   71SLPC     N 6101   6.089   2.440  10.641 -0.3350 -0.4102  0.5103
   71SLPC   C13 6102   6.126   2.300  10.600 -0.6018 -0.3044  0.1180
   71SLPC  H13A 6103   6.054   2.223  10.624 -0.7512 -0.8857 -2.0522
   71SLPC  H13B 6104   6.129   2.285  10.493  2.0554 -0.7299  0.1668
   71SLPC  H13C 6105   6.226   2.274  10.634 -0.3986  1.5355  1.0586
   71SLPC   C14 6106   5.959   2.485  10.573  0.4038  0.3127  0.1601
   71SLPC  H14A 6107   5.974   2.488  10.466  0.5142 -2.0206  0.0745
   71SLPC  H14B 6108   5.890   2.404  10.588  1.9748 -1.1765 -0.4017
   71SLPC  H14C 6109   5.931   2.580  10.618 -1.5054 -0.1496  0.0288
   71SLPC   C15 6110   6.203   2.526  10.591 -0.0249 -0.5595  0.0969
   71SLPC  H15A 6111   6.277   2.517  10.669 -0.0687  1.5023  0.4187
   71SLPC  H15B 6112   6.241   2.491  10.496 -0.9428 -0.7032 -0.2275
   71SLPC  H15C 6113   6.182   2.632  10.591 -2.0266 -0.8303 -2.7553
   71SLPC   C12 6114   6.075   2.451  10.785 -0.1598  0.1870 -0.8513
   71SLPC  H12A 6115   6.138   2.383  10.840  0.3229  1.2552 -0.0530
   71SLPC  H12B 6116   5.977   2.413  10.807  0.3254  0.2734  1.8430
   71SLPC   C11 6117   6.079   2.596  10.848  0.3190  0.8643  0.1926
   71SLPC  H11A 6118   6.178   2.646  10.844  0.5038  0.6501  1.5551
   71SLPC  H11B 6119   6.078   2.584  10.958  2.0687 -1.2834  0.0728
   71SLPC     P 6120   5.954   2.819  10.850 -0.0273  0.4732  0.4320
   71SLPC   O13 6121   5.865   2.814  10.965  0.4240 -0.0184 -0.2105
   71SLPC   O14 6122   6.085   2.880  10.877 -0.9552  0.0749 -0.1918
   71SLPC   O12 6123   5.968   2.673  10.795  0.3434 -0.2296  0.0617
   71SLPC   O11 6124   5.880   2.884  10.730 -0.2253 -0.5424 -0.2952
   71SLPC    C1 6125   5.912   2.839  10.595  0.5115  1.0628  0.0966
   71SLPC    HA 6126   6.011   2.789  10.587  1.8708  3.4900  0.9400
   71SLPC    HB 6127   5.831   2.770  10.564 -0.4247  1.6269  1.2254
   71SLPC    C2 6128   5.908   2.948  10.482  0.8402 -0.2690  0.0169
   71SLPC    HS 6129   5.809   2.998  10.478 -0.6265 -2.7083  2.2669
   71SLPC   O21 6130   5.942   2.890  10.353 -0.4194 -0.0982 -0.3701
   71SLPC   C21 6131   5.832   2.831  10.300 -0.7359  0.3762  0.2914
   71SLPC   O22 6132   5.723   2.820  10.355  0.7442  1.3309  0.3194
   71SLPC   C22 6133   5.891   2.769  10.168  0.1221 -0.3076 -0.0897
   71SLPC   H2R 6134   5.953   2.849  10.122  2.5864 -1.6759  0.7232
   71SLPC   H2S 6135   5.961   2.690  10.200  1.2094  0.4771 -0.4860
   71SLPC    C3 6136   6.010   3.053  10.517  0.0332  0.0110  0.7863
   71SLPC    HX 6137   6.107   3.009  10.547 -0.5333 -1.3286  0.7310
   71SLPC    HY 6138   5.978   3.102  10.612  0.9309 -0.1749  1.1960
   71SLPC   O31 6139   6.035   3.156  10.417 -0.2443  0.7101 -0.0925
   71SLPC   C31 6140   6.118   3.262  10.457 -0.2003  0.9663  0.0699
   71SLPC   O32 6141   6.157   3.282  10.570 -0.8309 -0.3248  0.0500
   71SLPC   C32 6142   6.139   3.356  10.337 -0.6464  0.0559  0.1861
   71SLPC   H2X 6143   6.094   3.454  10.365  1.9258  0.9775  1.4354
   71SLPC   H2Y 6144   6.096   3.320  10.241  3.9663 -1.2964 -1.6883
   71SLPC   C23 6145   5.788   2.727  10.059 -0.6086  0.0507 -0.3812
   71SLPC   H3R 6146   5.718   2.812  10.043  0.9756  1.1593 -1.7459
   71SLPC   H3S 6147   5.724   2.648  10.103 -0.5637 -0.4503 -1.2045
   71SLPC   C24 6148   5.855   2.680   9.928  0.1584  0.4481  0.4174
   71SLPC   H4R 6149   5.917   2.589   9.940 -1.1636 -0.5373  0.0372
   71SLPC   H4S 6150   5.925   2.762   9.901 -0.5198  0.3127 -1.9039
   71SLPC   C25 6151   5.768   2.665   9.804 -0.1319 -0.3583 -0.1053
   71SLPC   H5R 6152   5.708   2.757   9.787 -1.9029 -1.3029  0.7267
   71SLPC   H5S 6153   5.707   2.576   9.830  1.8552 -2.3201 -1.7589
   71SLPC   C26 6154   5.851   2.616   9.681 -0.2864  0.4935 -0.1899
   71SLPC   H6R 6155   5.781   2.559   9.616  0.1154 -0.4611  0.1956
   71SLPC   H6S 6156   5.930   2.547   9.716  1.3659  2.1293 -0.4978
   71SLPC   C27 6157   5.906   2.736   9.599  0.6134 -0.1222 -0.3587
   71SLPC   H7R 6158   5.974   2.789   9.669 -0.6045  0.0339  0.7247
   71SLPC   H7S 6159   5.821   2.801   9.571  0.2671  0.3523  1.6984
   71SLPC   C28 6160   5.969   2.685   9.469 -0.8046 -0.4641 -0.1936
   71SLPC   H8R 6161   5.891   2.636   9.407 -0.6109 -2.1623  0.8423
   71SLPC   H8S 6162   6.053   2.615   9.491 -0.7100 -0.0066  1.0100
   71SLPC   C29 6163   6.019   2.799   9.379  0.7147 -0.6145 -0.7615
   71SLPC   H9R 6164   6.109   2.856   9.407 -0.5239  1.2598 -0.4066
   71SLPC  C210 6165   5.958   2.847   9.271 -0.0367  0.0776 -0.4777
   71SLPC  H10R 6166   6.010   2.920   9.207  0.4709 -1.8830 -2.3809
   71SLPC  C211 6167   5.835   2.794   9.212 -0.0460 -0.4299 -0.6005
   71SLPC  H11R 6168   5.758   2.780   9.291  0.7906  0.3172  0.3720
   71SLPC  H11S 6169   5.837   2.695   9.161 -0.8642  1.0529 -3.8232
   71SLPC  C212 6170   5.782   2.900   9.116  0.3712  0.2311 -0.3333
   71SLPC  H12R 6171   5.720   2.977   9.164  0.9333  0.3896  0.1450
   71SLPC  C213 6172   5.795   2.899   8.981  0.3740  0.3746 -1.1753
   71SLPC  H13R 6173   5.764   2.995   8.938  0.1046  1.1286  0.6607
   71SLPC  C214 6174   5.873   2.813   8.891 -0.1051  0.5704 -0.1574
   71SLPC  H14R 6175   5.868   2.863   8.792 -0.1688 -1.1058 -1.0532
   71SLPC  H14S 6176   5.814   2.719   8.878 -1.4683  1.1144  1.7113
   71SLPC  C215 6177   6.016   2.769   8.924  0.8153  0.2240 -0.1874
   71SLPC  H15R 6178   6.046   2.694   8.847  0.4169 -0.4274  0.2768
   71SLPC  H15S 6179   6.028   2.720   9.023 -1.1661  0.7039  0.3357
   71SLPC  C216 6180   6.117   2.881   8.925  0.5330  0.6135 -0.1402
   71SLPC  H16R 6181   6.203   2.847   8.986 -1.1703  1.6391  3.0586
   71SLPC  H16S 6182   6.076   2.962   8.989 -0.4973 -0.5285  0.6981
   71SLPC  C217 6183   6.144   2.926   8.781 -0.1071 -0.1602 -0.2908
   71SLPC  H17R 6184   6.055   2.973   8.735  0.8106  2.5359  0.5208
   71SLPC  H17S 6185   6.169   2.834   8.723 -1.3900 -0.3989 -0.5046
   71SLPC  C218 6186   6.264   3.016   8.770  0.0331 -0.6990  0.7031
   71SLPC  H18R 6187   6.266   3.095   8.847 -0.6744 -1.6164  1.6964
   71SLPC  H18S 6188   6.277   3.055   8.667 -0.7166  0.1341  0.9159
   71SLPC  H18T 6189   6.352   2.953   8.796  1.6292  1.4270  0.6687
   71SLPC   C33 6190   6.283   3.393  10.308  0.1053  0.0995  0.4017
   71SLPC   H3X 6191   6.325   3.299  10.268 -0.2321  0.4893 -0.9068
   71SLPC   H3Y 6192   6.328   3.422  10.405 -1.9890  0.7801  1.2283
   71SLPC   C34 6193   6.309   3.501  10.195 -0.0054  0.3176 -0.3198
   71SLPC   H4X 6194   6.402   3.548  10.235  1.5679 -2.6085 -0.2913
   71SLPC   H4Y 6195   6.235   3.583  10.193  0.7930  1.0737 -2.7623
   71SLPC   C35 6196   6.341   3.453  10.054  0.4809 -0.7311 -0.1704
   71SLPC   H5X 6197   6.256   3.403  10.003  0.2635  0.5976 -1.1530
   71SLPC   H5Y 6198   6.423   3.377  10.051  0.1936 -1.2002  2.3531
   71SLPC   C36 6199   6.395   3.568   9.967 -0.1180 -0.4165 -0.6278
   71SLPC   H6X 6200   6.474   3.531   9.899 -0.3750 -2.9708  0.3781
   71SLPC   H6Y 6201   6.420   3.654  10.033 -0.0695 -0.7507 -0.2035
   71SLPC   C37 6202   6.291   3.620   9.866  0.0157 -0.7510  0.4918
   71SLPC   H7X 6203   6.187   3.623   9.905 -0.8679  3.2038 -1.5715
   71SLPC   H7Y 6204   6.289   3.544   9.786 -3.3401 -0.3074 -0.0054
   71SLPC   C38 6205   6.325   3.751   9.799 -0.4865  0.9125  0.4390
   71SLPC   H8X 6206   6.430   3.752   9.762 -0.7342 -0.2176 -0.3574
   71SLPC   H8Y 6207   6.300   3.828   9.874 -1.0564  0.5054  0.6743
   71SLPC   C39 6208   6.244   3.781   9.671  0.2095  0.8019  1.0431
   71SLPC   H9X 6209   6.279   3.883   9.645 -2.2466  1.0369 -1.8750
   71SLPC   H9Y 6210   6.134   3.789   9.684  0.2348  1.1131  1.0727
   71SLPC  C310 6211   6.287   3.691   9.548  0.3187 -0.1701 -0.9386
   71SLPC  H10X 6212   6.251   3.587   9.561 -1.2147  0.2948 -1.2755
   71SLPC  H10Y 6213   6.397   3.680   9.544  0.1581 -2.2998 -0.5374
   71SLPC  C311 6214   6.228   3.749   9.422  0.2323  0.6062  0.3367
   71SLPC  H11X 6215   6.239   3.860   9.417  1.7651  0.4358 -0.4777
   71SLPC  H11Y 6216   6.120   3.726   9.410  0.6904 -0.8157 -1.3302
   71SLPC  C312 6217   6.295   3.686   9.298  0.1571 -0.5809 -0.5657
   71SLPC  H12X 6218   6.234   3.709   9.208 -1.3906 -2.0129  0.0556
   71SLPC  H12Y 6219   6.287   3.575   9.305 -2.4938 -0.3719  0.8460
   71SLPC  C313 6220   6.438   3.737   9.270  0.2893 -0.2097  0.2588
   71SLPC  H13X 6221   6.504   3.723   9.358  0.8587 -1.5246 -0.3527
   71SLPC  H13Y 6222   6.435   3.842   9.234 -1.2790 -0.0994  0.6326
   71SLPC  C314 6223   6.501   3.668   9.145  0.9022  0.7708  0.0791
   71SLPC  H14X 6224   6.482   3.560   9.164 -1.9311  1.2881  0.7677
   71SLPC  H14Y 6225   6.608   3.697   9.140  1.2757 -0.6386 -0.3748
   71SLPC  C315 6226   6.439   3.715   9.009 -0.2891 -0.0014 -0.3682
   71SLPC  H15X 6227   6.332   3.686   9.000 -0.8574  2.1862 -1.3039
   71SLPC  H15Y 6228   6.493   3.647   8.940 -0.3974 -1.2742  0.7530
   71SLPC  C316 6229   6.463   3.869   8.982 -0.1637  0.3103  0.1969
   71SLPC  H16X 6230   6.566   3.902   9.008 -0.3042  1.7913 -1.0076
   71SLPC  H16Y 6231   6.393   3.925   9.048  0.8255 -1.4819  2.9731
   71SLPC  C317 6232   6.434   3.910   8.839  0.1421 -0.1913  0.1800
   71SLPC  H17X 6233   6.325   3.894   8.819  0.1217  1.0964 -0.9751
   71SLPC  H17Y 6234   6.486   3.850   8.761 -1.3569  1.0668 -1.9184
   71SLPC  C318 6235   6.454   4.061   8.807 -0.0526 -0.2525 -0.1645
   71SLPC  H18X 6236   6.379   4.116   8.867  0.3580  0.8966 -0.6622
   71SLPC  H18Y 6237   6.429   4.094   8.704 -1.4339  2.4969  0.9526
   71SLPC  H18Z 6238   6.556   4.102   8.827  0.2985 -0.8313 -0.7390
   72SLPC     N 6239   1.476   0.654  11.097  0.0999  0.6266 -0.3628
   72SLPC   C13 6240   1.628   0.635  11.082 -0.1287 -0.4333 -0.2595
   72SLPC  H13A 6241   1.667   0.539  11.111  2.6479  0.6089 -0.3133
   72SLPC  H13B 6242   1.643   0.648  10.976 -1.7010 -0.1815 -0.4777
   72SLPC  H13C 6243   1.675   0.718  11.132 -1.4602 -0.2626  0.7774
   72SLPC   C14 6244   1.443   0.673  11.240 -0.2485 -0.1590 -0.4300
   72SLPC  H14A 6245   1.472   0.769  11.277 -1.8504  0.1537  0.0712
   72SLPC  H14B 6246   1.344   0.642  11.269  0.0720  0.5624  1.5754
   72SLPC  H14C 6247   1.514   0.615  11.297 -0.6157 -0.4339 -0.2536
   72SLPC   C15 6248   1.416   0.528  11.043 -0.3296 -0.2253  0.6765
   72SLPC  H15A 6249   1.462   0.521  10.946  0.3522  1.4827  0.8578
   72SLPC  H15B 6250   1.429   0.436  11.100 -0.2634 -0.6042  0.0565
   72SLPC  H15C 6251   1.309   0.544  11.046 -1.0726 -2.7809 -3.7085
   72SLPC   C12 6252   1.432   0.775  11.008 -0.0757 -0.6644 -0.2444
   72SLPC  H12A 6253   1.465   0.861  11.064  0.1793 -2.9343  3.4283
   72SLPC  H12B 6254   1.326   0.787  11.026  0.0249 -0.3400  0.1543
   72SLPC   C11 6255   1.452   0.777  10.852  0.2978 -0.0275 -0.7833
   72SLPC  H11A 6256   1.414   0.867  10.800 -0.1459 -0.5456 -1.3640
   72SLPC  H11B 6257   1.403   0.691  10.803  0.6400 -1.9217  1.9254
   72SLPC     P 6258   1.689   0.895  10.849 -0.3537 -0.2328  0.1309
   72SLPC   O13 6259   1.652   0.952  10.982  0.5728  0.5238  0.7148
   72SLPC   O14 6260   1.830   0.847  10.842  0.1142 -0.0802 -0.3402
   72SLPC   O12 6261   1.591   0.768  10.818 -0.1942  1.0193 -0.7319
   72SLPC   O11 6262   1.664   1.002  10.732  0.0510  0.2026 -0.2553
   72SLPC    C1 6263   1.664   0.944  10.600 -0.3216 -0.0650 -0.1863
   72SLPC    HA 6264   1.761   0.902  10.567 -0.4508  0.4411 -1.2517
   72SLPC    HB 6265   1.588   0.863  10.593  0.9428 -1.1831 -1.8526
   72SLPC    C2 6266   1.608   1.044  10.490 -0.3258  0.4932 -0.3537
   72SLPC    HS 6267   1.526   0.990  10.438 -0.6406 -1.2708  1.8351
   72SLPC   O21 6268   1.709   1.074  10.393 -0.2873 -0.7827  0.2856
   72SLPC   C21 6269   1.724   0.985  10.303  0.0220  1.0410  0.2571
   72SLPC   O22 6270   1.684   0.869  10.313 -0.0170 -0.1806  0.1235
   72SLPC   C22 6271   1.805   1.051  10.184 -0.2500 -0.0510  0.1551
   72SLPC   H2R 6272   1.736   1.125  10.138  0.1042 -0.0469 -0.3808
   72SLPC   H2S 6273   1.886   1.116  10.225 -1.1712  0.7337  0.7788
   72SLPC    C3 6274   1.555   1.180  10.544 -0.5981 -0.6851 -0.3795
   72SLPC    HX 6275   1.639   1.230  10.597  0.7273 -0.6085 -2.4539
   72SLPC    HY 6276   1.475   1.153  10.616 -1.2393 -1.4963 -1.3650
   72SLPC   O31 6277   1.511   1.272  10.440  0.3721  0.2283 -0.0789
   72SLPC   C31 6278   1.395   1.235  10.371 -0.5697 -0.4507 -0.0790
   72SLPC   O32 6279   1.324   1.144  10.399  0.5104 -0.3156 -0.5249
   72SLPC   C32 6280   1.382   1.336  10.254 -0.2029 -0.2348 -0.5782
   72SLPC   H2X 6281   1.407   1.435  10.296 -1.5777 -0.7976  1.7322
   72SLPC   H2Y 6282   1.273   1.337  10.237 -0.4616  0.9563  1.0232
   72SLPC   C23 6283   1.849   0.958  10.075 -0.0448 -0.1370  0.6427
   72SLPC   H3R 6284   1.755   0.927  10.024  0.2688  1.4539 -1.0273
   72SLPC   H3S 6285   1.905   0.867  10.104  0.5952 -0.2204 -0.7458
   72SLPC   C24 6286   1.948   1.030   9.980  0.5555  0.0841  0.1041
   72SLPC   H4R 6287   2.043   1.048  10.034 -0.0023  1.6868  0.5880
   72SLPC   H4S 6288   1.921   1.131   9.944  2.3879  0.9386  0.9890
   72SLPC   C25 6289   1.980   0.946   9.847 -0.1146 -0.5094 -1.0651
   72SLPC   H5R 6290   1.883   0.922   9.798 -0.3654 -1.4564 -0.1369
   72SLPC   H5S 6291   2.020   0.849   9.883 -0.6462 -0.5014 -0.4249
   72SLPC   C26 6292   2.073   1.025   9.763 -0.3182  0.0127  0.4886
   72SLPC   H6R 6293   2.161   1.048   9.827  0.2163 -1.0334  0.1484
   72SLPC   H6S 6294   2.025   1.116   9.720  1.7242 -0.1682 -2.4877
   72SLPC   C27 6295   2.124   0.944   9.648  0.1098  0.2180  0.7526
   72SLPC   H7R 6296   2.188   0.863   9.690  0.9096  0.4382 -0.0230
   72SLPC   H7S 6297   2.199   1.000   9.589 -0.1069 -1.1477 -0.8999
   72SLPC   C28 6298   2.008   0.886   9.561 -0.1863  0.1988  0.0287
   72SLPC   H8R 6299   1.942   0.968   9.526 -0.8967 -0.5098 -0.3240
   72SLPC   H8S 6300   1.939   0.816   9.613 -0.2659 -1.6568 -2.3696
   72SLPC   C29 6301   2.072   0.817   9.442  0.0668 -0.4495 -0.0615
   72SLPC   H9R 6302   2.182   0.805   9.448  0.2889  0.5873 -1.4731
   72SLPC  C210 6303   2.017   0.786   9.330  0.4073 -0.1166  0.2455
   72SLPC  H10R 6304   2.082   0.747   9.251  1.3052  3.6718 -1.0831
   72SLPC  C211 6305   1.872   0.803   9.293 -0.2553  0.5274 -0.1108
   72SLPC  H11R 6306   1.855   0.898   9.237  2.3043  0.5499 -0.9658
   72SLPC  H11S 6307   1.815   0.838   9.382  0.2907  3.6652 -0.8919
   72SLPC  C212 6308   1.803   0.692   9.226  0.0350 -0.0640 -0.1485
   72SLPC  H12R 6309   1.774   0.702   9.120  0.6420 -2.1808 -0.5515
   72SLPC  C213 6310   1.769   0.578   9.291  0.0994  0.1035  0.0401
   72SLPC  H13R 6311   1.705   0.505   9.239  1.1006 -1.0342  0.3739
   72SLPC  C214 6312   1.805   0.536   9.428  0.2333 -0.7344  0.3180
   72SLPC  H14R 6313   1.877   0.605   9.477 -0.2165 -1.6571  2.4111
   72SLPC  H14S 6314   1.841   0.431   9.427  0.8363 -0.5329  0.5000
   72SLPC  C215 6315   1.677   0.529   9.524 -0.0781  0.3332  0.9667
   72SLPC  H15R 6316   1.614   0.441   9.499 -1.1588  1.4645 -0.4826
   72SLPC  H15S 6317   1.610   0.616   9.502 -2.6300 -1.3757  1.5285
   72SLPC  C216 6318   1.707   0.537   9.667 -0.1004 -0.4240 -0.3242
   72SLPC  H16R 6319   1.767   0.628   9.687  2.3971 -2.3803  1.7887
   72SLPC  H16S 6320   1.771   0.451   9.694 -1.2173 -2.1961 -2.9140
   72SLPC  C217 6321   1.591   0.539   9.771 -0.2269 -0.1569 -0.5947
   72SLPC  H17R 6322   1.541   0.441   9.786  0.1658 -0.2069  0.4849
   72SLPC  H17S 6323   1.515   0.618   9.752  0.2272  0.4603  0.1231
   72SLPC  C218 6324   1.661   0.575   9.908  0.6591 -0.0143 -0.0664
   72SLPC  H18R 6325   1.585   0.609   9.982  1.9445  1.6473  0.5537
   72SLPC  H18S 6326   1.737   0.656   9.913  0.7722 -0.1846  3.2372
   72SLPC  H18T 6327   1.706   0.487   9.959 -2.5505 -0.2000  2.8528
   72SLPC   C33 6328   1.463   1.302  10.132 -0.2044  0.1654  0.2850
   72SLPC   H3X 6329   1.556   1.243  10.145 -1.1746 -1.8551 -1.3395
   72SLPC   H3Y 6330   1.496   1.396  10.082 -3.4864  0.4677 -1.6164
   72SLPC   C34 6331   1.388   1.226  10.021 -0.1112 -0.4546 -0.2164
   72SLPC   H4X 6332   1.285   1.263  10.005 -0.1591  1.2834  3.2018
   72SLPC   H4Y 6333   1.365   1.126  10.064 -1.5077 -0.5683 -1.1784
   72SLPC   C35 6334   1.465   1.222   9.880 -0.4413  0.2004  0.3706
   72SLPC   H5X 6335   1.529   1.312   9.877  1.9054 -1.3469  1.0892
   72SLPC   H5Y 6336   1.382   1.226   9.805 -2.2106 -0.3142  2.2092
   72SLPC   C36 6337   1.549   1.094   9.857 -0.4231 -0.4752 -0.5265
   72SLPC   H6X 6338   1.486   1.006   9.884 -0.5059  0.5038  2.8389
   72SLPC   H6Y 6339   1.631   1.074   9.928 -0.1322 -1.0006 -0.9956
   72SLPC   C37 6340   1.591   1.073   9.709 -0.5571  0.0268 -0.3585
   72SLPC   H7X 6341   1.690   1.025   9.694  0.1066  1.3541 -0.3693
   72SLPC   H7Y 6342   1.607   1.175   9.668  0.0941  0.2752  0.4849
   72SLPC   C38 6343   1.491   0.989   9.630 -1.1162 -0.2442  0.0470
   72SLPC   H8X 6344   1.393   1.041   9.637 -0.8628  0.4255 -1.0322
   72SLPC   H8Y 6345   1.486   0.886   9.671 -1.3059 -0.7864 -1.2948
   72SLPC   C39 6346   1.526   0.967   9.488 -0.4310 -0.5284  0.3082
   72SLPC   H9X 6347   1.457   0.890   9.446  2.0903 -2.7624  0.0032
   72SLPC   H9Y 6348   1.626   0.919   9.486 -0.0105  0.3700 -1.0413
   72SLPC  C310 6349   1.539   1.099   9.407  0.1095  0.8714  0.9431
   72SLPC  H10X 6350   1.642   1.139   9.419 -0.2779  1.4371  2.6258
   72SLPC  H10Y 6351   1.461   1.174   9.434 -0.9765  0.0056  0.3268
   72SLPC  C311 6352   1.523   1.069   9.261 -0.0963  0.1921 -0.6542
   72SLPC  H11X 6353   1.424   1.026   9.237  0.8207 -1.7156 -1.2047
   72SLPC  H11Y 6354   1.596   0.990   9.231  0.8512 -0.4159  2.8212
   72SLPC  C312 6355   1.504   1.197   9.174 -0.7501  0.1399  0.4979
   72SLPC  H12X 6356   1.577   1.279   9.190  0.4478 -0.6146 -0.8577
   72SLPC  H12Y 6357   1.406   1.235   9.208 -2.7600 -1.8034 -2.5789
   72SLPC  C313 6358   1.491   1.164   9.023  0.4480  0.3969 -0.2188
   72SLPC  H13X 6359   1.450   1.243   8.956 -1.1913  2.3347  2.8097
   72SLPC  H13Y 6360   1.410   1.088   9.024 -0.1951  1.0577 -0.6524
   72SLPC  C314 6361   1.615   1.102   8.960 -0.3514 -0.7531 -0.9351
   72SLPC  H14X 6362   1.592   1.033   8.876 -1.0823 -0.3227 -1.0957
   72SLPC  H14Y 6363   1.674   1.045   9.034  0.2602  1.4475  0.3658
   72SLPC  C315 6364   1.709   1.212   8.893  0.7172  0.2559  0.4322
   72SLPC  H15X 6365   1.747   1.282   8.970 -1.7048  0.3967  1.5910
   72SLPC  H15Y 6366   1.637   1.271   8.832 -0.2332  1.0194  2.2329
   72SLPC  C316 6367   1.825   1.156   8.810 -0.5825 -0.4207 -0.8941
   72SLPC  H16X 6368   1.900   1.234   8.784 -1.1890 -0.0926 -1.7062
   72SLPC  H16Y 6369   1.775   1.123   8.716  2.0490  0.1265 -2.5809
   72SLPC  C317 6370   1.904   1.042   8.871 -0.0961  0.4242  0.3342
   72SLPC  H17X 6371   1.968   1.002   8.789 -1.7330 -0.7978 -0.3928
   72SLPC  H17Y 6372   1.831   0.961   8.893 -1.8493  1.6651 -0.6484
   72SLPC  C318 6373   1.977   1.082   8.997  0.2530  0.0056  0.3408
   72SLPC  H18X 6374   1.913   1.124   9.077  3.1611  0.9157  2.3767
   72SLPC  H18Y 6375   2.050   1.164   8.976  1.0364 -0.6760  0.3651
   72SLPC  H18Z 6376   2.027   0.992   9.038  0.3645  0.1416  0.5085
   73SLPC     N 6377   0.169   1.155  10.768 -0.4811  0.4568  0.3594
   73SLPC   C13 6378   0.019   1.161  10.781  0.1653 -0.5961  0.6300
   73SLPC  H13A 6379  -0.034   1.205  10.698  1.5232  1.6434  0.8626
   73SLPC  H13B 6380  -0.023   1.064  10.803 -0.4409 -0.1658  1.4597
   73SLPC  H13C 6381  -0.015   1.230  10.857 -0.9697  1.1938 -1.3864
   73SLPC   C14 6382   0.224   1.118  10.900  0.7108  0.0586  0.5264
   73SLPC  H14A 6383   0.231   1.207  10.961 -4.7335 -0.2553  2.1052
   73SLPC  H14B 6384   0.152   1.055  10.950  0.9594 -0.6707 -0.0091
   73SLPC  H14C 6385   0.315   1.060  10.892  0.9836  0.1175  2.5730
   73SLPC   C15 6386   0.215   1.287  10.722 -0.2411  0.0443 -0.9176
   73SLPC  H15A 6387   0.200   1.361  10.800 -1.3347 -2.0363  0.9666
   73SLPC  H15B 6388   0.318   1.290  10.688  0.0185 -0.1457 -0.1779
   73SLPC  H15C 6389   0.155   1.312  10.636  1.7419 -1.5538 -2.8706
   73SLPC   C12 6390   0.203   1.057  10.653 -0.1368 -0.0832  0.1992
   73SLPC  H12A 6391   0.306   1.070  10.625 -0.4521  2.7154  0.0377
   73SLPC  H12B 6392   0.143   1.093  10.570  0.8086 -0.1622 -0.5398
   73SLPC   C11 6393   0.156   0.908  10.667  0.0815 -0.4570  0.3023
   73SLPC  H11A 6394   0.196   0.861  10.574  0.7109 -1.5180  1.0823
   73SLPC  H11B 6395   0.045   0.903  10.657 -0.0752 -2.3473  2.1366
   73SLPC     P 6396   0.333   0.789  10.822  0.2005  0.4919 -0.4177
   73SLPC   O13 6397   0.420   0.898  10.867 -0.2186 -0.1056 -0.3340
   73SLPC   O14 6398   0.306   0.682  10.928  0.7766 -0.0724 -0.3699
   73SLPC   O12 6399   0.197   0.842  10.780 -0.6590 -0.4032 -0.0898
   73SLPC   O11 6400   0.388   0.719  10.687 -0.2249 -0.0096  0.0822
   73SLPC    C1 6401   0.507   0.780  10.622  0.4384  1.0469 -0.2034
   73SLPC    HA 6402   0.542   0.880  10.656  1.2307  0.4648  0.7324
   73SLPC    HB 6403   0.589   0.709  10.648  1.3268  2.0518 -0.1944
   73SLPC    C2 6404   0.482   0.783  10.467  0.2423  0.1079 -0.1642
   73SLPC    HS 6405   0.379   0.822  10.450 -0.3358 -1.3681 -0.1806
   73SLPC   O21 6406   0.496   0.654  10.417  0.2379 -0.1727  0.7726
   73SLPC   C21 6407   0.393   0.611  10.345 -0.1598  0.5822 -0.1534
   73SLPC   O22 6408   0.287   0.667  10.312 -0.4269  0.0388 -0.1045
   73SLPC   C22 6409   0.425   0.468  10.297 -0.5831  0.6146 -0.7779
   73SLPC   H2R 6410   0.532   0.460  10.267 -1.1131  0.5248 -2.7371
   73SLPC   H2S 6411   0.397   0.412  10.389  1.0503  1.9360  0.5942
   73SLPC    C3 6412   0.584   0.867  10.377 -0.0248 -0.8884 -0.7900
   73SLPC    HX 6413   0.689   0.849  10.409  0.0880 -0.1012 -0.6931
   73SLPC    HY 6414   0.558   0.969  10.415 -1.1668 -1.4698  0.0529
   73SLPC   O31 6415   0.568   0.842  10.234  0.5264 -0.2339 -0.7270
   73SLPC   C31 6416   0.473   0.928  10.176 -0.3115 -0.4601  0.1846
   73SLPC   O32 6417   0.398   0.995  10.239 -0.4136 -1.0245 -0.1367
   73SLPC   C32 6418   0.482   0.926  10.027  0.3639  0.4137 -0.4510
   73SLPC   H2X 6419   0.409   0.843  10.012 -0.1803  0.8988 -0.5222
   73SLPC   H2Y 6420   0.586   0.905   9.992  0.3585  1.7153 -1.3056
   73SLPC   C23 6421   0.335   0.413  10.192  0.0658 -0.5650 -0.2989
   73SLPC   H3R 6422   0.232   0.455  10.203  0.8727  2.0813 -1.8165
   73SLPC   H3S 6423   0.308   0.306  10.192 -0.8192 -0.3490 -0.5648
   73SLPC   C24 6424   0.377   0.450  10.051 -0.2090 -0.1231  0.4070
   73SLPC   H4R 6425   0.467   0.396  10.016  1.2863  2.1791  0.5365
   73SLPC   H4S 6426   0.408   0.556  10.050  2.0143 -0.7340 -0.9932
   73SLPC   C25 6427   0.266   0.432   9.942 -0.2310 -0.4785 -0.2697
   73SLPC   H5R 6428   0.180   0.498   9.968  0.3601  0.5310 -0.8045
   73SLPC   H5S 6429   0.232   0.327   9.939 -0.9566 -0.2711  0.4581
   73SLPC   C26 6430   0.322   0.473   9.804  0.2628  0.1935  0.6102
   73SLPC   H6R 6431   0.428   0.440   9.798  0.6926  1.4012  1.2800
   73SLPC   H6S 6432   0.323   0.584   9.801  0.6666  0.1776 -1.5021
   73SLPC   C27 6433   0.246   0.417   9.689  0.3925 -0.8844  0.3458
   73SLPC   H7R 6434   0.141   0.451   9.698  1.5469  2.7354  1.7918
   73SLPC   H7S 6435   0.253   0.306   9.684  0.9791 -0.8082 -1.2694
   73SLPC   C28 6436   0.311   0.468   9.563  0.0418 -0.0325 -0.0027
   73SLPC   H8R 6437   0.420   0.448   9.561 -0.2153 -1.5886 -1.7323
   73SLPC   H8S 6438   0.311   0.579   9.556 -0.5312 -0.0568 -0.4925
   73SLPC   C29 6439   0.235   0.423   9.444 -0.6947 -0.9298 -0.0460
   73SLPC   H9R 6440   0.146   0.485   9.423 -0.6109  0.0006  2.1169
   73SLPC  C210 6441   0.265   0.321   9.364 -0.6739  0.2058 -0.5823
   73SLPC  H10R 6442   0.189   0.286   9.292 -1.2282 -0.2797  0.2288
   73SLPC  C211 6443   0.383   0.228   9.371 -0.0538  0.3139 -0.5190
   73SLPC  H11R 6444   0.355   0.124   9.400 -2.1449  1.0379  0.2140
   73SLPC  H11S 6445   0.455   0.260   9.450  0.0380  1.9268 -1.2202
   73SLPC  C212 6446   0.445   0.224   9.235 -0.0849  0.5893 -0.7382
   73SLPC  H12R 6447   0.450   0.316   9.175  0.0507  0.1112 -1.4742
   73SLPC  C213 6448   0.505   0.117   9.181  0.4876  0.7615 -0.1149
   73SLPC  H13R 6449   0.553   0.136   9.084 -0.6352  1.0073 -0.6416
   73SLPC  C214 6450   0.521  -0.020   9.243  0.0310 -0.1093  0.4120
   73SLPC  H14R 6451   0.423  -0.071   9.257 -0.1472  0.3633  0.8688
   73SLPC  H14S 6452   0.554  -0.018   9.349  1.6185  0.8956 -0.0570
   73SLPC  C215 6453   0.602  -0.120   9.162 -0.0496 -0.2314  0.1656
   73SLPC  H15R 6454   0.635  -0.207   9.223  1.1524 -1.2186 -1.8193
   73SLPC  H15S 6455   0.694  -0.062   9.142 -0.8766  1.2583  0.5358
   73SLPC  C216 6456   0.530  -0.163   9.034  0.1952 -0.6276 -0.5962
   73SLPC  H16R 6457   0.510  -0.072   8.973 -2.8140  0.1573  1.3312
   73SLPC  H16S 6458   0.437  -0.220   9.058  0.4918 -1.0869 -0.5242
   73SLPC  C217 6459   0.626  -0.260   8.953  0.1481 -0.0424 -0.4240
   73SLPC  H17R 6460   0.645  -0.357   9.005  5.3143  0.2458 -1.2640
   73SLPC  H17S 6461   0.725  -0.211   8.945  1.2395 -2.1052 -0.3891
   73SLPC  C218 6462   0.578  -0.281   8.816  0.1702  0.1900 -0.2455
   73SLPC  H18R 6463   0.650  -0.328   8.746  0.8783 -0.0928  0.6591
   73SLPC  H18S 6464   0.557  -0.185   8.764 -0.9219 -0.8291 -1.7855
   73SLPC  H18T 6465   0.489  -0.348   8.813  0.2418  0.1100 -0.6261
   73SLPC   C33 6466   0.424   1.048   9.955  0.2957  0.1717  0.1444
   73SLPC   H3X 6467   0.484   1.138   9.980 -1.5177  1.7757 -1.0760
   73SLPC   H3Y 6468   0.317   1.060   9.980  0.1754 -0.8775  0.1747
   73SLPC   C34 6469   0.429   1.033   9.805  0.5077 -0.5435 -0.4187
   73SLPC   H4X 6470   0.364   0.946   9.782 -1.2889  0.5318  0.4107
   73SLPC   H4Y 6471   0.530   1.001   9.770  0.6373  1.9841 -2.6864
   73SLPC   C35 6472   0.379   1.150   9.720  0.1562  0.3935 -0.2847
   73SLPC   H5X 6473   0.458   1.225   9.742  0.8912 -0.4525  0.0205
   73SLPC   H5Y 6474   0.277   1.182   9.749  0.7587  1.7716  0.3825
   73SLPC   C36 6475   0.391   1.127   9.572 -0.0003 -0.1255 -0.4187
   73SLPC   H6X 6476   0.318   1.052   9.534  0.5880 -0.3954 -1.0405
   73SLPC   H6Y 6477   0.490   1.086   9.543  0.0459 -0.2103 -0.1445
   73SLPC   C37 6478   0.374   1.256   9.489  0.4207 -0.3989 -0.2482
   73SLPC   H7X 6479   0.438   1.333   9.537 -0.5867 -0.0899  0.6297
   73SLPC   H7Y 6480   0.268   1.287   9.498  0.8506  0.6949  1.5945
   73SLPC   C38 6481   0.415   1.238   9.336  0.1932  0.5396 -0.3282
   73SLPC   H8X 6482   0.357   1.154   9.292  1.2147  0.0189 -0.6957
   73SLPC   H8Y 6483   0.523   1.216   9.330  0.4719  1.6890  0.1779
   73SLPC   C39 6484   0.391   1.360   9.248  0.1316  0.8713  0.9342
   73SLPC   H9X 6485   0.425   1.447   9.307  0.3199  0.5780  1.2588
   73SLPC   H9Y 6486   0.284   1.377   9.226 -0.0515 -0.4002  0.7769
   73SLPC  C310 6487   0.472   1.343   9.112  0.7277  0.0703 -0.2759
   73SLPC  H10X 6488   0.419   1.260   9.061  1.1016 -1.3281  1.5353
   73SLPC  H10Y 6489   0.567   1.300   9.148 -0.4789 -3.5607 -0.9642
   73SLPC  C311 6490   0.477   1.477   9.024 -0.2676 -0.0452 -0.3208
   73SLPC  H11X 6491   0.508   1.565   9.084 -0.8432 -0.1584  0.1577
   73SLPC  H11Y 6492   0.374   1.509   8.995 -0.6290 -0.4848  0.4282
   73SLPC  C312 6493   0.555   1.464   8.895  0.0611 -0.1244  0.4315
   73SLPC  H12X 6494   0.658   1.485   8.930  0.3196 -0.4432 -0.1177
   73SLPC  H12Y 6495   0.527   1.540   8.819  2.1261  0.2651  0.0054
   73SLPC  C313 6496   0.544   1.324   8.832  0.0913  0.4771 -0.0272
   73SLPC  H13X 6497   0.441   1.323   8.791 -0.1615 -1.2530  0.5482
   73SLPC  H13Y 6498   0.563   1.236   8.898  0.3433  0.6143  0.0857
   73SLPC  C314 6499   0.639   1.319   8.708 -1.2378 -0.6846 -1.0002
   73SLPC  H14X 6500   0.743   1.292   8.734 -2.0541 -3.1065  0.0231
   73SLPC  H14Y 6501   0.641   1.422   8.667  0.5086  0.1764  1.0707
   73SLPC  C315 6502   0.587   1.214   8.611  0.2383  0.0419  0.2837
   73SLPC  H15X 6503   0.501   1.274   8.571  0.9021  1.2195  0.5658
   73SLPC  H15Y 6504   0.529   1.135   8.663  0.4902 -1.4368 -1.5877
   73SLPC  C316 6505   0.691   1.140   8.526  0.0894 -0.0066 -1.0182
   73SLPC  H16X 6506   0.632   1.074   8.459 -0.6537 -1.4964  1.0017
   73SLPC  H16Y 6507   0.734   1.065   8.595 -0.4098  0.6306  0.0021
   73SLPC  C317 6508   0.798   1.221   8.450 -0.2632 -0.0139  0.3019
   73SLPC  H17X 6509   0.874   1.166   8.390 -1.6972  0.0188 -1.6207
   73SLPC  H17Y 6510   0.841   1.287   8.529 -0.1168  0.2427  0.0124
   73SLPC  C318 6511   0.721   1.311   8.356 -0.0317 -0.3395 -0.1455
   73SLPC  H18X 6512   0.802   1.349   8.289 -0.0029 -0.2621 -0.0665
   73SLPC  H18Y 6513   0.657   1.390   8.401 -1.1498 -1.3990  0.1865
   73SLPC  H18Z 6514   0.660   1.250   8.286 -0.9278  1.6030 -1.1275
   74SLPC     N 6515   3.928   2.068  10.996  0.1732 -0.1679  0.0618
   74SLPC   C13 6516   3.964   2.142  11.115 -0.7302 -0.5287 -0.6083
   74SLPC  H13A 6517   3.941   2.247  11.120  0.4936 -0.3166  2.0612
   74SLPC  H13B 6518   3.902   2.113  11.199 -1.6591 -0.3992 -1.2351
   74SLPC  H13C 6519   4.068   2.135  11.141 -0.9356 -1.9878 -0.0809
   74SLPC   C14 6520   3.782   2.065  10.983 -0.0995  0.4340 -0.3582
   74SLPC  H14A 6521   3.744   2.022  11.075  0.3966 -1.0002 -0.7915
   74SLPC  H14B 6522   3.750   2.168  10.980 -0.9220  0.3095  2.1817
   74SLPC  H14C 6523   3.738   2.016  10.897 -0.0535 -1.2057  0.5121
   74SLPC   C15 6524   3.981   1.928  10.999  0.3072 -0.3396  0.0310
   74SLPC  H15A 6525   3.930   1.876  11.078 -2.5516  1.2546 -0.6173
   74SLPC  H15B 6526   3.956   1.892  10.900 -0.9562  2.0678 -0.6252
   74SLPC  H15C 6527   4.088   1.936  11.014 -0.0622  0.0725  3.0112
   74SLPC   C12 6528   3.993   2.147  10.878  0.2104  0.4650 -0.9516
   74SLPC  H12A 6529   3.949   2.106  10.789 -0.0617 -0.6507 -0.3234
   74SLPC  H12B 6530   4.095   2.112  10.881 -0.1174 -0.5966  2.1080
   74SLPC   C11 6531   3.981   2.303  10.864  0.5791  0.2255 -1.0078
   74SLPC  H11A 6532   4.042   2.330  10.776  0.0272  2.1084 -0.8561
   74SLPC  H11B 6533   4.024   2.358  10.951  0.9236 -1.6824  0.0869
   74SLPC     P 6534   3.762   2.297  10.721  0.2881 -0.1314 -0.0154
   74SLPC   O13 6535   3.792   2.159  10.686  0.2871  0.1289  0.3062
   74SLPC   O14 6536   3.620   2.331  10.747  0.5853 -0.6233  0.1205
   74SLPC   O12 6537   3.845   2.338  10.848  1.0882  0.1306 -0.2954
   74SLPC   O11 6538   3.823   2.391  10.595  0.3265 -0.2135 -0.1638
   74SLPC    C1 6539   3.793   2.530  10.592  0.1658  0.3450 -0.0604
   74SLPC    HA 6540   3.685   2.539  10.565 -0.1590 -0.1928  1.0007
   74SLPC    HB 6541   3.798   2.576  10.693  1.7741 -3.3072  1.7027
   74SLPC    C2 6542   3.885   2.609  10.506 -0.3395  0.5295  0.3184
   74SLPC    HS 6543   3.859   2.718  10.509 -0.0900  0.6022 -0.1158
   74SLPC   O21 6544   3.870   2.558  10.379  0.0999  0.3219  0.2723
   74SLPC   C21 6545   3.789   2.616  10.292 -0.6691 -0.3268  0.1363
   74SLPC   O22 6546   3.727   2.720  10.308  0.1035 -0.2306 -0.5570
   74SLPC   C22 6547   3.772   2.508  10.168 -0.8902 -0.6669  0.1053
   74SLPC   H2R 6548   3.868   2.452  10.155 -1.1453 -0.7766 -1.5097
   74SLPC   H2S 6549   3.691   2.438  10.196 -1.2031 -0.0381  0.8213
   74SLPC    C3 6550   4.038   2.596  10.543  0.2992  0.3680  0.2842
   74SLPC    HX 6551   4.053   2.486  10.551 -3.0686 -0.1587  0.8439
   74SLPC    HY 6552   4.053   2.642  10.643  0.2584  0.2268  0.3561
   74SLPC   O31 6553   4.122   2.656  10.446 -0.6193  0.5600 -0.4121
   74SLPC   C31 6554   4.235   2.601  10.410 -0.8154  0.6685 -0.4791
   74SLPC   O32 6555   4.280   2.498  10.449  0.4730  0.1003 -0.1758
   74SLPC   C32 6556   4.301   2.692  10.301  0.2126  0.3219  0.4866
   74SLPC   H2X 6557   4.367   2.631  10.235 -0.1855 -0.0806  0.4558
   74SLPC   H2Y 6558   4.370   2.760  10.356 -0.2158  0.2997  1.0565
   74SLPC   C23 6559   3.739   2.580  10.037 -0.4837  0.7599 -0.0629
   74SLPC   H3R 6560   3.818   2.648   9.998 -0.8737  0.8180 -0.7752
   74SLPC   H3S 6561   3.649   2.645  10.046  1.0274  2.6186  3.1120
   74SLPC   C24 6562   3.717   2.467   9.928  0.2809 -0.3683 -0.6954
   74SLPC   H4R 6563   3.624   2.411   9.950  0.2564 -0.7498 -1.7252
   74SLPC   H4S 6564   3.803   2.397   9.937  0.4196 -0.4339 -2.2271
   74SLPC   C25 6565   3.712   2.525   9.787 -0.6620 -0.0657 -0.1303
   74SLPC   H5R 6566   3.803   2.584   9.764 -0.8101  0.2202  0.0237
   74SLPC   H5S 6567   3.637   2.604   9.768  0.7940  1.9188  1.8903
   74SLPC   C26 6568   3.709   2.422   9.678  0.2816  0.1439  0.6925
   74SLPC   H6R 6569   3.632   2.344   9.694  0.1638  0.0051 -0.4608
   74SLPC   H6S 6570   3.806   2.370   9.687 -0.6469 -2.4536 -2.3876
   74SLPC   C27 6571   3.708   2.470   9.530 -0.5458  0.1300 -0.2525
   74SLPC   H7R 6572   3.800   2.532   9.517 -0.0648 -0.7785 -1.3328
   74SLPC   H7S 6573   3.617   2.534   9.526 -1.0611 -0.5996 -0.4264
   74SLPC   C28 6574   3.715   2.355   9.431  0.2717 -0.0715  0.0878
   74SLPC   H8R 6575   3.631   2.285   9.446  0.3213  0.0774  1.1181
   74SLPC   H8S 6576   3.808   2.296   9.448  0.0556 -0.5260 -0.2822
   74SLPC   C29 6577   3.726   2.403   9.289  0.4864 -0.2323 -0.1756
   74SLPC   H9R 6578   3.820   2.456   9.265 -0.1127  0.7454 -0.3994
   74SLPC  C210 6579   3.635   2.388   9.189 -0.7510 -0.1205 -1.0751
   74SLPC  H10R 6580   3.654   2.435   9.091  0.0647 -0.0742 -0.9019
   74SLPC  C211 6581   3.504   2.319   9.200 -0.3326  0.1131  0.1341
   74SLPC  H11R 6582   3.474   2.300   9.306 -1.6239 -1.8421 -0.5047
   74SLPC  H11S 6583   3.513   2.217   9.156 -0.1481  0.5686 -0.9197
   74SLPC  C212 6584   3.383   2.394   9.141 -0.2105  0.1323  0.6031
   74SLPC  H12R 6585   3.344   2.471   9.209  0.6095  1.6376 -0.5819
   74SLPC  C213 6586   3.330   2.379   9.019  0.7389  0.1677  0.2930
   74SLPC  H13R 6587   3.243   2.445   9.003  0.4179  0.3390  2.4477
   74SLPC  C214 6588   3.372   2.274   8.913  0.1660 -0.3951  0.0785
   74SLPC  H14R 6589   3.404   2.181   8.965 -0.4576 -0.8733 -0.3839
   74SLPC  H14S 6590   3.459   2.309   8.853 -0.9179  0.7328 -0.8780
   74SLPC  C215 6591   3.249   2.248   8.819 -0.7261  0.4810  0.1023
   74SLPC  H15R 6592   3.155   2.242   8.878 -0.5802  0.0434  0.2894
   74SLPC  H15S 6593   3.282   2.155   8.767  0.8623  0.2800  1.3953
   74SLPC  C216 6594   3.224   2.358   8.716  0.1277  0.2857  0.0812
   74SLPC  H16R 6595   3.324   2.379   8.672 -1.4539 -0.3712 -4.4267
   74SLPC  H16S 6596   3.187   2.449   8.768 -0.2626  0.7780 -1.0229
   74SLPC  C217 6597   3.133   2.304   8.602  0.2562  0.2804  1.0366
   74SLPC  H17R 6598   3.031   2.286   8.642 -0.6700  1.4243 -0.6606
   74SLPC  H17S 6599   3.185   2.215   8.562 -1.4108  0.1466 -1.0227
   74SLPC  C218 6600   3.131   2.414   8.488 -0.6346  0.4947  0.1714
   74SLPC  H18R 6601   3.237   2.439   8.465 -1.0237  1.7683 -0.3428
   74SLPC  H18S 6602   3.078   2.502   8.531 -0.0100  1.4063 -0.8629
   74SLPC  H18T 6603   3.077   2.365   8.404  1.3515 -1.0146 -0.3019
   74SLPC   C33 6604   4.197   2.786  10.230  0.1708 -0.6217 -0.0217
   74SLPC   H3X 6605   4.261   2.860  10.177 -0.7019  0.4434  0.3765
   74SLPC   H3Y 6606   4.137   2.848  10.300 -0.2205 -0.2977 -0.6356
   74SLPC   C34 6607   4.114   2.711  10.124  1.2553  0.2532 -0.2720
   74SLPC   H4X 6608   4.021   2.771  10.113  2.1283  2.0377  1.4982
   74SLPC   H4Y 6609   4.086   2.618  10.179 -2.4364  1.9488  1.0719
   74SLPC   C35 6610   4.194   2.698   9.995 -0.3781  0.7439  0.2987
   74SLPC   H5X 6611   4.289   2.641  10.001 -0.6459  0.3385  0.8427
   74SLPC   H5Y 6612   4.210   2.800   9.954 -3.9659  1.2351 -0.1907
   74SLPC   C36 6613   4.112   2.626   9.892 -0.5682 -0.1665  0.0489
   74SLPC   H6X 6614   4.018   2.683   9.876 -0.8903 -0.1036  1.9257
   74SLPC   H6Y 6615   4.085   2.521   9.917 -2.2101 -0.0774 -1.1760
   74SLPC   C37 6616   4.179   2.622   9.748  0.7139 -0.2345 -0.0975
   74SLPC   H7X 6617   4.281   2.577   9.754  0.4104 -0.8237  0.8082
   74SLPC   H7Y 6618   4.181   2.731   9.725 -3.2355 -0.5601 -2.9930
   74SLPC   C38 6619   4.086   2.549   9.642 -0.0440 -0.2178  0.4393
   74SLPC   H8X 6620   3.981   2.581   9.655 -0.1995 -0.8555  0.8333
   74SLPC   H8Y 6621   4.091   2.439   9.656  1.2893 -0.6514 -2.6391
   74SLPC   C39 6622   4.141   2.559   9.504 -0.2428  0.3528  0.6263
   74SLPC   H9X 6623   4.093   2.485   9.436  1.0563 -0.8772  0.9987
   74SLPC   H9Y 6624   4.251   2.543   9.501 -0.4097 -0.8845 -1.5032
   74SLPC  C310 6625   4.100   2.694   9.438  0.1679  0.4052  0.4507
   74SLPC  H10X 6626   4.163   2.784   9.456 -0.7804  0.9280  1.2856
   74SLPC  H10Y 6627   3.999   2.724   9.475  0.7234  1.3582  1.2374
   74SLPC  C311 6628   4.106   2.677   9.287  0.5809  0.4013 -0.7624
   74SLPC  H11X 6629   4.045   2.587   9.262 -0.5369  0.5109  1.3646
   74SLPC  H11Y 6630   4.207   2.650   9.250  0.0225  0.0883 -2.1660
   74SLPC  C312 6631   4.057   2.794   9.197  0.1108 -0.3886 -0.1274
   74SLPC  H12X 6632   4.111   2.889   9.217  0.1076 -0.0641 -1.5471
   74SLPC  H12Y 6633   3.948   2.795   9.217 -0.5231 -2.0448 -2.9145
   74SLPC  C313 6634   4.081   2.751   9.055 -0.4534 -0.3999 -0.0041
   74SLPC  H13X 6635   4.025   2.662   9.021  2.3623 -1.9443 -0.9528
   74SLPC  H13Y 6636   4.188   2.720   9.051 -0.1570 -0.1021  3.0422
   74SLPC  C314 6637   4.049   2.858   8.947 -0.6346  0.0410  0.4575
   74SLPC  H14X 6638   4.081   2.960   8.978  0.0646 -0.3935  1.1711
   74SLPC  H14Y 6639   3.938   2.864   8.943 -0.6035 -0.0474 -0.8653
   74SLPC  C315 6640   4.104   2.824   8.811 -0.2567 -0.0697 -0.4977
   74SLPC  H15X 6641   4.077   2.716   8.802  1.7939 -0.7095  0.2786
   74SLPC  H15Y 6642   4.215   2.832   8.818 -0.3289 -0.0364  0.9489
   74SLPC  C316 6643   4.039   2.907   8.699  1.0760 -0.1827  0.4049
   74SLPC  H16X 6644   4.054   3.015   8.721  1.1035  0.3741 -2.0222
   74SLPC  H16Y 6645   3.930   2.890   8.697  1.0567 -0.0147 -0.7381
   74SLPC  C317 6646   4.093   2.873   8.560 -0.6689  0.6529  0.4749
   74SLPC  H17X 6647   4.035   2.934   8.488  0.6965  1.2253 -0.1551
   74SLPC  H17Y 6648   4.077   2.765   8.538 -2.2842  0.8702  0.4124
   74SLPC  C318 6649   4.234   2.916   8.542  0.3124  0.5179  0.1188
   74SLPC  H18X 6650   4.276   2.876   8.447 -3.7842  0.3330 -1.8192
   74SLPC  H18Y 6651   4.296   2.881   8.627  0.4938  2.4140  0.8108
   74SLPC  H18Z 6652   4.245   3.026   8.525 -2.4253  0.8332 -0.0705
   75SLPC     N 6653   5.919   5.524   6.281 -0.2886  0.6794 -0.5400
   75SLPC   C13 6654   5.853   5.601   6.386 -1.1945  1.0327 -0.3820
   75SLPC  H13A 6655   5.834   5.540   6.473  2.2214 -0.8247 -0.7481
   75SLPC  H13B 6656   5.925   5.678   6.410  0.2684  0.1567 -1.7541
   75SLPC  H13C 6657   5.768   5.652   6.344 -0.9923  0.6180 -1.3368
   75SLPC   C14 6658   5.925   5.602   6.160 -0.1582  0.0260 -0.8399
   75SLPC  H14A 6659   5.979   5.538   6.091  0.6606  0.7617 -0.8991
   75SLPC  H14B 6660   5.828   5.626   6.119 -0.4078 -0.3638 -0.4724
   75SLPC  H14C 6661   5.978   5.695   6.178  1.8495 -1.3237  0.5436
   75SLPC   C15 6662   5.844   5.402   6.250 -0.1462 -0.1284  0.3844
   75SLPC  H15A 6663   5.903   5.341   6.183  0.2529 -0.5868  1.1465
   75SLPC  H15B 6664   5.841   5.347   6.343 -0.5309  0.4392  0.7115
   75SLPC  H15C 6665   5.740   5.406   6.219 -0.5012  0.4449  1.5877
   75SLPC   C12 6666   6.060   5.484   6.330  0.0307  0.2894  0.1419
   75SLPC  H12A 6667   6.113   5.436   6.249 -0.4778 -2.3877  1.2677
   75SLPC  H12B 6668   6.057   5.407   6.406 -1.8055 -1.5674 -1.6582
   75SLPC   C11 6669   6.150   5.607   6.371  0.1350 -0.2271 -0.0437
   75SLPC  H11A 6670   6.164   5.669   6.280  0.7042  0.4977  0.5274
   75SLPC  H11B 6671   6.246   5.555   6.391 -0.2198 -2.0356 -2.6010
   75SLPC     P 6672   6.225   5.764   6.564  0.2467 -0.0236 -0.0733
   75SLPC   O13 6673   6.319   5.818   6.463 -0.3537  0.6180  0.0575
   75SLPC   O14 6674   6.160   5.856   6.659  0.0480  0.2420 -0.0056
   75SLPC   O12 6675   6.109   5.679   6.491  0.3943  0.3298  0.3344
   75SLPC   O11 6676   6.300   5.650   6.641 -0.2275  0.0641 -0.4740
   75SLPC    C1 6677   6.230   5.541   6.706  0.0971  0.0924 -0.5829
   75SLPC    HA 6678   6.142   5.574   6.765  0.4055  1.3167 -0.7852
   75SLPC    HB 6679   6.180   5.475   6.633 -2.7852  0.1023  1.2195
   75SLPC    C2 6680   6.317   5.462   6.807 -0.5444  0.7317  0.2921
   75SLPC    HS 6681   6.277   5.363   6.836  0.6870  0.3479  0.7380
   75SLPC   O21 6682   6.344   5.539   6.920 -0.1589 -0.0758  0.1822
   75SLPC   C21 6683   6.240   5.528   7.008  0.5794 -0.3991  0.8161
   75SLPC   O22 6684   6.137   5.459   6.982 -0.1252  0.4308  0.3861
   75SLPC   C22 6685   6.275   5.597   7.139  0.3159  0.9347 -0.2322
   75SLPC   H2R 6686   6.299   5.526   7.221  1.0171  2.4225  0.8957
   75SLPC   H2S 6687   6.366   5.660   7.126  2.8869 -1.9371  2.0526
   75SLPC    C3 6688   6.449   5.428   6.736  0.0094  0.0646 -0.0454
   75SLPC    HX 6689   6.508   5.521   6.723  2.1752 -1.3820 -1.1049
   75SLPC    HY 6690   6.427   5.401   6.631 -2.4286  0.9355  0.1765
   75SLPC   O31 6691   6.533   5.331   6.794  0.3795  0.1058 -0.3160
   75SLPC   C31 6692   6.505   5.204   6.768 -0.4269 -0.3330 -0.3177
   75SLPC   O32 6693   6.432   5.151   6.687 -0.0649  0.3642 -0.4540
   75SLPC   C32 6694   6.601   5.129   6.868 -0.1946  0.6987  0.2656
   75SLPC   H2X 6695   6.703   5.163   6.840  0.2515 -0.5783  0.3072
   75SLPC   H2Y 6696   6.581   5.022   6.847 -1.2897  1.0842 -0.7413
   75SLPC   C23 6697   6.142   5.673   7.184  0.0004  0.5113 -0.1653
   75SLPC   H3R 6698   6.056   5.606   7.162 -0.0253 -0.3379  2.1620
   75SLPC   H3S 6699   6.125   5.760   7.118  1.5616 -0.2195 -1.6078
   75SLPC   C24 6700   6.125   5.705   7.333 -0.0111 -0.5014  0.2541
   75SLPC   H4R 6701   6.135   5.611   7.391 -3.4014 -0.0007  1.9013
   75SLPC   H4S 6702   6.021   5.738   7.355  0.3383  0.0963  1.0479
   75SLPC   C25 6703   6.233   5.805   7.375 -0.5354  0.3660 -0.6411
   75SLPC   H5R 6704   6.195   5.903   7.339 -0.2383  0.6690 -0.1335
   75SLPC   H5S 6705   6.324   5.781   7.316 -1.0594 -0.6708 -1.0564
   75SLPC   C26 6706   6.264   5.789   7.522 -0.4327 -0.3053  0.6461
   75SLPC   H6R 6707   6.293   5.682   7.535  1.5230  0.0798 -0.1373
   75SLPC   H6S 6708   6.171   5.816   7.576 -0.5935  2.3216 -0.7845
   75SLPC   C27 6709   6.374   5.885   7.571 -0.9459 -0.4915  0.9905
   75SLPC   H7R 6710   6.371   5.986   7.525  0.5722 -0.9583 -0.2285
   75SLPC   H7S 6711   6.469   5.837   7.539 -1.5335 -0.2754 -1.2291
   75SLPC   C28 6712   6.374   5.902   7.724  0.5596 -0.5492 -0.0926
   75SLPC   H8R 6713   6.469   5.948   7.760  0.6677 -0.4463 -0.5002
   75SLPC   H8S 6714   6.366   5.807   7.780  0.6489 -0.4216  0.1394
   75SLPC   C29 6715   6.256   5.993   7.757 -0.5189  0.7811 -0.4916
   75SLPC   H9R 6716   6.176   5.989   7.682 -2.5511 -1.7012  1.6333
   75SLPC  C210 6717   6.246   6.081   7.860 -0.0379  0.1188  0.0906
   75SLPC  H10R 6718   6.154   6.140   7.870 -0.0532  0.0175  0.5949
   75SLPC  C211 6719   6.355   6.112   7.958  0.5602 -0.4900  0.1010
   75SLPC  H11R 6720   6.330   6.215   7.993 -0.9562 -0.7829 -0.0609
   75SLPC  H11S 6721   6.451   6.124   7.904  0.0632  0.1085 -0.6719
   75SLPC  C212 6722   6.362   6.001   8.058 -0.1647  0.0564 -0.1283
   75SLPC  H12R 6723   6.347   5.900   8.018  0.8377 -0.1222 -0.0762
   75SLPC  C213 6724   6.395   6.026   8.191 -0.6882 -0.4220 -0.6677
   75SLPC  H13R 6725   6.399   5.947   8.268 -0.8052 -1.6731 -1.9002
   75SLPC  C214 6726   6.419   6.160   8.259 -0.8920  0.8522 -0.1165
   75SLPC  H14R 6727   6.318   6.182   8.301 -2.3035  0.0722 -2.8761
   75SLPC  H14S 6728   6.442   6.239   8.184 -2.3106  2.1836  0.7635
   75SLPC  C215 6729   6.522   6.154   8.369 -0.6544 -0.1522  0.0170
   75SLPC  H15R 6730   6.628   6.160   8.338 -0.4177  3.2595  1.0703
   75SLPC  H15S 6731   6.504   6.059   8.422 -2.8663  0.0088 -0.3320
   75SLPC  C216 6732   6.510   6.268   8.480  0.6084 -0.0484  0.5643
   75SLPC  H16R 6733   6.414   6.267   8.537  0.3411  1.3802  0.1968
   75SLPC  H16S 6734   6.512   6.356   8.412  0.0221 -0.0343  0.5521
   75SLPC  C217 6735   6.626   6.274   8.579 -0.0517 -0.2416  0.1265
   75SLPC  H17R 6736   6.609   6.335   8.671  1.4598 -0.7710  0.7947
   75SLPC  H17S 6737   6.721   6.303   8.530 -0.8896 -0.4838 -1.7017
   75SLPC  C218 6738   6.664   6.140   8.634  0.5371 -0.0606 -0.9519
   75SLPC  H18R 6739   6.695   6.077   8.548 -2.2923 -2.4701 -0.3723
   75SLPC  H18S 6740   6.578   6.085   8.678  1.4592 -0.0681  0.9433
   75SLPC  H18T 6741   6.724   6.146   8.728 -0.0707 -0.1038 -0.5541
   75SLPC   C33 6742   6.571   5.172   7.016  0.5310 -0.0700  0.9576
   75SLPC   H3X 6743   6.656   5.149   7.083  0.0905  1.1251  1.9519
   75SLPC   H3Y 6744   6.559   5.282   7.026 -0.3394 -0.0723  0.0602
   75SLPC   C34 6745   6.449   5.077   7.055  0.3727  0.1647 -0.0507
   75SLPC   H4X 6746   6.475   4.969   7.062 -0.4046 -0.0407 -0.2864
   75SLPC   H4Y 6747   6.373   5.074   6.975  2.1532  1.2682 -1.8548
   75SLPC   C35 6748   6.394   5.108   7.195  0.3294 -0.6787 -0.3713
   75SLPC   H5X 6749   6.311   5.040   7.223 -0.9380  0.5038 -1.1696
   75SLPC   H5Y 6750   6.351   5.210   7.192  1.6902 -0.0704  0.0920
   75SLPC   C36 6751   6.499   5.117   7.306  0.7895 -0.0487  0.3031
   75SLPC   H6X 6752   6.574   5.191   7.272  1.7166 -0.6404  0.9941
   75SLPC   H6Y 6753   6.538   5.013   7.313  0.3029 -0.1713  1.3480
   75SLPC   C37 6754   6.442   5.144   7.452  0.5714  0.4117 -0.8089
   75SLPC   H7X 6755   6.411   5.251   7.446 -2.8066 -0.5100 -1.6309
   75SLPC   H7Y 6756   6.525   5.130   7.524 -1.4416  0.4104  1.6301
   75SLPC   C38 6757   6.327   5.051   7.503  0.6022 -0.5639 -0.4819
   75SLPC   H8X 6758   6.362   4.945   7.511  0.5797 -0.5675 -0.4285
   75SLPC   H8Y 6759   6.245   5.059   7.429  0.8206 -2.0074 -0.9244
   75SLPC   C39 6760   6.277   5.095   7.646 -0.0730 -0.4648  0.5116
   75SLPC   H9X 6761   6.241   5.199   7.659 -1.2309 -0.5854 -1.4259
   75SLPC   H9Y 6762   6.367   5.079   7.709  1.0551  2.0643 -0.2975
   75SLPC  C310 6763   6.168   5.000   7.693  0.0022  0.1003  0.3321
   75SLPC  H10X 6764   6.194   4.897   7.660  0.4684  0.4097 -0.2836
   75SLPC  H10Y 6765   6.072   5.020   7.642 -1.1599 -1.1698  1.9067
   75SLPC  C311 6766   6.145   5.000   7.849  0.2998 -0.0166 -0.7903
   75SLPC  H11X 6767   6.242   4.974   7.896 -0.3288 -0.4469  0.2891
   75SLPC  H11Y 6768   6.079   4.913   7.867  1.1773 -0.9208 -1.8046
   75SLPC  C312 6769   6.074   5.124   7.906 -0.4764  0.0279  0.4938
   75SLPC  H12X 6770   6.013   5.164   7.823 -2.1177  0.9544  2.0642
   75SLPC  H12Y 6771   6.156   5.195   7.931  0.8580 -1.3787  0.2692
   75SLPC  C313 6772   5.984   5.098   8.028  0.6149 -0.7502  0.4365
   75SLPC  H13X 6773   5.908   5.027   7.989  0.2452  0.9977 -2.3397
   75SLPC  H13Y 6774   5.932   5.189   8.065  1.8876  1.0888 -1.9708
   75SLPC  C314 6775   6.050   5.028   8.149 -0.2774  0.2478  0.3686
   75SLPC  H14X 6776   6.139   5.091   8.169  1.7948 -1.7857 -1.7230
   75SLPC  H14Y 6777   6.104   4.938   8.112  1.2741  0.4777  1.9616
   75SLPC  C315 6778   5.961   4.994   8.273  0.4204 -0.0342  0.5005
   75SLPC  H15X 6779   5.871   4.942   8.233  0.6835  1.4257 -2.1782
   75SLPC  H15Y 6780   5.920   5.087   8.317 -1.2521 -0.5518  0.1107
   75SLPC  C316 6781   6.021   4.904   8.377 -0.2171  0.3535 -0.0900
   75SLPC  H16X 6782   6.118   4.957   8.390  1.1032 -1.7523 -0.7695
   75SLPC  H16Y 6783   6.038   4.802   8.336 -0.0146  0.6949 -0.8851
   75SLPC  C317 6784   5.959   4.917   8.518 -0.8125 -0.6807 -0.5003
   75SLPC  H17X 6785   5.911   5.016   8.537 -2.0946 -1.5390  1.0275
   75SLPC  H17Y 6786   6.040   4.908   8.594 -1.0189  0.0490 -0.1784
   75SLPC  C318 6787   5.851   4.819   8.559 -0.1517  0.6074  0.4881
   75SLPC  H18X 6788   5.837   4.818   8.669  0.4074  0.1994  0.5593
   75SLPC  H18Y 6789   5.888   4.721   8.523 -3.3030 -0.4350 -0.1801
   75SLPC  H18Z 6790   5.759   4.831   8.499  0.5114  1.8021 -0.3391
   76SLPC     N 6791   2.354   4.324   6.008  0.3428 -0.1422  0.4459
   76SLPC   C13 6792   2.408   4.235   5.895 -0.6778  0.1973 -0.0173
   76SLPC  H13A 6793   2.369   4.260   5.798  0.7817  1.1474 -0.3921
   76SLPC  H13B 6794   2.515   4.242   5.884 -0.9308  1.0525 -2.6651
   76SLPC  H13C 6795   2.372   4.134   5.907  0.2774 -0.5628 -2.9725
   76SLPC   C14 6796   2.212   4.288   6.037  0.6844  0.1105  0.7677
   76SLPC  H14A 6797   2.214   4.192   6.086 -0.8136 -0.0173  0.6160
   76SLPC  H14B 6798   2.169   4.361   6.103  2.0865 -0.2652  2.1696
   76SLPC  H14C 6799   2.157   4.289   5.944 -2.1471  0.6664  2.3319
   76SLPC   C15 6800   2.366   4.473   5.961  0.0554 -0.2183  0.5397
   76SLPC  H15A 6801   2.306   4.540   6.020  0.6971  2.1243 -1.3332
   76SLPC  H15B 6802   2.468   4.507   5.949  0.5587 -1.5262  0.8419
   76SLPC  H15C 6803   2.324   4.480   5.862 -1.5484 -2.8915  0.9258
   76SLPC   C12 6804   2.441   4.298   6.129 -0.0993 -0.2975 -0.0772
   76SLPC  H12A 6805   2.413   4.198   6.159  3.4548 -1.4546 -0.1480
   76SLPC  H12B 6806   2.413   4.372   6.203  0.6356 -0.1872  0.0953
   76SLPC   C11 6807   2.588   4.300   6.118 -0.1432 -0.0253 -0.0609
   76SLPC  H11A 6808   2.620   4.222   6.045  1.0770  0.3595  0.0348
   76SLPC  H11B 6809   2.633   4.249   6.206  1.2643 -0.1913 -0.8543
   76SLPC     P 6810   2.658   4.549   6.162  0.2335 -0.4798  0.0355
   76SLPC   O13 6811   2.792   4.609   6.130  0.7184 -0.3182  0.1366
   76SLPC   O14 6812   2.533   4.630   6.132 -0.0961 -0.7998  0.0232
   76SLPC   O12 6813   2.655   4.418   6.084  0.4695 -0.5478  0.3653
   76SLPC   O11 6814   2.646   4.513   6.312 -0.1029 -0.4449 -0.0441
   76SLPC    C1 6815   2.664   4.612   6.412  0.0745  0.3008  0.2131
   76SLPC    HA 6816   2.762   4.662   6.396  0.1459 -0.5420 -2.6464
   76SLPC    HB 6817   2.586   4.691   6.415  0.2610  0.4887  0.1342
   76SLPC    C2 6818   2.666   4.549   6.555 -0.1798  0.1589  0.4387
   76SLPC    HS 6819   2.747   4.473   6.555  0.1271  0.2995 -3.1858
   76SLPC   O21 6820   2.530   4.495   6.576  0.0726 -0.2686 -0.1585
   76SLPC   C21 6821   2.534   4.376   6.645 -0.3294  0.2424  0.6665
   76SLPC   O22 6822   2.634   4.316   6.671 -0.1664 -0.6106 -0.1355
   76SLPC   C22 6823   2.396   4.349   6.699  0.5328  0.6666  0.4870
   76SLPC   H2R 6824   2.324   4.382   6.622 -1.4411 -2.0705  1.0048
   76SLPC   H2S 6825   2.382   4.239   6.700  0.5406  0.6223 -1.1786
   76SLPC    C3 6826   2.688   4.650   6.670 -0.5745 -0.4216 -0.2708
   76SLPC    HX 6827   2.606   4.724   6.657 -1.0230 -0.6423  1.1699
   76SLPC    HY 6828   2.785   4.703   6.658  0.2277 -0.9672  2.8231
   76SLPC   O31 6829   2.685   4.595   6.804 -0.4953  0.2394 -0.5654
   76SLPC   C31 6830   2.788   4.525   6.853 -0.1398 -0.6951 -0.2586
   76SLPC   O32 6831   2.889   4.498   6.787 -0.0198  0.9132 -0.0305
   76SLPC   C32 6832   2.754   4.492   7.000 -0.1456 -0.3060  0.5106
   76SLPC   H2X 6833   2.667   4.423   6.990  0.9085 -1.6401  0.1665
   76SLPC   H2Y 6834   2.718   4.576   7.064 -2.1606  0.6584 -1.7153
   76SLPC   C23 6835   2.352   4.415   6.836 -0.7531 -0.0534 -0.1416
   76SLPC   H3R 6836   2.243   4.436   6.830 -0.6764  0.1321 -1.0444
   76SLPC   H3S 6837   2.408   4.511   6.830 -0.8942 -0.0189 -1.0439
   76SLPC   C24 6838   2.391   4.334   6.959 -0.1318 -0.5506  0.1726
   76SLPC   H4R 6839   2.499   4.308   6.963 -0.0776 -0.2369  0.8898
   76SLPC   H4S 6840   2.330   4.242   6.955 -2.6072  1.0145 -0.3882
   76SLPC   C25 6841   2.340   4.401   7.087 -0.7009 -0.2166 -0.5035
   76SLPC   H5R 6842   2.229   4.408   7.084 -0.6182  1.6633 -0.2818
   76SLPC   H5S 6843   2.376   4.506   7.093  1.3369 -0.8608 -0.6192
   76SLPC   C26 6844   2.394   4.335   7.212  0.4365  0.5723  0.2200
   76SLPC   H6R 6845   2.503   4.326   7.196  0.4516  0.3619  0.4477
   76SLPC   H6S 6846   2.342   4.238   7.223  0.5267  0.4366 -0.4721
   76SLPC   C27 6847   2.361   4.422   7.336  0.1575  0.5127  0.3523
   76SLPC   H7R 6848   2.253   4.449   7.343  0.2377  0.9590 -0.0803
   76SLPC   H7S 6849   2.423   4.514   7.329 -0.1480  0.6430 -0.9652
   76SLPC   C28 6850   2.389   4.358   7.467  0.3215 -0.5502  0.0548
   76SLPC   H8R 6851   2.312   4.278   7.477 -0.5814  0.5165  2.2462
   76SLPC   H8S 6852   2.485   4.304   7.471  0.7400  0.2326  2.9099
   76SLPC   C29 6853   2.385   4.452   7.589  0.0919  0.4255 -0.2233
   76SLPC   H9R 6854   2.453   4.538   7.591 -0.1819  0.6372  1.6010
   76SLPC  C210 6855   2.308   4.434   7.701 -0.2526 -0.1535  0.4291
   76SLPC  H10R 6856   2.321   4.506   7.783  1.0146  0.9750 -0.7145
   76SLPC  C211 6857   2.210   4.327   7.732  0.0053 -0.1239 -0.3672
   76SLPC  H11R 6858   2.180   4.290   7.631  0.5070  1.4228 -1.1223
   76SLPC  H11S 6859   2.124   4.382   7.777  1.8795  0.4667  2.8004
   76SLPC  C212 6860   2.268   4.219   7.821 -0.2484  0.7192 -0.1575
   76SLPC  H12R 6861   2.378   4.214   7.823 -0.2332  0.7165 -0.7324
   76SLPC  C213 6862   2.199   4.133   7.899  0.1426 -0.1067 -0.4968
   76SLPC  H13R 6863   2.254   4.057   7.957 -0.0186  0.7657  0.8470
   76SLPC  C214 6864   2.052   4.121   7.917 -0.0376  0.1695  0.1038
   76SLPC  H14R 6865   2.045   4.010   7.909  1.4652  0.0891 -0.5944
   76SLPC  H14S 6866   1.995   4.164   7.832 -1.8946  0.1330  1.2853
   76SLPC  C215 6867   2.007   4.169   8.050  0.0259 -0.1422 -0.2301
   76SLPC  H15R 6868   2.063   4.120   8.132 -0.4817  0.6172  0.5898
   76SLPC  H15S 6869   1.899   4.150   8.065  0.1657 -0.4379  0.4369
   76SLPC  C216 6870   2.029   4.313   8.072  0.0371 -0.2458  0.1924
   76SLPC  H16R 6871   2.006   4.362   7.976 -1.6587  1.0394  1.1978
   76SLPC  H16S 6872   2.136   4.340   8.089 -1.0454  3.7098  2.0312
   76SLPC  C217 6873   1.942   4.383   8.174 -0.4016 -0.0613  0.0440
   76SLPC  H17R 6874   1.839   4.392   8.132 -0.2096  0.2553 -0.3603
   76SLPC  H17S 6875   1.967   4.489   8.194 -2.7941  0.9514 -1.8878
   76SLPC  C218 6876   1.948   4.317   8.317 -0.3691 -0.2551  0.1009
   76SLPC  H18R 6877   2.051   4.300   8.353 -0.7803 -2.1521  0.5148
   76SLPC  H18S 6878   1.900   4.217   8.314  0.7852 -0.7982 -1.8169
   76SLPC  H18T 6879   1.899   4.387   8.388 -0.6229  0.1630 -0.4818
   76SLPC   C33 6880   2.883   4.425   7.061  0.2664 -0.4908 -0.4436
   76SLPC   H3X 6881   2.971   4.493   7.067 -0.2095  0.3660 -2.4146
   76SLPC   H3Y 6882   2.905   4.345   6.987 -1.8175 -0.2605 -1.3627
   76SLPC   C34 6883   2.865   4.347   7.191 -0.0614  0.6086 -0.4297
   76SLPC   H4X 6884   2.970   4.320   7.215 -0.8030 -0.7657  1.5530
   76SLPC   H4Y 6885   2.804   4.261   7.157  0.6987  0.1472 -0.6575
   76SLPC   C35 6886   2.799   4.430   7.297 -0.3692 -0.0727  0.0694
   76SLPC   H5X 6887   2.691   4.444   7.277 -0.6041 -1.3800  0.3070
   76SLPC   H5Y 6888   2.858   4.522   7.314 -0.5330  0.3001 -1.2491
   76SLPC   C36 6889   2.788   4.351   7.430 -0.0443  0.6473 -0.0090
   76SLPC   H6X 6890   2.747   4.253   7.400  0.6545  0.5941 -0.8363
   76SLPC   H6Y 6891   2.711   4.400   7.494  0.1808  0.1556  0.6455
   76SLPC   C37 6892   2.920   4.316   7.510  0.3545  0.6030  0.0522
   76SLPC   H7X 6893   2.971   4.414   7.524  3.3987 -0.3667 -2.7104
   76SLPC   H7Y 6894   2.984   4.250   7.446 -0.6536 -2.7615  2.2870
   76SLPC   C38 6895   2.901   4.250   7.636  0.2977 -0.2892 -0.0068
   76SLPC   H8X 6896   2.991   4.194   7.668  0.1556 -1.2340 -1.2065
   76SLPC   H8Y 6897   2.826   4.171   7.615  0.3787 -0.0621 -1.2318
   76SLPC   C39 6898   2.860   4.336   7.754  0.5388  0.2224 -0.3321
   76SLPC   H9X 6899   2.794   4.412   7.708  2.0079  1.1886 -0.9384
   76SLPC   H9Y 6900   2.950   4.388   7.794  0.9622 -0.8036  0.0862
   76SLPC  C310 6901   2.774   4.266   7.857  0.1800  0.2757  0.4277
   76SLPC  H10X 6902   2.835   4.179   7.892  1.6929  0.4983 -1.4954
   76SLPC  H10Y 6903   2.682   4.229   7.807  0.6180  1.7218 -1.5495
   76SLPC  C311 6904   2.724   4.323   7.985  0.1131 -0.1491 -0.6830
   76SLPC  H11X 6905   2.653   4.406   7.965  1.4067  1.3408  0.5492
   76SLPC  H11Y 6906   2.817   4.370   8.025  0.4352  0.1847 -1.8006
   76SLPC  C312 6907   2.668   4.224   8.087  0.6562 -0.0179 -0.2834
   76SLPC  H12X 6908   2.746   4.145   8.088  0.0874 -0.5836  0.4698
   76SLPC  H12Y 6909   2.573   4.175   8.057  1.0091 -0.6517 -0.3768
   76SLPC  C313 6910   2.652   4.288   8.227 -0.0462 -0.7714  0.3941
   76SLPC  H13X 6911   2.757   4.320   8.247 -0.3572  0.2266  0.4263
   76SLPC  H13Y 6912   2.640   4.204   8.300 -0.0689 -0.5471  0.6501
   76SLPC  C314 6913   2.552   4.405   8.249 -0.0916  0.1403  0.3806
   76SLPC  H14X 6914   2.449   4.384   8.215 -0.2634 -0.8784  1.4788
   76SLPC  H14Y 6915   2.584   4.498   8.197 -1.6173  0.1523 -0.5947
   76SLPC  C315 6916   2.539   4.446   8.398 -0.1193  0.3280  0.4888
   76SLPC  H15X 6917   2.639   4.449   8.445 -0.2973 -1.4306  1.0664
   76SLPC  H15Y 6918   2.484   4.365   8.452 -1.7141  1.0120 -0.0327
   76SLPC  C316 6919   2.463   4.577   8.429  0.3156 -0.5359  0.2326
   76SLPC  H16X 6920   2.356   4.565   8.401 -0.1822  0.2716  1.7058
   76SLPC  H16Y 6921   2.504   4.661   8.370 -1.3805 -0.0474 -0.3134
   76SLPC  C317 6922   2.462   4.620   8.582  0.0069  0.5199 -0.0266
   76SLPC  H17X 6923   2.463   4.731   8.584  0.2875  0.5477 -0.9604
   76SLPC  H17Y 6924   2.552   4.577   8.631 -1.2006 -0.0917  1.7610
   76SLPC  C318 6925   2.346   4.550   8.661 -0.2501 -0.2407  0.2985
   76SLPC  H18X 6926   2.335   4.592   8.763  1.5899  1.9089 -0.2883
   76SLPC  H18Y 6927   2.374   4.443   8.667 -1.4067 -0.5311  0.7399
   76SLPC  H18Z 6928   2.250   4.542   8.607 -0.8425 -0.1405  1.3183
   77SLPC     N 6929   2.712   4.976   6.008  0.4758 -0.5465 -0.4461
   77SLPC   C13 6930   2.749   4.874   5.910 -0.6454 -0.2411 -1.2379
   77SLPC  H13A 6931   2.718   4.890   5.808 -0.6240  1.5590 -1.0099
   77SLPC  H13B 6932   2.854   4.849   5.909 -0.4393  0.4109  0.5347
   77SLPC  H13C 6933   2.692   4.787   5.940 -0.4522  0.2036  0.5395
   77SLPC   C14 6934   2.578   5.025   5.954 -0.2595  0.2471  0.1058
   77SLPC  H14A 6935   2.554   5.116   6.007  0.9104  0.7349 -0.1537
   77SLPC  H14B 6936   2.587   5.055   5.851  1.0181 -1.1679 -0.2368
   77SLPC  H14C 6937   2.503   4.949   5.969  1.4308 -1.1589  2.0144
   77SLPC   C15 6938   2.807   5.089   5.994 -0.1572  0.1039 -0.0793
   77SLPC  H15A 6939   2.793   5.171   6.063  2.6461 -0.1835  0.9444
   77SLPC  H15B 6940   2.908   5.063   6.020  0.9845  3.4587 -0.6978
   77SLPC  H15C 6941   2.807   5.128   5.894 -1.7745  0.7919  0.1501
   77SLPC   C12 6942   2.709   4.914   6.144  0.8221 -0.8968  0.4692
   77SLPC  H12A 6943   2.806   4.867   6.153 -0.1274 -3.3921 -1.1883
   77SLPC  H12B 6944   2.638   4.832   6.146  1.0957 -1.1757 -0.5089
   77SLPC   C11 6945   2.674   5.012   6.268  0.0422 -0.1116 -0.1782
   77SLPC  H11A 6946   2.662   4.937   6.348 -1.4125  0.0055 -0.2418
   77SLPC  H11B 6947   2.576   5.058   6.241  0.5731  0.3254 -1.4294
   77SLPC     P 6948   2.922   5.060   6.347  0.1870 -0.0532  0.4378
   77SLPC   O13 6949   2.967   4.928   6.291  0.2477 -0.3620  0.1431
   77SLPC   O14 6950   3.012   5.177   6.338  0.7161 -0.1698 -0.6525
   77SLPC   O12 6951   2.776   5.103   6.294 -0.1533 -0.8683 -0.1194
   77SLPC   O11 6952   2.890   5.038   6.499  0.0963 -1.0616  0.2685
   77SLPC    C1 6953   2.866   5.152   6.574  0.1676 -0.7030  0.1533
   77SLPC    HA 6954   2.964   5.191   6.610  0.4220 -1.5655  0.4265
   77SLPC    HB 6955   2.807   5.228   6.519 -0.3121 -1.0285  0.2072
   77SLPC    C2 6956   2.779   5.089   6.691 -0.0248  0.3042  0.1366
   77SLPC    HS 6957   2.776   5.168   6.769  0.8418  0.4104  0.0728
   77SLPC   O21 6958   2.844   4.967   6.746  0.4446 -0.3156 -0.2320
   77SLPC   C21 6959   2.943   4.987   6.841  0.4724 -0.0985  0.1712
   77SLPC   O22 6960   2.991   5.086   6.879 -0.7454 -0.2681  0.0030
   77SLPC   C22 6961   2.971   4.855   6.895 -0.2299  0.7797 -0.7941
   77SLPC   H2R 6962   2.875   4.812   6.931 -0.0998 -0.0886 -1.4507
   77SLPC   H2S 6963   3.011   4.783   6.820 -0.9042 -1.2413  0.6883
   77SLPC    C3 6964   2.633   5.059   6.645  0.1549 -0.0152 -0.5077
   77SLPC    HX 6965   2.651   4.973   6.577 -0.8542  0.1795 -1.0503
   77SLPC    HY 6966   2.593   5.155   6.605  1.5121  1.1348  0.8070
   77SLPC   O31 6967   2.549   5.015   6.756  0.0834 -0.3221  0.3239
   77SLPC   C31 6968   2.465   4.913   6.726 -0.2075  0.0827 -0.6199
   77SLPC   O32 6969   2.441   4.881   6.616 -0.4760  0.8388  0.0313
   77SLPC   C32 6970   2.426   4.836   6.850 -0.4849  0.0288 -0.6831
   77SLPC   H2X 6971   2.402   4.737   6.806 -1.0795  0.7663 -2.0838
   77SLPC   H2Y 6972   2.327   4.872   6.883 -0.9074 -1.8772  0.2903
   77SLPC   C23 6973   3.069   4.859   7.015 -0.3391  0.3708 -0.4742
   77SLPC   H3R 6974   3.037   4.930   7.094 -2.8195 -1.6342  0.4499
   77SLPC   H3S 6975   3.176   4.874   6.988 -0.0887 -1.1787 -0.4288
   77SLPC   C24 6976   3.074   4.728   7.090 -0.0796  0.5823  0.6008
   77SLPC   H4R 6977   3.127   4.652   7.028  0.2874 -1.3385  3.1152
   77SLPC   H4S 6978   2.975   4.685   7.114 -0.2026  1.2390  1.2700
   77SLPC   C25 6979   3.169   4.749   7.214 -0.0689  0.8016  0.4041
   77SLPC   H5R 6980   3.255   4.810   7.182  0.0223  0.8804  0.7878
   77SLPC   H5S 6981   3.212   4.650   7.238  0.7389  1.0271 -0.1010
   77SLPC   C26 6982   3.106   4.803   7.344 -0.3904 -0.3190  0.2902
   77SLPC   H6R 6983   3.042   4.721   7.382  0.4006 -0.8132  0.5767
   77SLPC   H6S 6984   3.047   4.894   7.320 -2.5974 -1.6647  0.3863
   77SLPC   C27 6985   3.211   4.828   7.450 -0.8428  0.6344 -0.9812
   77SLPC   H7R 6986   3.284   4.898   7.403  1.2741  0.6359  2.0510
   77SLPC   H7S 6987   3.259   4.730   7.468 -0.8357  1.0015  1.2633
   77SLPC   C28 6988   3.172   4.910   7.578 -0.1742  0.6664  0.1484
   77SLPC   H8R 6989   3.062   4.904   7.588 -0.2959  1.3451 -0.6645
   77SLPC   H8S 6990   3.205   5.015   7.560 -0.6732  0.8071  0.0532
   77SLPC   C29 6991   3.252   4.865   7.698 -0.5752  0.3593  0.1467
   77SLPC   H9R 6992   3.359   4.881   7.680 -0.2126 -0.3240  1.5729
   77SLPC  C210 6993   3.214   4.804   7.813  0.0704 -0.2241 -0.3693
   77SLPC  H10R 6994   3.292   4.772   7.885  0.7324 -2.2069 -1.8859
   77SLPC  C211 6995   3.072   4.765   7.856 -0.1628 -0.1233  0.3865
   77SLPC  H11R 6996   3.000   4.739   7.776 -0.6377 -1.4560  1.2005
   77SLPC  H11S 6997   3.020   4.842   7.916 -2.1115  0.3745 -1.8029
   77SLPC  C212 6998   3.066   4.638   7.946 -0.4166 -0.1716  0.1252
   77SLPC  H12R 6999   3.160   4.583   7.931 -0.0108  1.0276 -2.0064
   77SLPC  C213 7000   2.977   4.591   8.034  0.3408  1.0753  0.8985
   77SLPC  H13R 7001   3.011   4.510   8.100  3.0243  1.5274  0.2195
   77SLPC  C214 7002   2.850   4.655   8.066  0.6312 -0.1559  0.5803
   77SLPC  H14R 7003   2.777   4.573   8.051  1.1219 -0.7541  1.4145
   77SLPC  H14S 7004   2.821   4.747   8.009 -2.3993 -0.6452  1.1295
   77SLPC  C215 7005   2.843   4.692   8.217 -0.3403 -0.5320 -0.1280
   77SLPC  H15R 7006   2.863   4.608   8.286 -2.2199 -0.6007  0.4056
   77SLPC  H15S 7007   2.737   4.720   8.237  0.1898 -0.1640  2.4453
   77SLPC  C216 7008   2.917   4.821   8.256  0.4335 -0.2967 -0.5885
   77SLPC  H16R 7009   2.911   4.901   8.179 -2.4293 -0.3211 -0.4801
   77SLPC  H16S 7010   3.026   4.804   8.272  0.4513  1.7916  2.4022
   77SLPC  C217 7011   2.869   4.876   8.393  0.0750  0.1922 -0.7965
   77SLPC  H17R 7012   2.783   4.944   8.373 -1.8605 -1.9134 -0.0523
   77SLPC  H17S 7013   2.955   4.936   8.431  0.5915  0.2041 -1.9567
   77SLPC  C218 7014   2.832   4.763   8.500  0.3252 -0.0768  0.0561
   77SLPC  H18R 7015   2.911   4.685   8.499  0.1084 -0.3048  0.4509
   77SLPC  H18S 7016   2.745   4.708   8.460  1.5755 -2.8246  0.9102
   77SLPC  H18T 7017   2.818   4.807   8.601  0.3695  1.1752 -0.4658
   77SLPC   C33 7018   2.534   4.829   6.959 -0.1559  0.5489 -0.0100
   77SLPC   H3X 7019   2.632   4.820   6.908 -0.5850 -0.1995 -0.7340
   77SLPC   H3Y 7020   2.509   4.736   7.015  3.4428 -0.3975  0.2756
   77SLPC   C34 7021   2.544   4.950   7.054 -0.5665  0.3612 -0.3940
   77SLPC   H4X 7022   2.446   4.983   7.096 -1.2321 -0.6800 -1.0648
   77SLPC   H4Y 7023   2.585   5.031   6.990  1.7566  1.3039  2.1133
   77SLPC   C35 7024   2.651   4.926   7.159  0.2467 -0.3434 -0.3151
   77SLPC   H5X 7025   2.677   5.021   7.210 -0.9520  0.2551 -0.7781
   77SLPC   H5Y 7026   2.743   4.890   7.108  1.2962  0.7269  0.7553
   77SLPC   C36 7027   2.616   4.818   7.268 -0.8923  0.0625  0.8484
   77SLPC   H6X 7028   2.605   4.724   7.210  1.2037  0.1859  0.1863
   77SLPC   H6Y 7029   2.517   4.848   7.309  0.1400 -1.2672  4.7038
   77SLPC   C37 7030   2.729   4.809   7.368 -0.2260 -0.7599 -0.5855
   77SLPC   H7X 7031   2.765   4.913   7.384 -1.6261  0.1513 -2.8270
   77SLPC   H7Y 7032   2.809   4.750   7.318 -0.2863 -2.1686  0.8915
   77SLPC   C38 7033   2.702   4.737   7.505 -0.5814 -0.2462  0.8384
   77SLPC   H8X 7034   2.806   4.736   7.546 -0.5609 -1.0264  0.7949
   77SLPC   H8Y 7035   2.671   4.631   7.489  2.2315 -1.7424  3.8907
   77SLPC   C39 7036   2.615   4.811   7.594 -0.4279  0.5018 -0.6054
   77SLPC   H9X 7037   2.515   4.826   7.548  0.0698  2.6233 -1.1284
   77SLPC   H9Y 7038   2.661   4.911   7.609  0.4956 -0.2901  2.6889
   77SLPC  C310 7039   2.610   4.749   7.731  0.2518 -0.5543  0.2262
   77SLPC  H10X 7040   2.712   4.710   7.756  1.2618  1.9060  0.2722
   77SLPC  H10Y 7041   2.553   4.654   7.727  1.8781 -1.5914  0.5331
   77SLPC  C311 7042   2.544   4.846   7.830 -0.4219 -0.4960 -0.3380
   77SLPC  H11X 7043   2.463   4.892   7.769  0.1325  0.7880 -0.1477
   77SLPC  H11Y 7044   2.617   4.927   7.849 -0.4947 -0.3235 -0.7714
   77SLPC  C312 7045   2.493   4.769   7.954  0.0073  0.2466 -0.1789
   77SLPC  H12X 7046   2.575   4.696   7.967 -1.6142 -1.5991  0.1414
   77SLPC  H12Y 7047   2.396   4.722   7.925 -0.2654  1.3201 -1.0847
   77SLPC  C313 7048   2.493   4.839   8.090 -0.2522  1.1109 -0.6240
   77SLPC  H13X 7049   2.595   4.882   8.103 -0.7647  1.7970  1.6214
   77SLPC  H13Y 7050   2.472   4.772   8.175 -0.2400  0.6192 -1.0077
   77SLPC  C314 7051   2.391   4.958   8.088  0.6086  0.4218 -0.1780
   77SLPC  H14X 7052   2.291   4.911   8.076 -0.0181  1.8086 -0.6047
   77SLPC  H14Y 7053   2.405   5.029   8.004 -1.2235  0.5536 -0.4201
   77SLPC  C315 7054   2.383   5.048   8.224 -0.1210 -0.1571  0.0985
   77SLPC  H15X 7055   2.345   4.981   8.305  0.7834 -0.9179 -0.0795
   77SLPC  H15Y 7056   2.300   5.120   8.208  1.3486  1.1276 -2.3893
   77SLPC  C316 7057   2.514   5.118   8.268 -0.6573  0.5190 -0.4780
   77SLPC  H16X 7058   2.535   5.204   8.201  0.0033  0.2496 -0.6288
   77SLPC  H16Y 7059   2.592   5.039   8.271 -1.3694 -0.2141 -0.7575
   77SLPC  C317 7060   2.494   5.185   8.409 -0.1768  0.4847  0.8313
   77SLPC  H17X 7061   2.447   5.112   8.478  1.5284 -0.3522  1.1420
   77SLPC  H17Y 7062   2.428   5.271   8.384 -3.9384 -2.5685 -0.8000
   77SLPC  C318 7063   2.621   5.213   8.486 -0.4883 -0.0091 -0.0829
   77SLPC  H18X 7064   2.698   5.263   8.424 -1.0656  0.3580 -0.5052
   77SLPC  H18Y 7065   2.651   5.112   8.522 -1.1926 -0.2523 -0.1589
   77SLPC  H18Z 7066   2.608   5.282   8.572 -0.3053 -1.3213  1.0331
   78SLPC     N 7067   5.288   4.943   6.033  0.0687  0.2045  0.4238
   78SLPC   C13 7068   5.137   4.938   6.022 -0.6278  0.3157  0.2544
   78SLPC  H13A 7069   5.088   5.034   6.029 -0.5652  0.5271 -1.5895
   78SLPC  H13B 7070   5.115   4.888   5.928  0.7867  0.4844 -0.1931
   78SLPC  H13C 7071   5.093   4.875   6.098 -1.4190  0.3814 -0.1362
   78SLPC   C14 7072   5.329   5.040   5.921 -0.5950  0.0077  0.2606
   78SLPC  H14A 7073   5.281   5.135   5.940  0.8783  0.5422  1.5203
   78SLPC  H14B 7074   5.436   5.048   5.917 -0.6929  0.6510 -1.5596
   78SLPC  H14C 7075   5.297   5.011   5.822 -1.1434  1.7948 -0.1076
   78SLPC   C15 7076   5.330   4.807   6.004 -0.6671  0.1520  0.7198
   78SLPC  H15A 7077   5.305   4.733   6.078 -1.2616  0.6750  1.0435
   78SLPC  H15B 7078   5.290   4.763   5.914  1.5372 -0.1911 -0.1675
   78SLPC  H15C 7079   5.436   4.798   5.985 -0.3763  0.8905  1.9005
   78SLPC   C12 7080   5.329   4.988   6.163 -0.7830  0.2714  0.0933
   78SLPC  H12A 7081   5.280   5.081   6.184  0.0539  0.5823  0.7100
   78SLPC  H12B 7082   5.436   4.999   6.163 -0.6197 -1.0637  0.3586
   78SLPC   C11 7083   5.303   4.905   6.289 -0.4930 -0.0231  0.0885
   78SLPC  H11A 7084   5.351   4.961   6.373 -1.5409  0.3386  0.4535
   78SLPC  H11B 7085   5.366   4.813   6.287  0.2701  0.4785  0.4882
   78SLPC     P 7086   5.099   4.743   6.337  0.1243 -0.0051 -0.2673
   78SLPC   O13 7087   4.955   4.761   6.358  0.1971  0.3528  0.1803
   78SLPC   O14 7088   5.138   4.657   6.221 -0.3315  0.3362  0.1974
   78SLPC   O12 7089   5.167   4.882   6.325 -0.1474  0.2212  0.2206
   78SLPC   O11 7090   5.165   4.675   6.456  0.5044 -0.7824  0.0074
   78SLPC    C1 7091   5.170   4.698   6.601  0.0644  0.0911  0.8790
   78SLPC    HA 7092   5.264   4.758   6.603  0.1840  0.6105 -4.3078
   78SLPC    HB 7093   5.082   4.759   6.631  1.7973  2.1441  2.0754
   78SLPC    C2 7094   5.155   4.571   6.690  0.1778  0.4045 -0.2703
   78SLPC    HS 7095   5.093   4.599   6.778 -0.2268 -1.9648  0.2702
   78SLPC   O21 7096   5.288   4.546   6.749  0.2360 -0.2067  0.0687
   78SLPC   C21 7097   5.345   4.633   6.831  0.1655 -0.8449 -0.6184
   78SLPC   O22 7098   5.297   4.745   6.857 -0.5259 -0.5425  0.0461
   78SLPC   C22 7099   5.468   4.574   6.889  0.3970  0.3653  0.2005
   78SLPC   H2R 7100   5.430   4.488   6.948 -0.0769 -0.3563 -1.1016
   78SLPC   H2S 7101   5.535   4.524   6.816 -1.5915  0.7565 -2.0402
   78SLPC    C3 7102   5.101   4.457   6.605 -0.9954 -1.1057 -0.1541
   78SLPC    HX 7103   5.170   4.436   6.520 -1.0744 -0.5588 -0.3556
   78SLPC    HY 7104   5.011   4.509   6.567 -0.1974  0.2925 -0.1928
   78SLPC   O31 7105   5.055   4.341   6.686  0.7362  0.1774  0.1354
   78SLPC   C31 7106   5.153   4.248   6.677  0.3775  0.4849  0.1762
   78SLPC   O32 7107   5.244   4.251   6.598 -0.5810 -0.0487 -0.0155
   78SLPC   C32 7108   5.125   4.141   6.774  0.3265  0.3892  0.4861
   78SLPC   H2X 7109   5.212   4.075   6.791 -1.8429 -2.4445  1.3514
   78SLPC   H2Y 7110   5.038   4.081   6.738 -1.7095  3.2204  0.3230
   78SLPC   C23 7111   5.543   4.665   6.983 -0.6595  0.0968  0.0986
   78SLPC   H3R 7112   5.473   4.737   7.030 -0.7235 -1.0350  1.8047
   78SLPC   H3S 7113   5.618   4.726   6.929  3.5626 -2.6899  2.2322
   78SLPC   C24 7114   5.617   4.586   7.093  0.1244 -0.2925 -0.2956
   78SLPC   H4R 7115   5.703   4.532   7.047 -1.2646 -1.8637 -1.1951
   78SLPC   H4S 7116   5.549   4.517   7.149 -1.8229  1.1594 -0.7652
   78SLPC   C25 7117   5.662   4.682   7.203  0.1547  0.1574 -0.2220
   78SLPC   H5R 7118   5.568   4.735   7.232 -0.0376 -1.4706  2.4605
   78SLPC   H5S 7119   5.739   4.749   7.161 -0.4332  0.6263 -0.5769
   78SLPC   C26 7120   5.730   4.626   7.330 -0.6379  0.7589  0.1410
   78SLPC   H6R 7121   5.822   4.577   7.292 -1.5017 -0.5630 -0.3099
   78SLPC   H6S 7122   5.661   4.562   7.388 -2.0344  0.9458 -1.2358
   78SLPC   C27 7123   5.773   4.738   7.430 -0.3445  0.3981 -0.1668
   78SLPC   H7R 7124   5.686   4.802   7.455  1.1869  1.6165  2.4501
   78SLPC   H7S 7125   5.842   4.810   7.380  0.9300 -0.2668  0.5586
   78SLPC   C28 7126   5.843   4.684   7.556 -0.6506  0.1368 -0.6803
   78SLPC   H8R 7127   5.899   4.762   7.611  1.0320 -1.5567  0.1072
   78SLPC   H8S 7128   5.927   4.614   7.537  0.5892  1.2475  0.5009
   78SLPC   C29 7129   5.751   4.608   7.651 -0.1014  0.0832 -0.8036
   78SLPC   H9R 7130   5.690   4.525   7.614 -0.1291 -0.9181  1.3408
   78SLPC  C210 7131   5.751   4.636   7.780  0.5565  0.4467 -0.6036
   78SLPC  H10R 7132   5.686   4.586   7.853 -0.7498 -0.5766 -2.4152
   78SLPC  C211 7133   5.832   4.737   7.857  0.0752 -0.5584 -0.1593
   78SLPC  H11R 7134   5.809   4.837   7.815  4.1405  0.3854 -0.5954
   78SLPC  H11S 7135   5.942   4.725   7.848  0.6680  0.3904  3.8998
   78SLPC  C212 7136   5.805   4.752   8.003  0.0674  0.3799  0.1714
   78SLPC  H12R 7137   5.710   4.799   8.032 -0.3491 -1.2087  1.5285
   78SLPC  C213 7138   5.873   4.706   8.111  0.4483 -0.5777 -0.7811
   78SLPC  H13R 7139   5.836   4.727   8.212 -3.0351 -3.5223 -1.2590
   78SLPC  C214 7140   5.994   4.618   8.105  0.1014 -1.1025 -0.1570
   78SLPC  H14R 7141   6.066   4.664   8.176 -1.6535  2.1919 -0.3274
   78SLPC  H14S 7142   6.045   4.621   8.006  0.6351 -2.6033  0.0493
   78SLPC  C215 7143   5.963   4.471   8.155  0.5983 -0.2474 -0.1141
   78SLPC  H15R 7144   5.899   4.478   8.246  0.8109  0.6143 -0.0260
   78SLPC  H15S 7145   6.053   4.422   8.199  0.5964  0.0772  0.2545
   78SLPC  C216 7146   5.898   4.382   8.058 -0.3260  0.2962  0.1122
   78SLPC  H16R 7147   5.943   4.403   7.958 -0.5701  0.7527  0.0962
   78SLPC  H16S 7148   5.791   4.403   8.036 -0.4414 -1.5753 -1.3467
   78SLPC  C217 7149   5.915   4.238   8.092  1.0600 -0.1374  0.7503
   78SLPC  H17R 7150   5.896   4.221   8.200 -2.5273 -1.9349 -0.0032
   78SLPC  H17S 7151   6.021   4.206   8.078  0.8251 -0.6232  0.0171
   78SLPC  C218 7152   5.811   4.138   8.026  0.0039  0.0694 -0.0996
   78SLPC  H18R 7153   5.706   4.170   8.040  0.2207  0.6469  0.2247
   78SLPC  H18S 7154   5.831   4.037   8.069 -0.2486 -0.0957 -0.3623
   78SLPC  H18T 7155   5.823   4.141   7.916 -1.4902  1.6944 -0.2635
   78SLPC   C33 7156   5.090   4.199   6.916 -0.0991 -0.5319  0.6887
   78SLPC   H3X 7157   5.077   4.109   6.980 -1.7645 -1.4201 -0.7926
   78SLPC   H3Y 7158   4.992   4.249   6.919 -0.6432 -1.2815 -1.9547
   78SLPC   C34 7159   5.194   4.298   6.978  0.8260  0.4001  0.7931
   78SLPC   H4X 7160   5.206   4.388   6.914 -0.1208  0.2468  0.3920
   78SLPC   H4Y 7161   5.292   4.246   6.979  0.2630 -0.7643 -0.7374
   78SLPC   C35 7162   5.158   4.333   7.122  0.4303 -0.0627 -0.2875
   78SLPC   H5X 7163   5.107   4.245   7.168  1.0908 -0.7228 -0.7961
   78SLPC   H5Y 7164   5.083   4.414   7.125  0.4460 -0.0539 -0.0483
   78SLPC   C36 7165   5.280   4.377   7.192 -0.2567 -0.8893  0.1981
   78SLPC   H6X 7166   5.320   4.469   7.144  0.8499 -0.9072  1.0365
   78SLPC   H6Y 7167   5.360   4.300   7.185  0.9933  0.3674  0.0224
   78SLPC   C37 7168   5.249   4.391   7.341  0.2222 -0.1641  0.0752
   78SLPC   H7X 7169   5.207   4.293   7.371 -1.6344  1.1262  2.0040
   78SLPC   H7Y 7170   5.170   4.464   7.370 -1.5390 -1.3575 -1.4937
   78SLPC   C38 7171   5.364   4.422   7.441  0.3985 -0.2375  0.1172
   78SLPC   H8X 7172   5.431   4.497   7.393  1.8058 -0.9640  0.8646
   78SLPC   H8Y 7173   5.420   4.326   7.442  0.8731  0.0310  1.0547
   78SLPC   C39 7174   5.320   4.450   7.584 -0.0037  0.2503 -0.3393
   78SLPC   H9X 7175   5.238   4.379   7.609 -1.1655  0.3412 -3.4981
   78SLPC   H9Y 7176   5.268   4.547   7.599  1.7185  1.5497 -2.2557
   78SLPC  C310 7177   5.420   4.420   7.698 -0.4556 -0.6645  0.3937
   78SLPC  H10X 7178   5.487   4.508   7.687 -0.6793 -0.7946 -3.5305
   78SLPC  H10Y 7179   5.485   4.332   7.675  1.0318  0.4102  0.3182
   78SLPC  C311 7180   5.368   4.416   7.836  0.8669  0.6656 -0.5095
   78SLPC  H11X 7181   5.304   4.327   7.857  0.1382  1.5088  1.0462
   78SLPC  H11Y 7182   5.297   4.496   7.865  0.4778 -0.2661  1.2713
   78SLPC  C312 7183   5.477   4.427   7.941  0.0050  0.3606 -0.6550
   78SLPC  H12X 7184   5.524   4.528   7.936 -1.5810  1.2250  0.8814
   78SLPC  H12Y 7185   5.558   4.351   7.936 -0.7895 -0.8859  2.8905
   78SLPC  C313 7186   5.417   4.417   8.085  0.2108 -0.0132  0.1500
   78SLPC  H13X 7187   5.353   4.327   8.093 -3.0408  1.6939 -3.3272
   78SLPC  H13Y 7188   5.359   4.510   8.101 -0.0706  0.1280 -1.5124
   78SLPC  C314 7189   5.531   4.427   8.188 -0.1581 -0.0411  0.0861
   78SLPC  H14X 7190   5.605   4.493   8.137 -2.7132  2.4834 -0.6771
   78SLPC  H14Y 7191   5.564   4.323   8.209 -2.4704 -1.4337 -2.5122
   78SLPC  C315 7192   5.494   4.491   8.323 -0.5489 -0.2205  0.2964
   78SLPC  H15X 7193   5.417   4.426   8.369 -2.8461  2.9452  1.2896
   78SLPC  H15Y 7194   5.442   4.587   8.302 -0.8235 -0.4428 -0.0620
   78SLPC  C316 7195   5.623   4.514   8.407  0.1037 -0.6612  0.1271
   78SLPC  H16X 7196   5.702   4.587   8.378  0.3572 -1.0199 -0.0953
   78SLPC  H16Y 7197   5.677   4.417   8.401  2.4246  0.5003  0.8204
   78SLPC  C317 7198   5.595   4.555   8.554 -0.1895  0.3454 -0.0748
   78SLPC  H17X 7199   5.499   4.503   8.575 -0.1385  0.7959  1.3974
   78SLPC  H17Y 7200   5.581   4.665   8.548 -0.0380  0.3051 -1.5550
   78SLPC  C318 7201   5.693   4.508   8.661  0.6279  0.1560  0.3565
   78SLPC  H18X 7202   5.671   4.556   8.758  1.0581 -0.1675  0.6175
   78SLPC  H18Y 7203   5.798   4.537   8.637  0.1789 -0.3601 -2.6337
   78SLPC  H18Z 7204   5.687   4.397   8.666 -1.6198  0.2082 -0.3973
   79SLPC     N 7205   3.779   6.078   6.111 -0.1164  0.1811 -0.4159
   79SLPC   C13 7206   3.746   5.947   6.055  0.4553 -0.2181 -0.0049
   79SLPC  H13A 7207   3.639   5.929   6.059  0.4391 -0.2040 -0.3352
   79SLPC  H13B 7208   3.788   5.936   5.956 -1.6274 -4.0046 -0.6570
   79SLPC  H13C 7209   3.786   5.867   6.116 -1.7356 -1.4080 -0.0277
   79SLPC   C14 7210   3.702   6.186   6.041  0.5714  0.0277 -0.3278
   79SLPC  H14A 7211   3.599   6.153   6.036  0.2482  0.9937 -0.2157
   79SLPC  H14B 7212   3.718   6.273   6.103  3.0960 -0.2179 -0.5367
   79SLPC  H14C 7213   3.731   6.212   5.940 -0.8369  0.5482 -0.6128
   79SLPC   C15 7214   3.928   6.109   6.104  1.0765  0.2010 -0.6184
   79SLPC  H15A 7215   3.954   6.127   6.000  0.5931  2.5790 -0.3870
   79SLPC  H15B 7216   3.953   6.190   6.170  1.1218 -0.8290  0.6527
   79SLPC  H15C 7217   3.978   6.015   6.123 -0.8973 -1.0529 -1.2104
   79SLPC   C12 7218   3.739   6.076   6.261  0.1937  0.4958 -0.2744
   79SLPC  H12A 7219   3.751   5.973   6.293 -2.1078  0.0793 -0.6034
   79SLPC  H12B 7220   3.631   6.079   6.256  0.0467 -0.8286  1.1873
   79SLPC   C11 7221   3.801   6.167   6.372  0.0369  0.1228  0.4419
   79SLPC  H11A 7222   3.881   6.101   6.413 -0.1909 -2.0188 -2.2748
   79SLPC  H11B 7223   3.717   6.179   6.444 -0.8737 -0.0163 -0.5809
   79SLPC     P 7224   3.760   6.419   6.306 -0.0205  0.1188 -0.0837
   79SLPC   O13 7225   3.731   6.447   6.167  0.3478 -0.6862  0.1724
   79SLPC   O14 7226   3.647   6.414   6.401  0.5706 -0.2029 -0.4916
   79SLPC   O12 7227   3.850   6.288   6.319 -0.7322 -0.8498  0.0671
   79SLPC   O11 7228   3.854   6.532   6.364  0.1310  0.4777 -0.0287
   79SLPC    C1 7229   3.952   6.502   6.460  0.4158  0.0942  0.6506
   79SLPC    HA 7230   3.965   6.394   6.484 -1.2055  0.0878  1.6428
   79SLPC    HB 7231   4.051   6.532   6.420  0.1109 -1.2669 -1.2860
   79SLPC    C2 7232   3.917   6.577   6.585 -0.0178  0.5649  0.6375
   79SLPC    HS 7233   3.995   6.551   6.661 -2.4971 -0.9231  2.8326
   79SLPC   O21 7234   3.783   6.538   6.641 -0.6541 -0.0132 -0.0139
   79SLPC   C21 7235   3.777   6.414   6.695 -0.0384 -0.2818  0.6137
   79SLPC   O22 7236   3.871   6.340   6.712  0.1767  0.6014 -1.1220
   79SLPC   C22 7237   3.628   6.393   6.742 -0.0384  0.6702  0.6721
   79SLPC   H2R 7238   3.555   6.451   6.682 -1.2263 -2.6568 -1.4037
   79SLPC   H2S 7239   3.605   6.286   6.723 -0.1955  0.6070  1.1936
   79SLPC    C3 7240   3.929   6.729   6.574 -0.3585  0.5589 -0.5612
   79SLPC    HX 7241   3.863   6.763   6.491  0.2112  0.1352 -1.1993
   79SLPC    HY 7242   4.035   6.747   6.548 -0.5649  0.0822 -1.7862
   79SLPC   O31 7243   3.900   6.799   6.702  0.3610 -0.1815  0.0597
   79SLPC   C31 7244   3.777   6.844   6.721  0.4589 -0.7568  0.0360
   79SLPC   O32 7245   3.687   6.844   6.636 -0.2123 -0.0756 -0.8674
   79SLPC   C32 7246   3.759   6.883   6.868  0.1009 -0.4940  0.2954
   79SLPC   H2X 7247   3.661   6.871   6.918 -1.8393 -0.2651 -3.1046
   79SLPC   H2Y 7248   3.780   6.992   6.872 -2.0181  0.0590 -1.4338
   79SLPC   C23 7249   3.603   6.422   6.895 -0.1056 -0.4103  0.2574
   79SLPC   H3R 7250   3.693   6.397   6.956  0.5927  0.0421 -0.5582
   79SLPC   H3S 7251   3.517   6.361   6.928  1.1815 -2.1212  0.6406
   79SLPC   C24 7252   3.573   6.563   6.919  0.4048 -0.0463 -0.5522
   79SLPC   H4R 7253   3.475   6.594   6.878  0.2959  0.3636  0.0099
   79SLPC   H4S 7254   3.640   6.627   6.858 -0.6515  1.2402 -0.3995
   79SLPC   C25 7255   3.575   6.605   7.072  0.4096 -0.1755 -0.2694
   79SLPC   H5R 7256   3.561   6.715   7.081  2.7669  0.0501  2.0722
   79SLPC   H5S 7257   3.675   6.599   7.121  0.5065  0.9484 -0.2877
   79SLPC   C26 7258   3.471   6.537   7.158  0.1897 -0.2513 -0.2332
   79SLPC   H6R 7259   3.490   6.428   7.173 -0.6820 -0.4029 -0.1969
   79SLPC   H6S 7260   3.370   6.549   7.115 -0.2943 -1.0581  0.6176
   79SLPC   C27 7261   3.466   6.605   7.306 -0.3658  0.0006  0.0442
   79SLPC   H7R 7262   3.378   6.562   7.359 -0.4822 -0.6020 -0.6233
   79SLPC   H7S 7263   3.426   6.702   7.270 -0.6193 -0.3708 -0.6978
   79SLPC   C28 7264   3.594   6.635   7.398  0.0101 -0.4434  0.7431
   79SLPC   H8R 7265   3.563   6.698   7.484 -1.5615 -0.3785  0.1589
   79SLPC   H8S 7266   3.666   6.693   7.336  1.7556 -2.6181  0.5818
   79SLPC   C29 7267   3.659   6.515   7.455 -0.4162  0.3738 -0.2262
   79SLPC   H9R 7268   3.763   6.508   7.420 -0.8772 -0.9991 -1.4174
   79SLPC  C210 7269   3.618   6.431   7.557 -0.4539  1.1371  0.0759
   79SLPC  H10R 7270   3.674   6.346   7.599 -3.8221 -0.8871  0.8571
   79SLPC  C211 7271   3.492   6.458   7.632  0.2792  0.2432 -0.1296
   79SLPC  H11R 7272   3.425   6.533   7.585  0.1732 -2.2103 -4.3949
   79SLPC  H11S 7273   3.522   6.485   7.736  0.9080  0.9501 -0.4910
   79SLPC  C212 7274   3.399   6.337   7.624 -0.4344 -0.0008  0.5563
   79SLPC  H12R 7275   3.409   6.280   7.531  0.5081 -0.6871  1.0588
   79SLPC  C213 7276   3.313   6.292   7.721  0.2018 -1.4933  0.3197
   79SLPC  H13R 7277   3.258   6.199   7.700 -1.2280 -1.0003  1.6396
   79SLPC  C214 7278   3.287   6.358   7.853 -0.0658  0.1301 -0.5118
   79SLPC  H14R 7279   3.181   6.375   7.882 -0.5167 -0.4476 -1.7558
   79SLPC  H14S 7280   3.331   6.458   7.867  0.4592 -0.4407  2.5985
   79SLPC  C215 7281   3.342   6.269   7.971 -0.0722  0.9243  0.4317
   79SLPC  H15R 7282   3.268   6.189   7.990 -0.2164  1.2579  1.3005
   79SLPC  H15S 7283   3.341   6.339   8.057 -3.4675 -0.4524  1.6543
   79SLPC  C216 7284   3.490   6.225   7.950 -0.0741 -1.0526 -0.6472
   79SLPC  H16R 7285   3.550   6.316   7.970 -0.3880 -0.4674 -2.2466
   79SLPC  H16S 7286   3.506   6.191   7.846  0.9690 -2.4620 -0.0495
   79SLPC  C217 7287   3.527   6.101   8.032 -0.0695  0.8186  0.3000
   79SLPC  H17R 7288   3.503   6.122   8.138 -0.7179  0.8050  0.1623
   79SLPC  H17S 7289   3.635   6.079   8.013 -0.7671 -0.8254 -2.3807
   79SLPC  C218 7290   3.456   5.967   7.989  0.6388 -0.3683 -0.6380
   79SLPC  H18R 7291   3.472   5.896   8.073  0.9668  0.7933  0.3099
   79SLPC  H18S 7292   3.483   5.923   7.891 -0.1001 -1.0837 -0.5276
   79SLPC  H18T 7293   3.346   5.974   7.984  0.5473  1.2657  1.7055
   79SLPC   C33 7294   3.863   6.815   6.962  0.2507  0.6778 -0.2497
   79SLPC   H3X 7295   3.967   6.832   6.927  1.2549 -5.6863 -1.5609
   79SLPC   H3Y 7296   3.845   6.705   6.968 -0.1521  0.7263 -0.5220
   79SLPC   C34 7297   3.842   6.884   7.102  0.0053  0.1414 -0.9023
   79SLPC   H4X 7298   3.734   6.879   7.124  0.4402 -1.6922  1.1688
   79SLPC   H4Y 7299   3.868   6.992   7.109 -0.2548  0.1126  1.0332
   79SLPC   C35 7300   3.910   6.802   7.210 -0.2694  0.1065  0.1998
   79SLPC   H5X 7301   4.020   6.815   7.200 -0.3284 -0.8029 -2.9317
   79SLPC   H5Y 7302   3.895   6.694   7.187 -1.1664  0.4548 -0.9551
   79SLPC   C36 7303   3.884   6.852   7.351  0.5021 -0.2061 -0.6563
   79SLPC   H6X 7304   3.900   6.765   7.418 -0.2091 -0.4542 -0.7987
   79SLPC   H6Y 7305   3.777   6.882   7.357  0.0748 -1.7292 -0.2627
   79SLPC   C37 7306   3.979   6.961   7.406  0.0517 -0.1430 -0.4324
   79SLPC   H7X 7307   3.962   7.055   7.350  0.1005  0.1578  0.0508
   79SLPC   H7Y 7308   4.077   6.913   7.387 -1.4332 -3.1606 -1.0611
   79SLPC   C38 7309   3.960   6.990   7.560  0.2611  0.1385  0.2697
   79SLPC   H8X 7310   3.849   6.992   7.560  0.2416 -0.4350  0.9840
   79SLPC   H8Y 7311   4.006   7.086   7.592  0.3226  0.3742 -0.5189
   79SLPC   C39 7312   4.017   6.886   7.662 -0.1079 -0.3640 -0.3448
   79SLPC   H9X 7313   4.070   6.942   7.743  0.5348 -1.3050 -0.0986
   79SLPC   H9Y 7314   4.092   6.816   7.619 -1.6724 -1.4263 -1.4469
   79SLPC  C310 7315   3.909   6.799   7.718  0.2631  0.1011 -0.1566
   79SLPC  H10X 7316   3.851   6.745   7.640  0.3344 -0.0594 -0.1004
   79SLPC  H10Y 7317   3.838   6.861   7.776 -0.4119 -0.3644 -0.4710
   79SLPC  C311 7318   3.961   6.703   7.829 -0.7941 -0.1640 -0.3834
   79SLPC  H11X 7319   3.998   6.773   7.906  2.7225 -0.6886 -1.3610
   79SLPC  H11Y 7320   4.051   6.648   7.793  0.7614  0.8000  1.8049
   79SLPC  C312 7321   3.855   6.604   7.874  0.1601  0.1721 -0.2480
   79SLPC  H12X 7322   3.849   6.522   7.799  1.1001  0.3799 -0.5662
   79SLPC  H12Y 7323   3.753   6.646   7.884  0.0879 -0.0541 -0.0153
   79SLPC  C313 7324   3.897   6.544   8.007 -0.2131  0.1022  0.7070
   79SLPC  H13X 7325   3.893   6.619   8.089 -0.1736  0.3059  0.5211
   79SLPC  H13Y 7326   4.000   6.506   7.993 -0.1716  0.6770 -0.6758
   79SLPC  C314 7327   3.794   6.442   8.062 -0.0369  0.2922  0.1861
   79SLPC  H14X 7328   3.802   6.349   8.001 -1.2124  0.8595 -0.8578
   79SLPC  H14Y 7329   3.697   6.495   8.056  0.3704  0.9271 -0.9713
   79SLPC  C315 7330   3.829   6.395   8.200 -0.3229 -0.0960  0.1372
   79SLPC  H15X 7331   3.792   6.482   8.259 -3.3258 -1.1532  0.0018
   79SLPC  H15Y 7332   3.936   6.367   8.203 -0.8282 -2.8210 -2.2810
   79SLPC  C316 7333   3.736   6.280   8.247 -0.1406  0.5679 -0.3287
   79SLPC  H16X 7334   3.751   6.191   8.182  0.7102 -0.6579  1.4611
   79SLPC  H16Y 7335   3.632   6.316   8.233  0.0986  1.2830 -0.3078
   79SLPC  C317 7336   3.758   6.232   8.390 -0.1405 -0.6033 -0.2796
   79SLPC  H17X 7337   3.757   6.308   8.471 -1.4088 -1.4224  0.5215
   79SLPC  H17Y 7338   3.864   6.204   8.403  0.5517  2.0476  0.4740
   79SLPC  C318 7339   3.666   6.117   8.435 -0.4127 -0.8422 -0.5409
   79SLPC  H18X 7340   3.683   6.114   8.545  1.1291  0.7402 -0.7042
   79SLPC  H18Y 7341   3.695   6.018   8.393 -0.3911  0.3612 -3.6011
   79SLPC  H18Z 7342   3.556   6.128   8.421 -0.4923 -0.2197  0.5031
   80SLPC     N 7343   4.026   3.995   6.225  0.7936  0.4821 -0.6470
   80SLPC   C13 7344   4.042   3.850   6.242  0.1624 -0.7825 -0.3850
   80SLPC  H13A 7345   4.043   3.797   6.148 -0.3896 -1.9685  0.2556
   80SLPC  H13B 7346   4.139   3.836   6.287 -0.9650  1.6506  3.2206
   80SLPC  H13C 7347   3.970   3.814   6.314  1.6305  0.2317  1.6963
   80SLPC   C14 7348   4.024   4.055   6.359  0.2737 -0.7733 -0.6879
   80SLPC  H14A 7349   3.945   4.128   6.360  1.2305  0.3870 -3.0089
   80SLPC  H14B 7350   4.014   3.988   6.444  0.4498 -0.2989 -0.2856
   80SLPC  H14C 7351   4.115   4.109   6.382 -1.5109  2.5433 -0.7920
   80SLPC   C15 7352   3.896   4.035   6.156 -0.2317  0.6115 -0.1645
   80SLPC  H15A 7353   3.811   4.002   6.214  0.2095 -2.5538 -1.1165
   80SLPC  H15B 7354   3.887   4.142   6.146 -0.6453  0.5529 -0.4215
   80SLPC  H15C 7355   3.889   3.988   6.059  0.4044 -1.5668  0.7824
   80SLPC   C12 7356   4.147   4.061   6.144  0.3881  0.2065 -0.4326
   80SLPC  H12A 7357   4.137   4.167   6.164  0.6885 -0.3396  3.3375
   80SLPC  H12B 7358   4.133   4.049   6.037 -0.9697  0.5677 -0.3127
   80SLPC   C11 7359   4.292   4.022   6.198 -0.3912  0.0136 -0.2323
   80SLPC  H11A 7360   4.363   4.027   6.112 -0.8254 -0.6980 -0.6380
   80SLPC  H11B 7361   4.291   3.912   6.212 -0.5897 -0.7070 -4.5960
   80SLPC     P 7362   4.462   4.083   6.391  0.3632  0.2644  0.2258
   80SLPC   O13 7363   4.565   4.065   6.290  0.1703 -0.4818 -0.9532
   80SLPC   O14 7364   4.498   4.177   6.500 -0.0655 -0.0717 -0.1815
   80SLPC   O12 7365   4.323   4.107   6.319  0.4834  0.0805 -0.1865
   80SLPC   O11 7366   4.446   3.940   6.459  0.0111 -0.5026  0.3821
   80SLPC    C1 7367   4.337   3.889   6.527 -0.4914  0.3464  0.1868
   80SLPC    HA 7368   4.288   3.960   6.597 -0.9073 -0.0753  0.3268
   80SLPC    HB 7369   4.266   3.864   6.446  1.6882  0.4938 -1.8834
   80SLPC    C2 7370   4.372   3.769   6.608  0.1633 -0.0938 -0.3024
   80SLPC    HS 7371   4.297   3.765   6.690 -1.0685 -1.3139 -1.4551
   80SLPC   O21 7372   4.497   3.775   6.662  0.1399 -0.3938  0.2415
   80SLPC   C21 7373   4.515   3.870   6.751  0.5746  0.6651 -0.3277
   80SLPC   O22 7374   4.425   3.934   6.808 -0.7401 -0.3428 -0.0248
   80SLPC   C22 7375   4.663   3.893   6.781  0.3453 -0.2058  0.1294
   80SLPC   H2R 7376   4.700   3.815   6.851  1.6111  0.6948  0.4882
   80SLPC   H2S 7377   4.710   3.882   6.681  1.7402 -0.1683  0.7599
   80SLPC    C3 7378   4.358   3.639   6.523 -0.1906  0.1944  0.1142
   80SLPC    HX 7379   4.438   3.643   6.445 -0.2149  0.3584  0.0984
   80SLPC    HY 7380   4.259   3.652   6.474 -0.2038  0.4563  0.2102
   80SLPC   O31 7381   4.369   3.522   6.600 -0.3110  0.9242 -1.0530
   80SLPC   C31 7382   4.489   3.455   6.591 -0.3004 -0.6115  0.3527
   80SLPC   O32 7383   4.580   3.482   6.517  0.0146 -0.7453 -0.1686
   80SLPC   C32 7384   4.489   3.347   6.702  0.6433 -0.0887 -0.5510
   80SLPC   H2X 7385   4.580   3.283   6.695  0.6802 -0.2011  0.7725
   80SLPC   H2Y 7386   4.397   3.287   6.684 -0.7985  1.6166  0.6970
   80SLPC   C23 7387   4.689   4.031   6.836  0.2618  0.1279 -0.1711
   80SLPC   H3R 7388   4.635   4.109   6.779 -0.8933  0.3771  1.2113
   80SLPC   H3S 7389   4.799   4.049   6.834  0.3884 -0.5628  0.2733
   80SLPC   C24 7390   4.653   4.046   6.986  0.4784  0.2331  0.1952
   80SLPC   H4R 7391   4.674   3.951   7.039 -0.4132  0.1992  0.4944
   80SLPC   H4S 7392   4.545   4.067   6.999  0.2297 -0.7345 -0.2024
   80SLPC   C25 7393   4.712   4.163   7.058 -0.2139 -0.5477  0.5249
   80SLPC   H5R 7394   4.668   4.260   7.025  2.8595  1.3749  1.6414
   80SLPC   H5S 7395   4.821   4.167   7.035 -0.7209  2.6267 -2.1401
   80SLPC   C26 7396   4.706   4.159   7.215 -0.5375  0.2938 -0.7716
   80SLPC   H6R 7397   4.605   4.184   7.255 -0.1435 -1.3873  1.4278
   80SLPC   H6S 7398   4.788   4.226   7.250 -0.3539  0.1774 -0.9791
   80SLPC   C27 7399   4.745   4.026   7.277  0.0093 -0.3471 -0.6766
   80SLPC   H7R 7400   4.822   3.984   7.209  0.2840  0.9114 -1.1870
   80SLPC   H7S 7401   4.657   3.959   7.285 -0.1708 -0.3083 -2.0549
   80SLPC   C28 7402   4.813   4.053   7.417 -0.1161 -0.2634 -1.1510
   80SLPC   H8R 7403   4.841   3.958   7.468  2.0351  1.6177  1.4581
   80SLPC   H8S 7404   4.734   4.105   7.474  1.7078 -1.2225  2.5090
   80SLPC   C29 7405   4.928   4.150   7.426  0.2270 -0.7067 -0.3243
   80SLPC   H9R 7406   4.981   4.171   7.332  0.7533 -0.7526 -0.0400
   80SLPC  C210 7407   4.972   4.218   7.530 -0.5481 -0.3265 -0.2878
   80SLPC  H10R 7408   5.067   4.269   7.511  1.2957 -3.3900  0.0875
   80SLPC  C211 7409   4.920   4.212   7.669 -0.5644 -0.1832 -0.1421
   80SLPC  H11R 7410   4.811   4.193   7.669 -0.3455 -1.5498  0.5881
   80SLPC  H11S 7411   4.925   4.312   7.718  3.3740  0.2796 -1.1698
   80SLPC  C212 7412   4.984   4.099   7.752 -0.2606 -0.1667 -1.3384
   80SLPC  H12R 7413   4.991   3.998   7.709 -2.3073 -1.9233  2.0265
   80SLPC  C213 7414   5.035   4.106   7.874  0.1854 -0.3252 -0.0122
   80SLPC  H13R 7415   5.071   4.014   7.923  0.4996  0.2811  0.9217
   80SLPC  C214 7416   5.040   4.225   7.966 -0.2651 -0.2692  0.6327
   80SLPC  H14R 7417   5.070   4.317   7.910 -0.5356 -0.5823 -0.0410
   80SLPC  H14S 7418   5.124   4.202   8.034 -0.0960 -1.1468  0.1352
   80SLPC  C215 7419   4.917   4.256   8.050 -0.1095  0.2464  0.3035
   80SLPC  H15R 7420   4.842   4.302   7.982  0.8202 -0.1583 -1.0556
   80SLPC  H15S 7421   4.925   4.328   8.134  1.3986  1.1919 -0.5987
   80SLPC  C216 7422   4.848   4.140   8.121 -0.7912 -0.2867 -0.2021
   80SLPC  H16R 7423   4.925   4.093   8.186 -0.2774 -0.4493 -0.9157
   80SLPC  H16S 7424   4.823   4.068   8.041  0.3561 -0.9991  0.0490
   80SLPC  C217 7425   4.723   4.188   8.200 -0.0883 -0.0995  0.1151
   80SLPC  H17R 7426   4.659   4.250   8.133 -1.9930  0.7468  2.5705
   80SLPC  H17S 7427   4.761   4.248   8.286  0.9032  0.8478 -0.9457
   80SLPC  C218 7428   4.618   4.079   8.253  0.6812 -0.5117 -0.0122
   80SLPC  H18R 7429   4.544   4.143   8.306  0.0396 -0.7076 -0.6642
   80SLPC  H18S 7430   4.668   3.998   8.312  0.4062 -1.6525 -1.3083
   80SLPC  H18T 7431   4.556   4.039   8.170  2.7403  0.4179 -2.1189
   80SLPC   C33 7432   4.478   3.409   6.834  0.1013  0.4930  0.7173
   80SLPC   H3X 7433   4.461   3.326   6.907  2.6409 -1.0036 -0.2478
   80SLPC   H3Y 7434   4.394   3.479   6.849 -0.5724  0.2095 -1.4657
   80SLPC   C34 7435   4.602   3.477   6.879 -0.0667 -0.3469  0.3704
   80SLPC   H4X 7436   4.620   3.563   6.810  3.7625 -0.1404  1.3872
   80SLPC   H4Y 7437   4.686   3.408   6.857 -0.8128 -1.0385 -0.3324
   80SLPC   C35 7438   4.588   3.548   7.013  0.5726  0.5602 -0.1499
   80SLPC   H5X 7439   4.507   3.624   7.006 -0.0360  0.1252  1.6871
   80SLPC   H5Y 7440   4.678   3.608   7.037  0.0055  1.6824 -0.7657
   80SLPC   C36 7441   4.557   3.450   7.127  1.1427 -0.2948  0.1911
   80SLPC   H6X 7442   4.613   3.355   7.123  0.9298 -0.4544  0.8417
   80SLPC   H6Y 7443   4.452   3.413   7.130  0.7400  0.6507 -1.0873
   80SLPC   C37 7444   4.594   3.503   7.267  0.3123  0.4466  0.5603
   80SLPC   H7X 7445   4.695   3.461   7.285  1.2565  1.7225 -1.4410
   80SLPC   H7Y 7446   4.531   3.445   7.337  0.1753  1.1359  1.0186
   80SLPC   C38 7447   4.563   3.645   7.290  0.6095 -0.1078 -0.2720
   80SLPC   H8X 7448   4.456   3.657   7.264  0.3565  0.8359  1.0545
   80SLPC   H8Y 7449   4.627   3.716   7.233  1.0627 -0.2100  0.1041
   80SLPC   C39 7450   4.560   3.696   7.440  0.6463 -0.0035 -0.3164
   80SLPC   H9X 7451   4.476   3.647   7.494  2.6515 -1.5290  1.6298
   80SLPC   H9Y 7452   4.547   3.806   7.440  0.3768 -0.0332 -0.0727
   80SLPC  C310 7453   4.697   3.667   7.510 -0.4034 -0.3987  0.5425
   80SLPC  H10X 7454   4.785   3.678   7.444 -1.1765 -2.0233 -0.8274
   80SLPC  H10Y 7455   4.699   3.558   7.533  0.0602 -0.8417 -1.4460
   80SLPC  C311 7456   4.709   3.763   7.626  0.4415  0.4267 -0.7348
   80SLPC  H11X 7457   4.672   3.866   7.605 -0.2996  0.1286 -0.9125
   80SLPC  H11Y 7458   4.814   3.776   7.660 -0.0440 -1.1117  1.6568
   80SLPC  C312 7459   4.647   3.706   7.757 -0.0290 -0.6233 -0.3198
   80SLPC  H12X 7460   4.703   3.610   7.766  0.3501 -0.4499 -0.8059
   80SLPC  H12Y 7461   4.541   3.682   7.734 -0.2799  0.2685 -0.1384
   80SLPC  C313 7462   4.659   3.803   7.878  0.5172  0.4918  0.2254
   80SLPC  H13X 7463   4.611   3.897   7.843 -1.6041 -0.2291  1.0256
   80SLPC  H13Y 7464   4.764   3.833   7.901  1.5770 -0.5162 -2.8188
   80SLPC  C314 7465   4.573   3.757   7.996 -0.5296  0.0498 -0.0119
   80SLPC  H14X 7466   4.464   3.752   7.976 -0.7013 -0.3437  0.9576
   80SLPC  H14Y 7467   4.582   3.841   8.068 -0.2382 -0.6830  0.8226
   80SLPC  C315 7468   4.614   3.630   8.071 -0.4461 -0.1799  0.2066
   80SLPC  H15X 7469   4.721   3.641   8.100 -1.5409  1.8723  4.1059
   80SLPC  H15Y 7470   4.618   3.546   7.998  0.4009  0.4250 -0.4610
   80SLPC  C316 7471   4.532   3.590   8.194  0.2479  0.1596 -0.2820
   80SLPC  H16X 7472   4.590   3.524   8.262 -0.1662  0.9581  0.8762
   80SLPC  H16Y 7473   4.434   3.543   8.168  0.3526 -0.6270  0.6777
   80SLPC  C317 7474   4.505   3.710   8.289  0.1039  0.5596 -0.5614
   80SLPC  H17X 7475   4.457   3.797   8.240 -3.2762 -1.4101 -1.1240
   80SLPC  H17Y 7476   4.604   3.734   8.333  0.3329 -1.0159 -0.1570
   80SLPC  C318 7477   4.403   3.677   8.399  0.8969  0.0127 -0.1733
   80SLPC  H18X 7478   4.432   3.580   8.445  0.5877 -0.4891 -1.0249
   80SLPC  H18Y 7479   4.299   3.669   8.363  0.4504  2.0422  0.5459
   80SLPC  H18Z 7480   4.405   3.756   8.477  0.1287  1.2659 -1.3967
   81SAPS     N 7481   5.668   0.229  11.137  0.8042  0.3373 -0.2656
   81SAPS   HN1 7482   5.740   0.205  11.208  1.5752 -2.6124 -1.8886
   81SAPS   HN2 7483   5.608   0.144  11.129  4.4870 -2.4652 -1.0810
   81SAPS   HN3 7484   5.717   0.247  11.047  2.1160 -1.1194  0.1158
   81SAPS   C12 7485   5.579   0.340  11.169  0.3353  0.1008 -0.4935
   81SAPS  H12A 7486   5.520   0.309  11.254 -0.0195  2.8725  0.4018
   81SAPS   C13 7487   5.642   0.469  11.216 -0.1691  0.1674 -0.5499
   81SAPS  O13A 7488   5.765   0.477  11.246 -0.2652  0.4815 -0.0118
   81SAPS  O13B 7489   5.569   0.572  11.239  0.1577 -0.0195 -0.1049
   81SAPS   C11 7490   5.490   0.372  11.049  0.1059 -0.5543 -0.1490
   81SAPS  H11A 7491   5.557   0.394  10.964  2.9420 -1.4445  1.7376
   81SAPS  H11B 7492   5.425   0.460  11.072  0.5119 -0.0811 -0.7731
   81SAPS     P 7493   5.263   0.237  11.039 -0.1595  0.2229 -0.3431
   81SAPS   O13 7494   5.226   0.094  11.020 -0.5606 -0.2915  0.3290
   81SAPS   O14 7495   5.223   0.295  11.168 -0.2652  1.0617 -0.2648
   81SAPS   O12 7496   5.419   0.251  11.019 -0.5855 -0.3274 -0.1772
   81SAPS   O11 7497   5.202   0.325  10.925  0.0471  0.4107 -0.3436
   81SAPS    C1 7498   5.263   0.336  10.797  0.7312 -0.1308  0.5342
   81SAPS    HA 7499   5.337   0.419  10.800 -0.6877  1.1685  1.1018
   81SAPS    HB 7500   5.306   0.239  10.767 -3.7270 -2.1324 -0.1912
   81SAPS    C2 7501   5.155   0.373  10.686  0.1403  0.1038  0.1446
   81SAPS    HS 7502   5.209   0.401  10.593  1.6732  0.3616  1.0733
   81SAPS   O21 7503   5.071   0.481  10.730  0.5009  0.5894 -0.0746
   81SAPS   C21 7504   5.123   0.596  10.722  0.0688 -0.0092 -0.7089
   81SAPS   O22 7505   5.243   0.619  10.694  0.7171  0.5265 -0.0969
   81SAPS   C22 7506   5.014   0.701  10.755 -0.6894  0.2364 -0.4032
   81SAPS   H2R 7507   5.010   0.736  10.860  0.6959 -2.8605  0.8401
   81SAPS   H2S 7508   5.038   0.789  10.692 -1.6266  2.4675  2.1690
   81SAPS    C3 7509   5.070   0.249  10.659 -0.0311  0.6903  0.2666
   81SAPS    HX 7510   4.992   0.277  10.584 -1.5879 -0.3647  1.4102
   81SAPS    HY 7511   5.018   0.223  10.754  1.1990  1.9964  1.3318
   81SAPS   O31 7512   5.148   0.134  10.621  0.3667  0.2436 -0.0877
   81SAPS   C31 7513   5.096   0.056  10.532  1.3962 -0.4972 -0.2029
   81SAPS   O32 7514   4.981   0.070  10.481  0.3075 -0.1676  0.0343
   81SAPS   C32 7515   5.182  -0.070  10.527 -0.0874 -0.0834 -0.5526
   81SAPS   H2X 7516   5.117  -0.141  10.584  0.2397 -0.4457 -0.6318
   81SAPS   H2Y 7517   5.278  -0.044  10.577  0.3663 -0.8879 -0.9914
   81SAPS   C23 7518   4.871   0.659  10.720  0.3023 -0.5630  0.3477
   81SAPS   H3R 7519   4.801   0.719  10.781  0.3791  1.5531 -1.5208
   81SAPS   H3S 7520   4.858   0.549  10.734  2.1605 -1.0389 -1.2498
   81SAPS   C24 7521   4.834   0.706  10.578  0.4992  0.4071  0.5010
   81SAPS   H4R 7522   4.845   0.817  10.579  0.8196  0.3792  0.2683
   81SAPS   H4S 7523   4.730   0.666  10.570  1.0447 -0.7804 -1.2970
   81SAPS   C25 7524   4.936   0.662  10.467 -0.0536 -0.3811 -0.5997
   81SAPS   H5R 7525   5.040   0.692  10.486  0.4876 -0.5890 -2.9885
   81SAPS   C26 7526   4.909   0.576  10.367 -0.2381  0.6794  0.0454
   81SAPS   H6R 7527   4.998   0.545  10.311  0.4884 -0.4088  1.7325
   81SAPS   C27 7528   4.778   0.508  10.338 -0.1667 -0.2045 -0.0778
   81SAPS   H7R 7529   4.700   0.515  10.417  1.4540  1.4732  1.4716
   81SAPS   H7S 7530   4.804   0.403  10.313 -0.9170 -0.3650 -0.2076
   81SAPS   C28 7531   4.718   0.585  10.222  0.0027  0.0943 -0.2479
   81SAPS   H8R 7532   4.665   0.676  10.253  1.4349  0.8885 -0.0679
   81SAPS   C29 7533   4.711   0.545  10.094  0.1837  0.4422 -0.0569
   81SAPS   H9R 7534   4.670   0.619  10.023 -1.3853  0.0203  0.3693
   81SAPS  C210 7535   4.762   0.412  10.041 -0.4656 -0.2032  0.3298
   81SAPS  H10R 7536   4.681   0.336  10.050 -1.3129  0.7696  1.1370
   81SAPS  H10S 7537   4.848   0.376  10.101  0.5272  0.9586 -0.3454
   81SAPS  C211 7538   4.801   0.438   9.898  0.1284  0.1940 -0.3953
   81SAPS  H11R 7539   4.888   0.504   9.879 -0.1654  0.6934 -0.0212
   81SAPS  C212 7540   4.741   0.388   9.793  0.3605  0.1833 -0.7669
   81SAPS  H12R 7541   4.781   0.401   9.691  0.2264  0.4723 -0.7826
   81SAPS  C213 7542   4.612   0.308   9.786 -0.4993 -0.9424 -0.2945
   81SAPS  H13R 7543   4.620   0.224   9.858 -0.0137 -0.7502 -0.1256
   81SAPS  H13S 7544   4.605   0.258   9.687 -0.3825 -0.9349 -0.3073
   81SAPS  C214 7545   4.501   0.411   9.809 -0.7035 -0.5150 -0.3495
   81SAPS  H14R 7546   4.521   0.498   9.873 -3.5791 -0.8908  1.2428
   81SAPS  C215 7547   4.376   0.404   9.758 -0.0108  0.1358  0.2396
   81SAPS  H15R 7548   4.298   0.468   9.802  0.0225  0.9049 -0.7778
   81SAPS  C216 7549   4.317   0.294   9.673 -0.4978  0.8431 -0.2151
   81SAPS  H16R 7550   4.222   0.263   9.721  0.3522  0.7684  1.4727
   81SAPS  H16S 7551   4.377   0.201   9.663 -0.3208  0.8309  0.8594
   81SAPS  C217 7552   4.285   0.332   9.528  0.7765  0.6447 -0.0463
   81SAPS  H17R 7553   4.217   0.420   9.523 -1.3130 -0.9323 -0.7373
   81SAPS  H17S 7554   4.226   0.250   9.481 -0.7502  1.3099  0.6633
   81SAPS  C218 7555   4.406   0.349   9.438 -0.3440  0.1345 -0.1209
   81SAPS  H18R 7556   4.476   0.263   9.446 -0.6818 -0.1984 -0.6968
   81SAPS  H18S 7557   4.480   0.421   9.481 -1.4025  1.0969  0.1441
   81SAPS  C219 7558   4.365   0.392   9.294 -0.7104 -0.3391 -0.4250
   81SAPS  H19R 7559   4.341   0.500   9.284 -0.6832 -0.4330 -1.5722
   81SAPS  H19S 7560   4.272   0.337   9.272 -0.2603 -0.6010 -1.7292
   81SAPS  C220 7561   4.467   0.360   9.178 -0.1185  0.2344 -0.2711
   81SAPS  H20R 7562   4.419   0.356   9.078  0.4651 -0.0522 -0.5396
   81SAPS  H20S 7563   4.514   0.260   9.190  0.2758  0.4722  0.1879
   81SAPS  H20T 7564   4.542   0.439   9.164 -0.8043  1.1466  1.0115
   81SAPS   C33 7565   5.200  -0.113  10.383 -0.0658 -0.2883 -0.2411
   81SAPS   H3X 7566   5.213  -0.033  10.307 -0.4538 -0.2773 -0.2993
   81SAPS   H3Y 7567   5.107  -0.163  10.350 -1.0097  1.5016 -0.4311
   81SAPS   C34 7568   5.314  -0.216  10.373  0.0952 -0.1835 -0.0851
   81SAPS   H4X 7569   5.303  -0.298  10.447 -0.1462  0.6689  0.8432
   81SAPS   H4Y 7570   5.414  -0.170  10.391  0.2850  0.3782 -2.2796
   81SAPS   C35 7571   5.315  -0.276  10.233  0.2661  0.4836 -0.3670
   81SAPS   H5X 7572   5.362  -0.202  10.165  0.7103  1.1169  0.5972
   81SAPS   H5Y 7573   5.211  -0.292  10.198  0.7489 -1.5367 -0.9907
   81SAPS   C36 7574   5.402  -0.404  10.206  0.0424  0.0053 -0.1875
   81SAPS   H6X 7575   5.356  -0.497  10.245 -0.1225 -0.8804 -2.3252
   81SAPS   H6Y 7576   5.496  -0.392  10.264  0.0907  0.8739 -0.4396
   81SAPS   C37 7577   5.431  -0.435  10.058 -0.4141 -0.4031  0.9477
   81SAPS   H7X 7578   5.490  -0.529  10.049 -0.9922 -0.6998  0.0878
   81SAPS   H7Y 7579   5.491  -0.352  10.015 -0.2197  0.0431  2.0437
   81SAPS   C38 7580   5.303  -0.464   9.985 -0.8126  0.5393  0.0337
   81SAPS   H8X 7581   5.225  -0.386   9.995 -0.8000  0.3972  1.2956
   81SAPS   H8Y 7582   5.264  -0.560  10.025  0.4075  0.5848  1.3868
   81SAPS   C39 7583   5.322  -0.487   9.834  0.6601  0.1630 -0.4145
   81SAPS   H9X 7584   5.409  -0.554   9.818  0.3191 -1.5337  3.7277
   81SAPS   H9Y 7585   5.350  -0.388   9.792  0.5564 -1.0077 -3.4818
   81SAPS  C310 7586   5.202  -0.547   9.755  0.0186  0.5825  0.3683
   81SAPS  H10X 7587   5.117  -0.475   9.763  0.1239  0.5664  2.1780
   81SAPS  H10Y 7588   5.171  -0.649   9.787  1.4655  0.3563  1.1438
   81SAPS  C311 7589   5.236  -0.570   9.605 -0.4118  0.1620 -0.3344
   81SAPS  H11X 7590   5.273  -0.470   9.572  0.7066  0.2804  1.1675
   81SAPS  H11Y 7591   5.143  -0.599   9.551  0.1026 -0.5762 -0.8574
   81SAPS  C312 7592   5.342  -0.676   9.584  0.2112  0.3361 -0.1675
   81SAPS  H12X 7593   5.296  -0.772   9.615 -1.5758  1.2976  0.2803
   81SAPS  H12Y 7594   5.439  -0.660   9.636 -1.1472  2.4321  1.9107
   81SAPS  C313 7595   5.368  -0.697   9.431 -0.6845 -0.2126  0.2319
   81SAPS  H13X 7596   5.420  -0.605   9.397  0.7102 -1.9011 -2.5699
   81SAPS  H13Y 7597   5.269  -0.717   9.385 -0.6076  1.6955 -0.9057
   81SAPS  C314 7598   5.467  -0.808   9.406  0.4675 -0.0894  0.3847
   81SAPS  H14X 7599   5.422  -0.909   9.405  1.0753 -0.3622 -0.3755
   81SAPS  H14Y 7600   5.552  -0.797   9.477 -0.8265 -0.0449  1.9741
   81SAPS  C315 7601   5.528  -0.782   9.265 -0.5644  0.0549 -1.0182
   81SAPS  H15X 7602   5.636  -0.802   9.281 -1.0866 -1.0694  1.6116
   81SAPS  H15Y 7603   5.515  -0.679   9.226  0.4751  0.2260 -0.9280
   81SAPS  C316 7604   5.494  -0.880   9.162  0.2244 -0.2416  0.3784
   81SAPS  H16X 7605   5.384  -0.871   9.149  0.3670  0.3900 -0.5134
   81SAPS  H16Y 7606   5.512  -0.986   9.187  0.7870  0.0945  1.4697
   81SAPS  C317 7607   5.568  -0.856   9.033 -0.2802 -0.1009  0.3760
   81SAPS  H17X 7608   5.562  -0.940   8.960 -2.4655  0.3987 -0.0976
   81SAPS  H17Y 7609   5.675  -0.846   9.060  0.4291 -1.6832 -1.5918
   81SAPS  C318 7610   5.517  -0.732   8.963  0.4603 -0.1350  0.4918
   81SAPS  H18X 7611   5.408  -0.736   8.943  0.4512 -2.4369  0.8097
   81SAPS  H18Y 7612   5.567  -0.700   8.869  0.2826  1.5154  0.9143
   81SAPS  H18Z 7613   5.527  -0.641   9.026  1.6796  0.1391 -0.0766
   82SAPS     N 7614   3.697   3.698  11.060  0.6109 -0.2164  0.0616
   82SAPS   HN1 7615   3.743   3.745  10.980  1.3027 -1.3425 -0.2252
   82SAPS   HN2 7616   3.608   3.651  11.033  0.5514 -0.1688  0.1733
   82SAPS   HN3 7617   3.668   3.765  11.135  0.1631 -2.1217  1.6769
   82SAPS   C12 7618   3.792   3.604  11.123 -0.3883 -0.2500  0.2980
   82SAPS  H12A 7619   3.877   3.666  11.149  1.6214 -3.5333  2.2350
   82SAPS   C13 7620   3.733   3.536  11.254 -0.8506  0.1152  0.8739
   82SAPS  O13A 7621   3.628   3.583  11.304  0.2468  0.0322  0.0002
   82SAPS  O13B 7622   3.817   3.473  11.323  0.8940 -0.6166 -0.0731
   82SAPS   C11 7623   3.830   3.505  11.005  0.5088  0.0303 -0.6242
   82SAPS  H11A 7624   3.864   3.405  11.041 -1.6456 -0.8265 -0.8432
   82SAPS  H11B 7625   3.912   3.558  10.952 -0.4082  1.5835 -0.5333
   82SAPS     P 7626   3.739   3.367  10.796 -0.4376  0.0282 -0.0153
   82SAPS   O13 7627   3.881   3.317  10.798  0.1540 -0.5894 -0.2708
   82SAPS   O14 7628   3.638   3.263  10.826  0.0139 -0.1099 -0.2735
   82SAPS   O12 7629   3.730   3.479  10.910 -0.3402  0.3683  0.5088
   82SAPS   O11 7630   3.700   3.439  10.658 -0.1524 -0.0539 -0.2034
   82SAPS    C1 7631   3.618   3.560  10.662  0.3753  0.3907  0.1469
   82SAPS    HA 7632   3.546   3.550  10.746  2.0289  1.3274  1.7553
   82SAPS    HB 7633   3.689   3.645  10.668 -1.0182  1.6153 -0.2617
   82SAPS    C2 7634   3.554   3.573  10.515 -0.4177  0.6628 -0.4586
   82SAPS    HS 7635   3.495   3.667  10.524 -1.3807 -0.0031  0.5467
   82SAPS   O21 7636   3.467   3.464  10.478  0.1984  0.3333  0.0856
   82SAPS   C21 7637   3.351   3.463  10.522 -0.1036  0.2601 -0.2513
   82SAPS   O22 7638   3.314   3.518  10.624  0.1645  0.5442 -0.0893
   82SAPS   C22 7639   3.263   3.387  10.420  0.6292 -0.2935 -0.6441
   82SAPS   H2R 7640   3.293   3.281  10.403 -0.2932 -0.4745 -1.2483
   82SAPS   H2S 7641   3.164   3.375  10.469  0.5288 -1.3008 -1.0630
   82SAPS    C3 7642   3.665   3.602  10.412  0.0895  0.1538  0.7095
   82SAPS    HX 7643   3.744   3.527  10.436  0.8388  0.3926 -0.9249
   82SAPS    HY 7644   3.705   3.702  10.439  5.5499 -0.8091 -2.3741
   82SAPS   O31 7645   3.620   3.589  10.282 -0.0222 -0.3310 -0.1983
   82SAPS   C31 7646   3.719   3.581  10.197  0.1621  0.0602  0.5011
   82SAPS   O32 7647   3.837   3.583  10.228 -0.1428  0.9878 -0.0635
   82SAPS   C32 7648   3.661   3.544  10.057  0.1240  0.6643  0.4831
   82SAPS   H2X 7649   3.572   3.604  10.027  0.7370  0.5802 -1.7212
   82SAPS   H2Y 7650   3.623   3.442  10.076  3.0950 -0.3123  1.7169
   82SAPS   C23 7651   3.257   3.476  10.287  0.4438  0.4470  0.2498
   82SAPS   H3R 7652   3.360   3.507  10.263  0.3009  0.4680 -0.3542
   82SAPS   H3S 7653   3.190   3.557  10.322 -1.1670 -0.2692 -1.0085
   82SAPS   C24 7654   3.197   3.403  10.168 -0.4895  0.1585  0.2372
   82SAPS   H4R 7655   3.182   3.478  10.087 -1.0465 -1.2713 -1.0288
   82SAPS   H4S 7656   3.094   3.364  10.184 -0.2757  0.0550  1.5491
   82SAPS   C25 7657   3.280   3.282  10.117 -0.7929  0.1897 -0.1077
   82SAPS   H5R 7658   3.301   3.205  10.193 -1.2268 -0.3338 -0.5154
   82SAPS   C26 7659   3.308   3.245   9.991  0.0442  0.6891 -0.2701
   82SAPS   H6R 7660   3.375   3.161   9.969 -0.1633  0.4690 -0.0789
   82SAPS   C27 7661   3.261   3.314   9.864  0.0914 -0.2590 -0.3632
   82SAPS   H7R 7662   3.230   3.420   9.879  0.7719  0.3502 -2.8442
   82SAPS   H7S 7663   3.170   3.259   9.834  0.8941 -2.3975  0.9230
   82SAPS   C28 7664   3.377   3.308   9.768  0.1853 -0.2977  0.3877
   82SAPS   H8R 7665   3.456   3.235   9.790 -0.1462 -0.2448  1.8873
   82SAPS   C29 7666   3.385   3.373   9.654  0.5875  0.6974  0.6335
   82SAPS   H9R 7667   3.471   3.356   9.588  2.0608  0.6768  2.4734
   82SAPS  C210 7668   3.289   3.480   9.608 -0.2202  0.6543  0.2079
   82SAPS  H10R 7669   3.324   3.578   9.646  0.0894  0.5690  0.1420
   82SAPS  H10S 7670   3.189   3.447   9.645  0.5274 -0.6754  1.1247
   82SAPS  C211 7671   3.282   3.489   9.458  0.6690  0.6239  0.4071
   82SAPS  H11R 7672   3.351   3.423   9.403 -0.0556  0.0286  0.1966
   82SAPS  C212 7673   3.214   3.585   9.390  0.2949 -0.5595 -0.1448
   82SAPS  H12R 7674   3.207   3.592   9.280  0.1545  0.1606 -0.0960
   82SAPS  C213 7675   3.125   3.680   9.469  0.1231 -0.5438 -0.5915
   82SAPS  H13R 7676   3.102   3.767   9.403  0.4582 -1.1317 -1.5074
   82SAPS  H13S 7677   3.172   3.713   9.564  2.8949  0.0712 -2.0842
   82SAPS  C214 7678   2.997   3.611   9.516 -0.1537  0.1424 -0.8237
   82SAPS  H14R 7679   2.950   3.536   9.452 -0.9362 -1.2983  1.3218
   82SAPS  C215 7680   2.928   3.637   9.627 -0.0352 -0.5718  0.5702
   82SAPS  H15R 7681   2.841   3.576   9.655 -0.3514 -0.6098 -0.4617
   82SAPS  C216 7682   2.957   3.750   9.726 -0.7425  0.1106  0.4040
   82SAPS  H16R 7683   2.859   3.800   9.741 -1.1212 -0.1629 -0.9724
   82SAPS  H16S 7684   3.019   3.825   9.672 -0.8616 -0.1571 -0.1129
   82SAPS  C217 7685   3.039   3.704   9.846 -0.9164  0.2763  0.9271
   82SAPS  H17R 7686   3.139   3.698   9.797 -0.2590 -0.8753  2.3057
   82SAPS  H17S 7687   2.994   3.608   9.881 -1.5834  0.2545  0.0464
   82SAPS  C218 7688   3.053   3.805   9.958 -0.0888  0.1832 -0.0113
   82SAPS  H18R 7689   2.954   3.835   9.998  0.1113  2.3816 -0.9907
   82SAPS  H18S 7690   3.087   3.908   9.931 -1.1016  0.6330  0.3659
   82SAPS  C219 7691   3.137   3.755  10.074 -0.5337 -0.4247 -0.4188
   82SAPS  H19R 7692   3.233   3.715  10.034  1.7046  3.2706  0.7135
   82SAPS  H19S 7693   3.091   3.671  10.129  1.4577 -1.1985  0.1817
   82SAPS  C220 7694   3.164   3.865  10.180  0.1370 -0.5319 -0.0440
   82SAPS  H20R 7695   3.095   3.884  10.265  1.4258  2.0555  0.5283
   82SAPS  H20S 7696   3.157   3.963  10.128 -0.3170 -1.3100 -1.5061
   82SAPS  H20T 7697   3.266   3.864  10.225  0.1726  1.3140 -0.0231
   82SAPS   C33 7698   3.762   3.533   9.942 -0.6921 -0.1424  0.0202
   82SAPS   H3X 7699   3.857   3.483   9.972 -0.2965  0.1653 -0.6856
   82SAPS   H3Y 7700   3.803   3.632   9.915 -0.6406 -0.4278 -0.9989
   82SAPS   C34 7701   3.708   3.474   9.814  0.0373 -0.3552  0.2278
   82SAPS   H4X 7702   3.610   3.526   9.803 -0.2328 -0.8113  0.4373
   82SAPS   H4Y 7703   3.707   3.363   9.818  2.3196 -0.5337 -1.6934
   82SAPS   C35 7704   3.794   3.517   9.695 -0.2352  0.3484  0.4479
   82SAPS   H5X 7705   3.902   3.500   9.716 -0.1117  1.0121  0.3817
   82SAPS   H5Y 7706   3.778   3.626   9.680 -0.5358  0.3903  1.0518
   82SAPS   C36 7707   3.759   3.446   9.558  0.0426  0.5350 -0.0787
   82SAPS   H6X 7708   3.654   3.476   9.540  0.2738  2.1038  0.9972
   82SAPS   H6Y 7709   3.765   3.337   9.574 -1.7968  0.6068  1.4435
   82SAPS   C37 7710   3.855   3.481   9.444  0.3794  1.4670  0.2988
   82SAPS   H7X 7711   3.956   3.457   9.481  0.4877  0.5188 -0.5801
   82SAPS   H7Y 7712   3.860   3.583   9.400 -3.0069  0.7565 -2.1811
   82SAPS   C38 7713   3.819   3.384   9.327  0.7312 -0.1150  0.1043
   82SAPS   H8X 7714   3.834   3.279   9.358 -0.4161 -0.1888  0.4319
   82SAPS   H8Y 7715   3.898   3.412   9.254 -1.1871  0.9494 -1.6776
   82SAPS   C39 7716   3.677   3.416   9.273  0.0632  0.1348 -0.3868
   82SAPS   H9X 7717   3.674   3.525   9.252 -3.0384  0.1842 -0.1410
   82SAPS   H9Y 7718   3.600   3.397   9.351  0.7445  2.1406  0.8394
   82SAPS  C310 7719   3.647   3.341   9.141  0.4604  0.1288 -0.4402
   82SAPS  H10X 7720   3.551   3.382   9.102  0.2595 -1.7750 -2.0956
   82SAPS  H10Y 7721   3.637   3.232   9.158  0.3321  0.4351  1.7505
   82SAPS  C311 7722   3.750   3.368   9.037 -0.2347  0.0429 -0.5635
   82SAPS  H11X 7723   3.836   3.307   9.072 -1.0446 -0.0014  1.5115
   82SAPS  H11Y 7724   3.785   3.473   9.045  1.7188 -0.5352 -0.9743
   82SAPS  C312 7725   3.707   3.326   8.901 -0.5232 -0.2339  0.1112
   82SAPS  H12X 7726   3.783   3.361   8.828  0.9060 -0.3020  1.5144
   82SAPS  H12Y 7727   3.619   3.382   8.864 -1.0121 -0.0511  1.5059
   82SAPS  C313 7728   3.718   3.182   8.877 -0.6527  0.6322  0.2389
   82SAPS  H13X 7729   3.618   3.139   8.901 -0.1517 -1.8384 -1.6438
   82SAPS  H13Y 7730   3.793   3.127   8.938 -0.4334 -0.8546 -1.2811
   82SAPS  C314 7731   3.751   3.128   8.733 -0.4121  0.1094  0.1237
   82SAPS  H14X 7732   3.749   3.017   8.739 -0.3079  0.0732 -0.4900
   82SAPS  H14Y 7733   3.850   3.171   8.708 -1.3287  3.6274  1.8940
   82SAPS  C315 7734   3.655   3.178   8.624 -0.0310 -0.5698  0.0801
   82SAPS  H15X 7735   3.686   3.133   8.527  1.1682  1.0365 -0.3276
   82SAPS  H15Y 7736   3.670   3.287   8.612 -1.5680 -0.4744 -1.3486
   82SAPS  C316 7737   3.506   3.157   8.644  0.0082 -0.2279  0.1550
   82SAPS  H16X 7738   3.487   3.188   8.749 -1.6000 -0.4725 -0.0402
   82SAPS  H16Y 7739   3.475   3.052   8.626 -1.2963 -0.1737  1.8753
   82SAPS  C317 7740   3.424   3.252   8.549  0.3286 -0.1537  0.3176
   82SAPS  H17X 7741   3.485   3.242   8.456  2.6276  2.1674  1.4672
   82SAPS  H17Y 7742   3.437   3.357   8.581  0.3689 -1.1777  4.2332
   82SAPS  C318 7743   3.285   3.203   8.519  0.2119 -0.2981  0.6799
   82SAPS  H18X 7744   3.263   3.114   8.457 -0.4083 -0.7181  1.4847
   82SAPS  H18Y 7745   3.227   3.280   8.464  0.5034 -2.4334 -2.8905
   82SAPS  H18Z 7746   3.225   3.183   8.610  0.2504  2.2571  1.3634
   83SAPS     N 7747   2.466   5.689  11.232  0.9612 -0.1219 -0.2681
   83SAPS   HN1 7748   2.388   5.756  11.250  1.2767 -0.1578  1.2955
   83SAPS   HN2 7749   2.456   5.651  11.136  1.4329 -1.6495  0.2727
   83SAPS   HN3 7750   2.455   5.596  11.276 -1.3670 -1.0066 -2.4907
   83SAPS   C12 7751   2.601   5.750  11.244  0.2022  0.8183  0.4668
   83SAPS  H12A 7752   2.588   5.835  11.310  1.5265  2.4208 -1.2202
   83SAPS   C13 7753   2.714   5.661  11.293 -0.2912  0.0493 -0.1975
   83SAPS  O13A 7754   2.693   5.541  11.313  0.5924  0.6081  0.6281
   83SAPS  O13B 7755   2.821   5.716  11.326  0.0387 -0.9198 -0.2070
   83SAPS   C11 7756   2.638   5.800  11.100 -0.4725  0.4888  0.3305
   83SAPS  H11A 7757   2.670   5.713  11.039 -2.2151  0.6599 -0.8821
   83SAPS  H11B 7758   2.726   5.863  11.126  0.0792 -0.2723  0.3704
   83SAPS     P 7759   2.550   6.010  10.963 -0.2377  0.1593  0.0420
   83SAPS   O13 7760   2.414   6.044  10.916 -0.2507 -0.0395  0.1606
   83SAPS   O14 7761   2.618   6.109  11.044  0.1198  0.3188 -0.0901
   83SAPS   O12 7762   2.538   5.876  11.034 -0.1169 -0.0819 -0.2701
   83SAPS   O11 7763   2.639   5.972  10.832  0.5827 -0.3682  0.1568
   83SAPS    C1 7764   2.588   5.867  10.744  0.4617 -0.2868  0.1002
   83SAPS    HA 7765   2.666   5.788  10.739  1.2942  0.5092  0.0570
   83SAPS    HB 7766   2.494   5.817  10.773  0.4625 -0.8670 -0.8594
   83SAPS    C2 7767   2.554   5.918  10.602 -0.6528  0.7189 -0.0732
   83SAPS    HS 7768   2.531   5.835  10.533  1.2706  1.2301 -1.4017
   83SAPS   O21 7769   2.677   5.981  10.550  0.5852  0.1082  0.0536
   83SAPS   C21 7770   2.776   5.892  10.518 -0.5527  0.1893  0.0329
   83SAPS   O22 7771   2.768   5.771  10.518  0.1443 -0.2303 -0.2835
   83SAPS   C22 7772   2.892   5.979  10.466 -0.7034  0.0022  0.0593
   83SAPS   H2R 7773   2.904   6.053  10.547 -1.0760 -1.2873  1.3326
   83SAPS   H2S 7774   2.984   5.917  10.459 -0.8158 -0.1424 -0.1647
   83SAPS    C3 7775   2.431   6.019  10.594  0.0946  1.0845 -0.2352
   83SAPS    HX 7776   2.436   6.099  10.670  2.9796 -1.9499  3.0946
   83SAPS    HY 7777   2.340   5.957  10.608 -0.2937  0.9576 -2.7636
   83SAPS   O31 7778   2.411   6.064  10.460 -0.4438 -0.3336 -0.0867
   83SAPS   C31 7779   2.477   6.179  10.427 -0.0010 -0.1707 -0.0117
   83SAPS   O32 7780   2.544   6.242  10.505 -0.4527 -0.3766  0.0245
   83SAPS   C32 7781   2.455   6.214  10.280  0.8640  0.9884  0.0398
   83SAPS   H2X 7782   2.346   6.204  10.264  1.0958 -0.2098 -1.0329
   83SAPS   H2Y 7783   2.496   6.128  10.222 -0.9284  0.3858 -0.3938
   83SAPS   C23 7784   2.850   6.049  10.335 -0.1050  0.1012  0.1709
   83SAPS   H3R 7785   2.935   6.105  10.291 -1.3148 -0.4458 -3.1811
   83SAPS   H3S 7786   2.771   6.123  10.361 -0.0821 -0.6243  2.5396
   83SAPS   C24 7787   2.804   5.960  10.217 -0.1573 -0.0797  0.1471
   83SAPS   H4R 7788   2.701   5.929  10.243 -0.2749  0.3023  0.1278
   83SAPS   H4S 7789   2.875   5.876  10.199 -1.8884 -1.1903 -1.9169
   83SAPS   C25 7790   2.802   6.022  10.078  0.3296 -0.1912 -0.5320
   83SAPS   H5R 7791   2.856   6.118  10.075  0.9835 -0.5127  0.3098
   83SAPS   C26 7792   2.736   5.970   9.975  0.0399  0.7648  0.1073
   83SAPS   H6R 7793   2.729   6.019   9.876  0.0870 -0.3089 -0.4388
   83SAPS   C27 7794   2.662   5.839   9.978 -0.3256 -0.1708 -0.1547
   83SAPS   H7R 7795   2.585   5.844   9.899 -0.8427  1.3182  0.4150
   83SAPS   H7S 7796   2.620   5.826  10.081  1.5086 -0.1199  0.6373
   83SAPS   C28 7797   2.749   5.715   9.963  0.2976  0.0725  0.5571
   83SAPS   H8R 7798   2.834   5.703  10.033  2.3546 -1.0657 -1.9740
   83SAPS   C29 7799   2.734   5.621   9.872  0.2191 -0.0664 -0.1256
   83SAPS   H9R 7800   2.807   5.539   9.870 -0.5673 -0.7628 -0.4033
   83SAPS  C210 7801   2.640   5.602   9.748  0.6477 -0.3047 -0.4209
   83SAPS  H10R 7802   2.697   5.583   9.654  0.2035 -1.4555 -0.4617
   83SAPS  H10S 7803   2.577   5.692   9.729  0.2572 -0.7798 -1.4293
   83SAPS  C211 7804   2.544   5.480   9.773  0.1827 -0.9829 -0.0282
   83SAPS  H11R 7805   2.533   5.445   9.877 -1.9988 -0.0681  0.1203
   83SAPS  C212 7806   2.470   5.419   9.679  0.3124  0.0673  0.9557
   83SAPS  H12R 7807   2.395   5.343   9.707  2.0372 -2.4453 -0.8494
   83SAPS  C213 7808   2.467   5.463   9.537 -0.1520  0.0813 -0.1134
   83SAPS  H13R 7809   2.545   5.405   9.484 -0.6093 -0.7140  0.0744
   83SAPS  H13S 7810   2.518   5.560   9.520 -1.9137  1.0023 -0.3449
   83SAPS  C214 7811   2.328   5.471   9.474  0.0279  0.2186 -0.5379
   83SAPS  H14R 7812   2.248   5.464   9.549 -0.1414 -1.9907 -0.8588
   83SAPS  C215 7813   2.298   5.475   9.346 -0.3642 -0.0408  0.9372
   83SAPS  H15R 7814   2.194   5.471   9.311 -0.3223 -1.2787  0.9289
   83SAPS  C216 7815   2.387   5.487   9.222  0.4012  0.4963  0.4663
   83SAPS  H16R 7816   2.391   5.400   9.154  0.7261  1.0781 -0.2722
   83SAPS  H16S 7817   2.495   5.507   9.240  1.1155  2.0782 -4.2062
   83SAPS  C217 7818   2.342   5.609   9.141 -0.2273 -0.0623  0.9062
   83SAPS  H17R 7819   2.358   5.695   9.211  0.3668  0.8396 -0.2993
   83SAPS  H17S 7820   2.234   5.613   9.116  0.2294  1.5481 -1.0661
   83SAPS  C218 7821   2.418   5.635   9.014 -0.0268 -0.5779 -0.0576
   83SAPS  H18R 7822   2.401   5.551   8.943 -2.2483 -2.2105  2.2490
   83SAPS  H18S 7823   2.525   5.625   9.041  0.3588 -0.2940 -1.3895
   83SAPS  C219 7824   2.379   5.775   8.937 -0.3067 -0.3164 -0.9135
   83SAPS  H19R 7825   2.275   5.776   8.898  0.3090 -0.8358 -2.6869
   83SAPS  H19S 7826   2.446   5.791   8.850 -1.2775  2.1906 -1.3090
   83SAPS  C220 7827   2.398   5.904   9.029 -0.0776  0.3715  0.0055
   83SAPS  H20R 7828   2.490   5.913   9.091  0.6322  1.3828 -1.1476
   83SAPS  H20S 7829   2.306   5.915   9.089 -0.2376 -0.1218 -0.1442
   83SAPS  H20T 7830   2.396   5.995   8.964 -0.2680 -0.7908 -1.6943
   83SAPS   C33 7831   2.517   6.340  10.223 -0.1404 -0.0424  0.2030
   83SAPS   H3X 7832   2.628   6.343  10.226 -0.0986  0.2476 -1.1534
   83SAPS   H3Y 7833   2.484   6.417  10.296  1.5751 -1.4770  2.6266
   83SAPS   C34 7834   2.459   6.383  10.086  0.4337 -0.5532 -0.3478
   83SAPS   H4X 7835   2.482   6.325   9.994  0.8141  2.2913 -2.2004
   83SAPS   H4Y 7836   2.505   6.482  10.063 -0.2400 -0.4715 -1.4386
   83SAPS   C35 7837   2.304   6.411  10.097 -0.0678  0.4020 -0.2841
   83SAPS   H5X 7838   2.281   6.489  10.172  0.2889  0.8501 -0.6302
   83SAPS   H5Y 7839   2.248   6.318  10.123  0.6961  0.0886  0.2784
   83SAPS   C36 7840   2.245   6.459   9.964  0.4711 -0.3893 -0.3855
   83SAPS   H6X 7841   2.324   6.513   9.908  0.9674 -0.8591 -0.1528
   83SAPS   H6Y 7842   2.166   6.531   9.995  1.7340  1.0812 -0.4957
   83SAPS   C37 7843   2.192   6.343   9.881  0.2491 -0.7814  0.2028
   83SAPS   H7X 7844   2.132   6.274   9.944  1.1628  0.0456  2.0593
   83SAPS   H7Y 7845   2.281   6.282   9.853 -0.1606 -2.4454  2.2837
   83SAPS   C38 7846   2.116   6.382   9.757 -0.0309 -0.0302  0.4799
   83SAPS   H8X 7847   2.170   6.447   9.686  1.2810  0.2359  1.6939
   83SAPS   H8Y 7848   2.032   6.451   9.780  1.5295  2.4121 -0.7900
   83SAPS   C39 7849   2.044   6.260   9.691 -0.3015  0.1185  0.0588
   83SAPS   H9X 7850   1.965   6.223   9.759 -1.1826  0.7024 -0.6178
   83SAPS   H9Y 7851   2.126   6.185   9.682  1.2897  1.7211  0.4412
   83SAPS  C310 7852   1.990   6.296   9.551 -0.3985  0.7058 -0.1632
   83SAPS  H10X 7853   1.920   6.382   9.551 -0.7359  0.4295  0.1611
   83SAPS  H10Y 7854   1.927   6.208   9.525 -0.4360  0.3757  1.0292
   83SAPS  C311 7855   2.100   6.321   9.440 -0.6586  0.7042  0.0150
   83SAPS  H11X 7856   2.182   6.246   9.439 -0.8038  0.5154  1.2624
   83SAPS  H11Y 7857   2.141   6.421   9.464  0.6585  0.4357 -0.9863
   83SAPS  C312 7858   2.041   6.324   9.302 -1.2069  0.0143  0.5892
   83SAPS  H12X 7859   1.978   6.413   9.282 -1.9323  0.2361  3.4847
   83SAPS  H12Y 7860   1.976   6.235   9.287  0.9824 -1.3225 -1.8600
   83SAPS  C313 7861   2.152   6.315   9.198  0.0637 -0.2354  0.0134
   83SAPS  H13X 7862   2.197   6.213   9.203  2.2504  0.7114  1.1931
   83SAPS  H13Y 7863   2.217   6.404   9.204 -1.6865  1.0524  0.7291
   83SAPS  C314 7864   2.084   6.309   9.061  0.1724  0.0072 -0.1667
   83SAPS  H14X 7865   2.022   6.399   9.037 -0.9407 -0.8972 -0.7687
   83SAPS  H14Y 7866   2.011   6.226   9.069  2.1448 -1.8277 -0.5938
   83SAPS  C315 7867   2.179   6.272   8.949  0.0620  0.4604 -0.5335
   83SAPS  H15X 7868   2.247   6.190   8.980 -0.4826  0.7674  1.6857
   83SAPS  H15Y 7869   2.260   6.348   8.944 -0.2386  0.7495 -1.0394
   83SAPS  C316 7870   2.103   6.235   8.824 -0.8447  0.4985 -0.6789
   83SAPS  H16X 7871   2.051   6.327   8.789  1.5735  2.7897  1.3425
   83SAPS  H16Y 7872   2.027   6.156   8.840 -0.2460  0.1188  0.3926
   83SAPS  C317 7873   2.194   6.189   8.708 -0.2317 -0.5165 -0.5345
   83SAPS  H17X 7874   2.214   6.081   8.725  0.3850 -0.6087 -1.7770
   83SAPS  H17Y 7875   2.287   6.248   8.714 -0.3870 -0.3195 -0.0323
   83SAPS  C318 7876   2.128   6.213   8.567  0.2473  0.1311 -0.4912
   83SAPS  H18X 7877   2.058   6.132   8.539  0.3149  0.0364 -0.3853
   83SAPS  H18Y 7878   2.208   6.201   8.490  0.7830  0.5852 -0.0112
   83SAPS  H18Z 7879   2.091   6.318   8.558 -2.3015 -0.5589  0.9977
   84SAPS     N 7880   1.083   4.196  11.395  0.1824 -0.5262 -0.5819
   84SAPS   HN1 7881   1.036   4.133  11.326  1.8206  0.1876 -2.4403
   84SAPS   HN2 7882   1.183   4.204  11.370  0.2743  1.5260  0.2359
   84SAPS   HN3 7883   1.066   4.166  11.493 -0.0025  1.3601  0.0080
   84SAPS   C12 7884   1.016   4.327  11.364  0.4036 -0.5111 -0.1479
   84SAPS  H12A 7885   0.918   4.325  11.410  0.2885 -3.0527 -0.3763
   84SAPS   C13 7886   1.090   4.453  11.428 -0.6190  0.0348  0.5700
   84SAPS  O13A 7887   1.198   4.437  11.498 -0.0609  0.1883  0.5190
   84SAPS  O13B 7888   1.043   4.566  11.404 -0.4562  0.3513  0.4585
   84SAPS   C11 7889   1.012   4.352  11.212  0.5824 -0.3527 -0.2710
   84SAPS  H11A 7890   1.120   4.357  11.189  1.0006  3.5086  1.7426
   84SAPS  H11B 7891   0.959   4.445  11.182 -0.0262 -0.5364  0.1955
   84SAPS     P 7892   0.931   4.250  10.986  0.1181 -0.4262  0.3111
   84SAPS   O13 7893   0.940   4.117  10.926  0.3739  0.3227  0.3609
   84SAPS   O14 7894   0.811   4.325  10.959  0.2975  0.2683  0.2994
   84SAPS   O12 7895   0.947   4.245  11.142 -0.3115  0.3472 -0.2997
   84SAPS   O11 7896   1.048   4.350  10.930  0.2896  0.0583 -0.1019
   84SAPS    C1 7897   1.028   4.491  10.891  0.3919 -0.5870  0.0426
   84SAPS    HA 7898   0.942   4.534  10.947  0.1426 -0.8220 -0.1559
   84SAPS    HB 7899   1.124   4.543  10.912  0.8648 -1.0373 -0.9181
   84SAPS    C2 7900   0.992   4.515  10.740 -0.6241  0.4645 -0.1243
   84SAPS    HS 7901   0.930   4.428  10.710 -0.1887 -0.0381  0.4165
   84SAPS   O21 7902   1.119   4.518  10.676  0.3675 -0.2883 -0.3303
   84SAPS   C21 7903   1.123   4.429  10.573  0.2977 -0.2602 -0.7651
   84SAPS   O22 7904   1.034   4.362  10.528  0.0955 -0.1411  0.6454
   84SAPS   C22 7905   1.255   4.461  10.497 -0.2627  0.1462 -0.0999
   84SAPS   H2R 7906   1.253   4.571  10.484 -1.0360  0.1165 -0.2584
   84SAPS   H2S 7907   1.336   4.430  10.566 -1.2520 -1.5041  0.3613
   84SAPS    C3 7908   0.920   4.641  10.698  0.8679 -0.6144  0.4725
   84SAPS    HX 7909   0.999   4.719  10.708 -1.3697  1.8341  0.0489
   84SAPS    HY 7910   0.839   4.658  10.771  0.0507 -1.3218 -0.2503
   84SAPS   O31 7911   0.887   4.647  10.551  0.2257  0.0734  0.0669
   84SAPS   C31 7912   0.771   4.602  10.525 -0.0187 -0.1034  1.0940
   84SAPS   O32 7913   0.679   4.586  10.599 -0.5259 -0.0680 -0.5008
   84SAPS   C32 7914   0.761   4.581  10.381  0.5854  0.0301  0.4058
   84SAPS   H2X 7915   0.676   4.640  10.343 -1.3000 -0.5359  3.4423
   84SAPS   H2Y 7916   0.730   4.476  10.360  0.1285 -0.0319  1.3879
   84SAPS   C23 7917   1.257   4.397  10.355  0.5734  0.3596 -0.0062
   84SAPS   H3R 7918   1.162   4.427  10.305  1.4876  0.6491 -1.6516
   84SAPS   H3S 7919   1.259   4.287  10.366  3.0456 -0.1094 -3.4097
   84SAPS   C24 7920   1.380   4.449  10.273 -0.0100  0.0390  0.1231
   84SAPS   H4R 7921   1.473   4.418  10.325  0.6670  1.7481 -0.0034
   84SAPS   H4S 7922   1.380   4.559  10.284  1.9044  0.0301  0.5763
   84SAPS   C25 7923   1.376   4.398  10.133  0.3141  0.5762 -0.1213
   84SAPS   H5R 7924   1.373   4.289  10.120 -0.9538  0.7843 -1.7687
   84SAPS   C26 7925   1.393   4.473  10.021 -0.7382 -0.0626  0.2461
   84SAPS   H6R 7926   1.404   4.423   9.924  0.3049 -1.1814  0.9265
   84SAPS   C27 7927   1.412   4.625  10.003  0.1073  0.2369 -0.8543
   84SAPS   H7R 7928   1.405   4.665  10.107 -0.0362 -0.9682 -0.3939
   84SAPS   H7S 7929   1.329   4.654   9.935  0.7167 -0.5091 -1.9341
   84SAPS   C28 7930   1.554   4.652   9.945 -0.0233 -0.4240  0.5920
   84SAPS   H8R 7931   1.640   4.640  10.013  0.8691  1.4484 -0.1242
   84SAPS   C29 7932   1.580   4.707   9.827 -0.6349  0.2330  0.0533
   84SAPS   H9R 7933   1.686   4.737   9.816 -0.9340  1.0178 -0.8507
   84SAPS  C210 7934   1.491   4.758   9.717  0.2626  0.1816  0.4054
   84SAPS  H10R 7935   1.486   4.869   9.727  0.4398  0.2004  0.2915
   84SAPS  H10S 7936   1.392   4.712   9.738 -0.4402  1.3554 -0.1736
   84SAPS  C211 7937   1.542   4.719   9.579 -0.3851  0.3550 -0.2871
   84SAPS  H11R 7938   1.520   4.616   9.546  1.3807 -0.1039 -0.1005
   84SAPS  C212 7939   1.612   4.796   9.497  0.2056  1.0886 -0.2579
   84SAPS  H12R 7940   1.647   4.758   9.400 -0.2407  1.7067 -0.6740
   84SAPS  C213 7941   1.659   4.940   9.515  0.1571  0.2566 -0.1251
   84SAPS  H13R 7942   1.673   4.965   9.622  0.3262 -1.1002  0.1873
   84SAPS  H13S 7943   1.569   5.001   9.495  1.1462  1.7040 -0.3510
   84SAPS  C214 7944   1.779   4.979   9.435 -0.3895  0.2363 -0.5532
   84SAPS  H14R 7945   1.870   4.982   9.496 -1.7047 -2.1392  1.6776
   84SAPS  C215 7946   1.778   5.014   9.305 -0.5418 -0.7382 -0.3172
   84SAPS  H15R 7947   1.874   5.027   9.254 -0.5313  1.2941  0.1410
   84SAPS  C216 7948   1.652   5.029   9.219  0.1263  0.4002  0.1556
   84SAPS  H16R 7949   1.648   5.136   9.190 -0.3895 -0.0511 -1.5376
   84SAPS  H16S 7950   1.555   5.011   9.271 -0.5529  0.4442 -1.0639
   84SAPS  C217 7951   1.650   4.950   9.085  0.1982 -0.1104  0.0294
   84SAPS  H17R 7952   1.677   4.843   9.102 -0.3606  0.0533  2.2083
   84SAPS  H17S 7953   1.718   5.006   9.018 -0.4450  2.8510  1.6967
   84SAPS  C218 7954   1.505   4.939   9.024  0.3420  0.2653  0.4581
   84SAPS  H18R 7955   1.452   5.036   9.016 -2.4381 -1.1657  0.3396
   84SAPS  H18S 7956   1.450   4.866   9.088  0.0985  0.4528  0.4603
   84SAPS  C219 7957   1.507   4.878   8.887  0.0869  0.4279 -0.2080
   84SAPS  H19R 7958   1.401   4.854   8.865  0.0028  0.5550  0.0527
   84SAPS  H19S 7959   1.566   4.784   8.893 -0.5701 -0.2159 -2.6265
   84SAPS  C220 7960   1.576   4.958   8.783  0.3323 -0.3825  0.3092
   84SAPS  H20R 7961   1.686   4.944   8.791  0.2350 -1.2358  0.2473
   84SAPS  H20S 7962   1.542   5.063   8.795 -0.9014 -0.8315  0.9435
   84SAPS  H20T 7963   1.536   4.904   8.694  0.6673 -2.0317  1.1310
   84SAPS   C33 7964   0.888   4.622  10.301 -0.2964  0.0679  0.5396
   84SAPS   H3X 7965   0.966   4.553  10.340 -0.4318 -2.0844 -2.6047
   84SAPS   H3Y 7966   0.913   4.728  10.322  0.2413  0.0934 -0.1722
   84SAPS   C34 7967   0.865   4.600  10.154 -0.6706  0.6154 -0.4032
   84SAPS   H4X 7968   0.789   4.674  10.121 -2.1044  0.2687  1.9264
   84SAPS   H4Y 7969   0.818   4.501  10.134  0.6772 -0.0818 -0.2602
   84SAPS   C35 7970   0.986   4.611  10.066 -0.4843  0.0209 -0.8507
   84SAPS   H5X 7971   1.040   4.519  10.098 -0.2519 -0.5489 -2.7701
   84SAPS   H5Y 7972   1.040   4.703  10.098  2.6926 -1.6337 -1.0611
   84SAPS   C36 7973   0.964   4.627   9.914 -0.0156 -0.1265 -0.3187
   84SAPS   H6X 7974   0.917   4.727   9.897  0.8610  0.1129 -1.4257
   84SAPS   H6Y 7975   0.889   4.550   9.886  0.0791 -0.2569 -0.2145
   84SAPS   C37 7976   1.083   4.597   9.825  0.3876  0.0996 -0.0692
   84SAPS   H7X 7977   1.144   4.512   9.861  1.6201  0.9795 -0.0026
   84SAPS   H7Y 7978   1.143   4.689   9.809  1.4330 -0.6514 -0.5832
   84SAPS   C38 7979   1.024   4.551   9.687 -0.1777 -0.9032 -0.2934
   84SAPS   H8X 7980   0.940   4.623   9.675  0.2552  0.1779  2.3774
   84SAPS   H8Y 7981   0.991   4.445   9.687 -0.0906 -0.9331 -1.1457
   84SAPS   C39 7982   1.134   4.554   9.579  0.3532  0.2112  0.3750
   84SAPS   H9X 7983   1.197   4.464   9.595  0.3364  0.3121  1.0409
   84SAPS   H9Y 7984   1.191   4.649   9.587  0.1164  0.2721  1.4030
   84SAPS  C310 7985   1.064   4.538   9.442 -0.1936  1.1650 -0.1290
   84SAPS  H10X 7986   1.003   4.628   9.417 -0.1162  1.3423  0.3073
   84SAPS  H10Y 7987   0.991   4.455   9.451  1.0355  0.1160  0.5356
   84SAPS  C311 7988   1.162   4.526   9.327  0.6245 -0.5503  0.0972
   84SAPS  H11X 7989   1.234   4.446   9.356  1.5622  0.0789 -0.4266
   84SAPS  H11Y 7990   1.218   4.621   9.314  1.1064 -1.0671 -2.0265
   84SAPS  C312 7991   1.102   4.509   9.178 -0.6136  0.0201 -0.9387
   84SAPS  H12X 7992   1.036   4.594   9.152 -1.8872 -1.1791 -1.7391
   84SAPS  H12Y 7993   1.055   4.409   9.168  0.9520 -0.6552 -1.8725
   84SAPS  C313 7994   1.209   4.510   9.068  0.3947 -0.2622 -0.3988
   84SAPS  H13X 7995   1.282   4.429   9.090 -1.2163 -1.7170 -0.2423
   84SAPS  H13Y 7996   1.261   4.608   9.067  1.7935 -0.9804 -1.0990
   84SAPS  C314 7997   1.144   4.485   8.930  0.2620  0.2358 -0.7332
   84SAPS  H14X 7998   1.061   4.557   8.917 -0.7663 -0.9929 -1.2142
   84SAPS  H14Y 7999   1.091   4.388   8.916  0.6143  0.0369 -0.7025
   84SAPS  C315 8000   1.243   4.502   8.810  1.0125 -0.6325 -0.6928
   84SAPS  H15X 8001   1.289   4.401   8.806 -0.1650 -1.1708 -1.3425
   84SAPS  H15Y 8002   1.306   4.592   8.820  0.8041 -0.6115  0.5912
   84SAPS  C316 8003   1.183   4.499   8.671  0.1227  0.6952 -0.9594
   84SAPS  H16X 8004   1.261   4.493   8.593  2.1506  1.0559  0.9471
   84SAPS  H16Y 8005   1.143   4.601   8.655 -0.9479  0.5855  0.7854
   84SAPS  C317 8006   1.079   4.388   8.638  0.1970  0.9690 -0.7522
   84SAPS  H17X 8007   1.093   4.294   8.696 -0.5055  0.7256 -0.9660
   84SAPS  H17Y 8008   1.096   4.361   8.532  0.4967 -1.1790 -0.2082
   84SAPS  C318 8009   0.938   4.445   8.647  0.0112 -0.0111 -0.0742
   84SAPS  H18X 8010   0.909   4.503   8.738 -0.3833 -2.5775  1.5359
   84SAPS  H18Y 8011   0.868   4.359   8.657  0.3108 -0.5046 -1.8487
   84SAPS  H18Z 8012   0.902   4.508   8.563 -0.5227 -0.7728 -0.4253
   85SAPS     N 8013   3.210   2.395  11.132  0.0694  0.3425  0.4530
   85SAPS   HN1 8014   3.292   2.348  11.087 -0.7274  0.1254 -0.8284
   85SAPS   HN2 8015   3.220   2.496  11.153  1.1716  0.0137  1.6397
   85SAPS   HN3 8016   3.189   2.347  11.222 -1.7699 -0.4339 -0.3359
   85SAPS   C12 8017   3.104   2.364  11.028  1.0133  0.5686 -0.2172
   85SAPS  H12A 8018   3.110   2.263  10.991 -4.4517 -0.5803  1.1072
   85SAPS   C13 8019   2.955   2.369  11.089 -0.1556  0.2880 -0.0625
   85SAPS  O13A 8020   2.937   2.395  11.209 -0.6559  0.2713  0.2190
   85SAPS  O13B 8021   2.858   2.319  11.022 -0.5655  0.0132 -0.7457
   85SAPS   C11 8022   3.111   2.469  10.910 -0.6634  1.0498 -0.2201
   85SAPS  H11A 8023   3.217   2.467  10.876 -0.3779 -2.0950  0.5141
   85SAPS  H11B 8024   3.110   2.571  10.953  2.1340 -0.2568  3.4282
   85SAPS     P 8025   3.057   2.334  10.690 -0.0550  0.0724 -0.2480
   85SAPS   O13 8026   3.201   2.323  10.663  0.1674 -0.5897 -0.4859
   85SAPS   O14 8027   2.985   2.206  10.705 -0.0870  0.1861 -0.4813
   85SAPS   O12 8028   3.026   2.441  10.799  0.5645  0.3050  0.4433
   85SAPS   O11 8029   3.002   2.406  10.561 -0.0322  0.6217  0.4982
   85SAPS    C1 8030   3.082   2.499  10.492 -0.1194 -0.0253 -0.7257
   85SAPS    HA 8031   3.134   2.572  10.558  0.0931 -0.0790 -0.8326
   85SAPS    HB 8032   3.163   2.448  10.434  0.0117 -0.9130  0.1927
   85SAPS    C2 8033   3.007   2.592  10.391 -0.7003  0.1297  0.0283
   85SAPS    HS 8034   2.931   2.637  10.460 -0.7632 -1.7066  1.2074
   85SAPS   O21 8035   2.958   2.513  10.282 -0.2912 -1.0350 -0.2179
   85SAPS   C21 8036   2.855   2.560  10.217 -0.0835 -0.2691  0.3294
   85SAPS   O22 8037   2.769   2.642  10.250  0.0161 -0.3871  0.3558
   85SAPS   C22 8038   2.842   2.478  10.088 -0.9623 -0.1157  1.1886
   85SAPS   H2R 8039   2.849   2.371  10.118  0.0989 -0.8888 -1.4815
   85SAPS   H2S 8040   2.746   2.509  10.043  0.3381 -0.4658 -2.1078
   85SAPS    C3 8041   3.096   2.703  10.330  0.4195 -0.6066 -0.8201
   85SAPS    HX 8042   3.168   2.739  10.407  1.6022 -2.1996 -1.1329
   85SAPS    HY 8043   3.029   2.788  10.307 -0.9126 -1.4264 -0.1627
   85SAPS   O31 8044   3.174   2.656  10.219  0.1828  0.6170  0.3028
   85SAPS   C31 8045   3.241   2.741  10.151 -0.3584 -0.5860 -0.7772
   85SAPS   O32 8046   3.253   2.859  10.178 -0.3800  0.4966  0.3296
   85SAPS   C32 8047   3.330   2.671  10.051 -0.6951 -0.3947 -0.2530
   85SAPS   H2X 8048   3.264   2.596  10.003  1.1756 -0.3254 -3.2312
   85SAPS   H2Y 8049   3.413   2.623  10.107  0.5045  1.9358  0.1207
   85SAPS   C23 8050   2.957   2.522   9.981  0.5741 -0.1490 -0.5849
   85SAPS   H3R 8051   3.050   2.467  10.008 -0.3773 -1.1341  0.8338
   85SAPS   H3S 8052   2.992   2.627   9.994 -1.1193  0.4178 -0.4099
   85SAPS   C24 8053   2.913   2.502   9.830 -0.7025 -0.5084  0.0658
   85SAPS   H4R 8054   2.823   2.566   9.814  0.8434  1.2614 -2.4141
   85SAPS   H4S 8055   2.866   2.402   9.818  1.2211 -1.5090  0.5059
   85SAPS   C25 8056   3.026   2.526   9.732 -0.1407 -0.1213 -0.6905
   85SAPS   H5R 8057   3.127   2.513   9.772 -0.9180 -2.6279  0.6583
   85SAPS   C26 8058   3.004   2.559   9.603 -0.1599 -0.1923  0.5442
   85SAPS   H6R 8059   3.085   2.550   9.530 -0.8617  0.7800 -0.3965
   85SAPS   C27 8060   2.866   2.581   9.534  0.1900 -0.0802  0.0906
   85SAPS   H7R 8061   2.779   2.579   9.603 -0.2167 -0.8144 -0.4383
   85SAPS   H7S 8062   2.857   2.494   9.466 -1.2198 -2.4506  3.0664
   85SAPS   C28 8063   2.851   2.704   9.452 -0.3737 -1.1632  0.1291
   85SAPS   H8R 8064   2.787   2.779   9.502 -0.1140 -2.0343  1.8565
   85SAPS   C29 8065   2.906   2.727   9.335  0.3791  0.0175  0.6604
   85SAPS   H9R 8066   2.894   2.818   9.273 -1.0207 -1.1708 -0.8907
   85SAPS  C210 8067   2.997   2.623   9.259  0.0923 -0.2630 -1.0342
   85SAPS  H10R 8068   2.942   2.571   9.178 -0.1284 -0.2877 -0.8704
   85SAPS  H10S 8069   3.026   2.538   9.324  2.4373 -1.5778 -3.6227
   85SAPS  C211 8070   3.134   2.680   9.229 -0.8621 -0.1892 -0.1913
   85SAPS  H11R 8071   3.208   2.678   9.310  0.0160  3.5698 -0.7083
   85SAPS  C212 8072   3.167   2.724   9.102  0.2238  0.3033  0.3418
   85SAPS  H12R 8073   3.273   2.751   9.089 -0.1256  0.6396 -2.6704
   85SAPS  C213 8074   3.087   2.717   8.977  0.4585 -0.5901 -0.4858
   85SAPS  H13R 8075   2.998   2.650   8.973  0.6371 -0.8748  0.2160
   85SAPS  H13S 8076   3.155   2.661   8.909 -2.1963 -3.1647 -1.2265
   85SAPS  C214 8077   3.060   2.854   8.920  0.6717  0.5393 -0.0512
   85SAPS  H14R 8078   3.080   2.932   8.996 -1.7830 -0.2630  1.5324
   85SAPS  C215 8079   3.045   2.884   8.793  0.7240  0.2836 -0.5774
   85SAPS  H15R 8080   3.027   2.989   8.763  1.3521  1.1188  1.7589
   85SAPS  C216 8081   3.037   2.783   8.683  0.1445  0.2981  0.9039
   85SAPS  H16R 8082   2.945   2.822   8.634  1.3897  1.8163 -0.3079
   85SAPS  H16S 8083   3.026   2.682   8.728 -0.6712 -0.7086 -1.4251
   85SAPS  C217 8084   3.151   2.806   8.579 -0.5744  0.5227 -0.8140
   85SAPS  H17R 8085   3.147   2.910   8.542  0.1494  1.2954  1.1077
   85SAPS  H17S 8086   3.138   2.743   8.489 -0.2520 -0.4739 -0.1895
   85SAPS  C218 8087   3.294   2.766   8.627  0.1732  0.0552 -0.3930
   85SAPS  H18R 8088   3.270   2.668   8.674  1.7840 -0.2938 -0.2697
   85SAPS  H18S 8089   3.325   2.837   8.706 -3.3303  0.8636  0.4625
   85SAPS  C219 8090   3.399   2.752   8.518  0.3468 -0.4354 -0.3327
   85SAPS  H19R 8091   3.383   2.848   8.464 -0.9329  0.0308  0.7931
   85SAPS  H19S 8092   3.368   2.672   8.448  1.9064 -1.1901 -0.2063
   85SAPS  C220 8093   3.540   2.737   8.578 -0.8450 -0.1356  0.2087
   85SAPS  H20R 8094   3.538   2.643   8.636  2.1367  0.0449  0.7439
   85SAPS  H20S 8095   3.570   2.815   8.650 -1.8470  0.6214 -0.1742
   85SAPS  H20T 8096   3.624   2.727   8.505  0.1920  1.7289  1.0688
   85SAPS   C33 8097   3.378   2.762   9.936  1.3319 -0.7105  0.4601
   85SAPS   H3X 8098   3.452   2.706   9.875  0.6612 -0.4368 -0.6376
   85SAPS   H3Y 8099   3.428   2.855   9.972  2.8147 -1.1501 -0.3782
   85SAPS   C34 8100   3.270   2.800   9.831  0.1263  0.1430 -0.1801
   85SAPS   H4X 8101   3.193   2.865   9.879  2.5423  2.2422  1.0668
   85SAPS   H4Y 8102   3.213   2.717   9.784  0.1210  0.5368 -0.8844
   85SAPS   C35 8103   3.333   2.872   9.720 -0.7889 -0.8384  0.1318
   85SAPS   H5X 8104   3.422   2.812   9.691 -0.6007 -0.7945  0.6182
   85SAPS   H5Y 8105   3.374   2.958   9.777  2.4496 -2.1530 -0.0038
   85SAPS   C36 8106   3.248   2.924   9.604  0.4291 -0.4060 -0.1588
   85SAPS   H6X 8107   3.179   2.997   9.653 -0.4196 -0.8671 -0.6516
   85SAPS   H6Y 8108   3.188   2.845   9.554 -0.3213  0.9331 -1.4303
   85SAPS   C37 8109   3.324   3.004   9.497 -0.1053 -0.9406 -0.2249
   85SAPS   H7X 8110   3.400   2.939   9.448  2.1451  1.3212  0.0590
   85SAPS   H7Y 8111   3.364   3.093   9.550 -0.4934 -0.5495 -0.5758
   85SAPS   C38 8112   3.234   3.060   9.379  0.2925  0.2782  0.0873
   85SAPS   H8X 8113   3.165   3.129   9.431 -1.5376 -0.6148 -1.0440
   85SAPS   H8Y 8114   3.171   2.976   9.342 -0.0760  1.2068 -1.4976
   85SAPS   C39 8115   3.312   3.116   9.262 -0.3397 -0.1043  0.4199
   85SAPS   H9X 8116   3.353   3.031   9.203  1.3958  2.0742 -1.6922
   85SAPS   H9Y 8117   3.401   3.158   9.313 -0.0555 -0.6221  0.3629
   85SAPS  C310 8118   3.223   3.216   9.192 -0.3414 -0.6057  0.4455
   85SAPS  H10X 8119   3.213   3.310   9.250  3.0538 -0.7398  1.5039
   85SAPS  H10Y 8120   3.124   3.169   9.178  0.0678 -0.8632 -2.0789
   85SAPS  C311 8121   3.273   3.250   9.052  0.1318  0.1184 -0.4215
   85SAPS  H11X 8122   3.268   3.154   8.998 -1.4463  0.2666 -0.5820
   85SAPS  H11Y 8123   3.381   3.277   9.051 -0.0144  0.8064  0.4008
   85SAPS  C312 8124   3.173   3.339   8.984 -0.6562 -0.0784  0.2589
   85SAPS  H12X 8125   3.127   3.409   9.056 -0.6248  0.6581 -0.4130
   85SAPS  H12Y 8126   3.092   3.279   8.937 -0.9884 -0.3124  1.1117
   85SAPS  C313 8127   3.242   3.428   8.873  0.2825  0.2820  0.0477
   85SAPS  H13X 8128   3.284   3.359   8.797  0.7836  0.4246  0.1925
   85SAPS  H13Y 8129   3.327   3.486   8.914  1.1587 -2.2273  1.9989
   85SAPS  C314 8130   3.132   3.521   8.808 -0.5611 -0.1801  0.0592
   85SAPS  H14X 8131   3.116   3.595   8.890 -0.1862 -3.5522  3.4448
   85SAPS  H14Y 8132   3.038   3.468   8.783  0.7139 -2.6848  0.2071
   85SAPS  C315 8133   3.178   3.600   8.682  0.2937 -0.6225  0.8151
   85SAPS  H15X 8134   3.204   3.524   8.604  0.5111  1.2176 -0.9803
   85SAPS  H15Y 8135   3.279   3.647   8.687 -0.4921  1.4757 -1.1726
   85SAPS  C316 8136   3.081   3.713   8.644 -0.2368  0.2174  0.2620
   85SAPS  H16X 8137   3.063   3.791   8.721 -0.8105  1.7426 -1.3505
   85SAPS  H16Y 8138   2.983   3.663   8.631 -0.4293  0.6785 -0.1227
   85SAPS  C317 8139   3.110   3.801   8.521 -0.9455 -0.7953  0.3755
   85SAPS  H17X 8140   3.196   3.852   8.569 -2.1992  0.1836  1.6907
   85SAPS  H17Y 8141   3.028   3.876   8.510 -0.7657 -0.3512  1.8708
   85SAPS  C318 8142   3.130   3.713   8.395 -0.3194  0.1945 -0.7353
   85SAPS  H18X 8143   3.147   3.778   8.307  2.7631  0.0591 -0.3412
   85SAPS  H18Y 8144   3.034   3.660   8.377  1.5455 -3.2708 -1.2548
   85SAPS  H18Z 8145   3.206   3.636   8.419 -1.7158 -0.9334  0.2080
   86SAPS     N 8146   5.436   1.599  11.041  0.1634 -0.1143 -0.2528
   86SAPS   HN1 8147   5.521   1.632  11.091 -0.5962 -0.2845  1.1919
   86SAPS   HN2 8148   5.453   1.503  11.005  1.6028  0.2980 -0.7613
   86SAPS   HN3 8149   5.399   1.663  10.968 -2.5296 -0.8981  0.3355
   86SAPS   C12 8150   5.322   1.591  11.144  0.9790 -0.1423 -0.2774
   86SAPS  H12A 8151   5.345   1.520  11.222 -0.9616  0.1099  0.5860
   86SAPS   C13 8152   5.280   1.725  11.215  0.1671  0.3301  0.4581
   86SAPS  O13A 8153   5.324   1.838  11.175 -0.1009 -0.0396 -0.0559
   86SAPS  O13B 8154   5.177   1.717  11.289  0.1795  0.1332  0.2782
   86SAPS   C11 8155   5.202   1.527  11.073 -0.5030 -0.0711  0.0667
   86SAPS  H11A 8156   5.120   1.522  11.148 -1.2031 -1.1829 -0.7294
   86SAPS  H11B 8157   5.228   1.423  11.042 -0.3114 -0.6618  2.0784
   86SAPS     P 8158   5.052   1.532  10.858  0.2303  0.2602 -0.4076
   86SAPS   O13 8159   4.956   1.458  10.938  0.4109 -0.2952 -0.2623
   86SAPS   O14 8160   5.002   1.640  10.769  0.5729  0.1260 -0.0600
   86SAPS   O12 8161   5.159   1.602  10.956 -0.2312  0.3709 -0.4381
   86SAPS   O11 8162   5.138   1.433  10.778 -0.1425 -0.4270 -0.1764
   86SAPS    C1 8163   5.272   1.455  10.718 -0.0052 -0.1578 -0.5199
   86SAPS    HA 8164   5.351   1.459  10.796  2.5705  1.5028 -3.0152
   86SAPS    HB 8165   5.299   1.371  10.650  1.6173 -0.9824  1.0489
   86SAPS    C2 8166   5.256   1.574  10.615  0.1765  0.2718  0.7489
   86SAPS    HS 8167   5.244   1.666  10.675  1.7174  0.9355  0.0974
   86SAPS   O21 8168   5.152   1.552  10.522  0.2924  0.5309 -0.1486
   86SAPS   C21 8169   5.123   1.654  10.434 -0.1961  0.5083 -1.2091
   86SAPS   O22 8170   5.161   1.768  10.441  0.3212  0.1764 -0.2391
   86SAPS   C22 8171   5.034   1.588  10.335 -0.2122 -0.7016 -0.5281
   86SAPS   H2R 8172   5.075   1.496  10.288 -1.8136 -1.5797 -0.2821
   86SAPS   H2S 8173   4.936   1.556  10.378 -1.0542 -1.2582 -2.7182
   86SAPS    C3 8174   5.387   1.595  10.538 -0.2491  0.0890  0.0567
   86SAPS    HX 8175   5.478   1.593  10.603  0.5286 -2.4357 -1.0138
   86SAPS    HY 8176   5.374   1.701  10.507 -0.0267 -0.4851 -2.1120
   86SAPS   O31 8177   5.393   1.520  10.416  0.4484  0.1768  0.0039
   86SAPS   C31 8178   5.468   1.410  10.419  0.1351 -0.4331  0.1441
   86SAPS   O32 8179   5.542   1.381  10.511 -0.0852  0.1567  1.0921
   86SAPS   C32 8180   5.460   1.334  10.284 -0.2055 -0.2566  0.3845
   86SAPS   H2X 8181   5.491   1.230  10.308 -0.1070  0.1945  2.3660
   86SAPS   H2Y 8182   5.526   1.383  10.209 -1.2062 -1.0756 -1.0874
   86SAPS   C23 8183   5.004   1.690  10.218  0.2299 -0.0935 -0.4520
   86SAPS   H3R 8184   5.082   1.767  10.202  0.6029 -0.2434  0.5854
   86SAPS   H3S 8185   4.910   1.743  10.244 -0.3028 -1.0385 -0.4085
   86SAPS   C24 8186   4.995   1.611  10.083 -0.2710  0.0443 -0.2611
   86SAPS   H4R 8187   5.098   1.571  10.066  0.7641  1.7634  1.5613
   86SAPS   H4S 8188   4.971   1.690  10.010  3.3754  1.8008  0.2064
   86SAPS   C25 8189   4.901   1.491  10.075  0.4586  0.7638  0.5759
   86SAPS   H5R 8190   4.825   1.488  10.155 -3.2523  1.2312 -2.6350
   86SAPS   C26 8191   4.885   1.391   9.983 -0.7310  0.6636 -0.4383
   86SAPS   H6R 8192   4.814   1.309  10.000 -0.8232  0.5367 -1.3948
   86SAPS   C27 8193   4.954   1.388   9.849  0.1026  0.0173  0.0453
   86SAPS   H7R 8194   5.046   1.326   9.845 -1.0009 -1.7507  0.8247
   86SAPS   H7S 8195   4.984   1.492   9.826 -0.3096 -0.0260 -0.6970
   86SAPS   C28 8196   4.862   1.341   9.743  0.4441  0.5352 -0.4231
   86SAPS   H8R 8197   4.755   1.360   9.762  0.3052  0.3437 -0.9865
   86SAPS   C29 8198   4.890   1.262   9.642 -0.2854  0.5260  0.3432
   86SAPS   H9R 8199   4.810   1.239   9.570  1.2447  2.7396 -2.2519
   86SAPS  C210 8200   5.025   1.199   9.602  0.0554 -0.9567  0.5375
   86SAPS  H10R 8201   5.069   1.135   9.682  1.2297 -1.2317 -0.2949
   86SAPS  H10S 8202   5.105   1.273   9.581  0.1084 -1.0950  0.2373
   86SAPS  C211 8203   5.027   1.125   9.467  0.3155 -0.5507 -0.2426
   86SAPS  H11R 8204   5.042   1.178   9.372 -0.6590 -1.6394 -1.0341
   86SAPS  C212 8205   5.004   0.992   9.460 -0.0191 -0.3045  1.1084
   86SAPS  H12R 8206   4.996   0.943   9.362 -1.3829  3.4109 -0.8247
   86SAPS  C213 8207   4.976   0.905   9.578  0.2366  0.7680 -0.3833
   86SAPS  H13R 8208   4.867   0.887   9.589  0.1329  0.5664 -1.6119
   86SAPS  H13S 8209   5.016   0.953   9.670  1.1726 -1.3038  0.3530
   86SAPS  C214 8210   5.035   0.764   9.554 -0.6580  0.2641 -0.4057
   86SAPS  H14R 8211   5.034   0.722   9.453  0.6769 -0.9231  0.0369
   86SAPS  C215 8212   5.098   0.682   9.651  0.5271 -0.3682 -0.4932
   86SAPS  H15R 8213   5.143   0.588   9.619 -0.0321  0.3286 -3.6354
   86SAPS  C216 8214   5.111   0.711   9.797  0.1909  0.2050  0.6823
   86SAPS  H16R 8215   5.047   0.638   9.850  2.1229 -0.0868  2.7799
   86SAPS  H16S 8216   5.086   0.818   9.818 -0.2510  0.4332 -0.8611
   86SAPS  C217 8217   5.256   0.683   9.852 -0.3581 -0.7269  0.4685
   86SAPS  H17R 8218   5.319   0.737   9.779 -0.5436 -0.7122  0.3162
   86SAPS  H17S 8219   5.297   0.580   9.850 -1.4571 -1.2014  1.2774
   86SAPS  C218 8220   5.286   0.733   9.993  0.2657 -0.5106 -0.0388
   86SAPS  H18R 8221   5.239   0.664  10.068 -0.4468 -2.4558 -2.1633
   86SAPS  H18S 8222   5.238   0.829  10.022 -0.9004 -1.1789  0.3123
   86SAPS  C219 8223   5.436   0.740  10.026 -0.5406  0.0932 -0.5876
   86SAPS  H19R 8224   5.483   0.810   9.953  1.9505 -0.1231  0.6914
   86SAPS  H19S 8225   5.479   0.641  10.001 -0.0570  0.1886 -0.1728
   86SAPS  C220 8226   5.472   0.780  10.167  0.1185  0.9415  0.4053
   86SAPS  H20R 8227   5.572   0.736  10.188 -0.8455 -3.0346 -2.1411
   86SAPS  H20S 8228   5.402   0.740  10.244  1.3026  1.8637  2.0357
   86SAPS  H20T 8229   5.477   0.891  10.173 -0.4347  1.1229 -1.7060
   86SAPS   C33 8230   5.316   1.319  10.229 -0.2053  0.2550  0.2991
   86SAPS   H3X 8231   5.295   1.410  10.169  0.3783  0.4138  0.3320
   86SAPS   H3Y 8232   5.241   1.306  10.310 -1.0447 -2.4772 -0.8094
   86SAPS   C34 8233   5.302   1.210  10.123 -0.4165  0.9230 -0.4485
   86SAPS   H4X 8234   5.195   1.191  10.099 -0.7530  2.0061  0.1400
   86SAPS   H4Y 8235   5.347   1.122  10.175 -0.9249  0.1686 -1.2532
   86SAPS   C35 8236   5.377   1.230   9.990 -0.0410  0.6678 -0.5872
   86SAPS   H5X 8237   5.485   1.252  10.004 -0.0747  1.8814 -2.0593
   86SAPS   H5Y 8238   5.336   1.327   9.954 -0.5318  1.1978  1.2799
   86SAPS   C36 8239   5.358   1.117   9.882  0.1524  0.1173 -0.0098
   86SAPS   H6X 8240   5.257   1.070   9.880  1.1058 -2.3064  2.0771
   86SAPS   H6Y 8241   5.411   1.028   9.924 -0.4396 -0.6109 -0.7736
   86SAPS   C37 8242   5.401   1.136   9.738 -0.6205 -0.5498 -0.2184
   86SAPS   H7X 8243   5.502   1.181   9.736 -1.4783  1.4896 -0.8460
   86SAPS   H7Y 8244   5.334   1.208   9.686  0.5793 -0.2100 -1.3351
   86SAPS   C38 8245   5.410   1.003   9.664 -0.2562  0.1333 -0.4135
   86SAPS   H8X 8246   5.314   0.948   9.666 -0.4368  0.3547 -1.9857
   86SAPS   H8Y 8247   5.481   0.936   9.718  0.2463  0.1812 -1.0127
   86SAPS   C39 8248   5.441   1.024   9.517  0.3825 -0.4471  0.0137
   86SAPS   H9X 8249   5.549   1.048   9.508  0.5057 -0.0853  2.1257
   86SAPS   H9Y 8250   5.380   1.114   9.491  1.1462  0.3812  1.0143
   86SAPS  C310 8251   5.412   0.895   9.440  0.0520 -0.8691 -0.7921
   86SAPS  H10X 8252   5.304   0.869   9.439 -0.4876  1.2092 -0.9170
   86SAPS  H10Y 8253   5.478   0.817   9.483 -2.8920 -2.5864  0.9706
   86SAPS  C311 8254   5.447   0.898   9.289 -0.1703 -0.6010  0.1491
   86SAPS  H11X 8255   5.548   0.938   9.267 -0.2956  0.6031  1.6042
   86SAPS  H11Y 8256   5.374   0.968   9.241 -0.0400  0.6348  1.6624
   86SAPS  C312 8257   5.433   0.757   9.225 -0.7389  0.4899 -0.4176
   86SAPS  H12X 8258   5.512   0.691   9.264 -0.5428  1.2216  0.4543
   86SAPS  H12Y 8259   5.459   0.769   9.117 -1.0741 -1.1249 -0.7056
   86SAPS  C313 8260   5.293   0.689   9.241  0.2689  0.6186  0.4181
   86SAPS  H13X 8261   5.215   0.750   9.191 -0.9745  0.4097  2.0260
   86SAPS  H13Y 8262   5.262   0.681   9.347 -0.8882 -1.2317 -0.0114
   86SAPS  C314 8263   5.290   0.547   9.176 -0.2581 -0.1221 -0.0002
   86SAPS  H14X 8264   5.373   0.492   9.225 -0.1323 -1.2385 -1.4254
   86SAPS  H14Y 8265   5.309   0.561   9.067  1.2406  0.4468  0.3060
   86SAPS  C315 8266   5.157   0.475   9.196 -0.0381 -0.1088 -0.0260
   86SAPS  H15X 8267   5.155   0.466   9.307 -0.3352 -0.2455 -0.0420
   86SAPS  H15Y 8268   5.175   0.370   9.166  2.9918  0.1474  0.5957
   86SAPS  C316 8269   5.041   0.552   9.136 -0.0779  0.6553 -0.3408
   86SAPS  H16X 8270   5.057   0.560   9.026  0.7298  0.2435 -0.2637
   86SAPS  H16Y 8271   5.039   0.653   9.180  0.2082 -0.0781  1.4419
   86SAPS  C317 8272   4.898   0.488   9.160 -0.5388 -0.8394 -0.1251
   86SAPS  H17X 8273   4.902   0.383   9.124  2.4187 -0.5765 -0.8416
   86SAPS  H17Y 8274   4.813   0.537   9.109  0.3152 -0.5211 -1.2746
   86SAPS  C318 8275   4.845   0.475   9.304 -0.6255  0.1787 -0.6507
   86SAPS  H18X 8276   4.768   0.551   9.324 -1.2855 -0.8610  1.0072
   86SAPS  H18Y 8277   4.927   0.491   9.377 -0.9418 -0.0731 -0.2312
   86SAPS  H18Z 8278   4.796   0.380   9.334 -1.6626  0.6656 -0.7722
   87SAPS     N 8279   0.138   6.578  11.147 -0.8475 -0.2391  0.1849
   87SAPS   HN1 8280   0.084   6.570  11.235 -1.2227  1.6838  0.1535
   87SAPS   HN2 8281   0.223   6.518  11.138 -1.5530 -1.0932 -1.2667
   87SAPS   HN3 8282   0.157   6.678  11.128 -0.3672 -0.4596 -0.5642
   87SAPS   C12 8283   0.061   6.529  11.029  0.4298  0.1607 -0.3346
   87SAPS  H12A 8284   0.085   6.424  11.022  2.4413  0.6133 -1.1089
   87SAPS   C13 8285  -0.088   6.540  11.024  0.7026  0.6989  0.5856
   87SAPS  O13A 8286  -0.147   6.567  11.130  0.4177 -0.3328 -0.0813
   87SAPS  O13B 8287  -0.147   6.487  10.929  0.2142  0.0711  0.7939
   87SAPS   C11 8288   0.117   6.598  10.903 -0.5917 -1.0317  0.4974
   87SAPS  H11A 8289   0.073   6.550  10.814  0.9283 -1.3624 -0.1061
   87SAPS  H11B 8290   0.227   6.583  10.892 -0.1112 -1.0389  4.0658
   87SAPS     P 8291  -0.009   6.823  10.825 -0.2500 -0.2423 -0.2148
   87SAPS   O13 8292  -0.087   6.737  10.733  0.2502  0.4439  0.8132
   87SAPS   O14 8293  -0.076   6.905  10.928  0.2106 -0.7994  0.7267
   87SAPS   O12 8294   0.105   6.740  10.902 -0.1465  0.3654  0.3162
   87SAPS   O11 8295   0.075   6.925  10.728  0.2707 -0.4551  0.5387
   87SAPS    C1 8296   0.167   6.878  10.624 -0.3283 -0.4774 -0.2326
   87SAPS    HA 8297   0.244   6.955  10.604 -1.6767  0.4535 -2.2951
   87SAPS    HB 8298   0.211   6.787  10.669 -0.8249 -0.0883  1.0909
   87SAPS    C2 8299   0.096   6.862  10.486 -0.3848  0.5377  0.0030
   87SAPS    HS 8300  -0.012   6.886  10.493 -0.3847  0.7244 -0.5692
   87SAPS   O21 8301   0.116   6.726  10.451 -0.2851  0.3955 -0.1027
   87SAPS   C21 8302   0.025   6.675  10.370  0.1864 -0.2594  0.4360
   87SAPS   O22 8303  -0.092   6.701  10.369 -0.3691  0.0748  0.1887
   87SAPS   C22 8304   0.096   6.570  10.291  0.1580 -0.2607  0.0006
   87SAPS   H2R 8305   0.203   6.600  10.287 -0.4236  2.1110  0.8080
   87SAPS   H2S 8306   0.080   6.474  10.345  0.6960 -1.0594 -1.2170
   87SAPS    C3 8307   0.164   6.955  10.382 -0.4798  0.8666  0.1803
   87SAPS    HX 8308   0.261   6.902  10.369 -1.6854 -1.4775  0.1818
   87SAPS    HY 8309   0.183   7.050  10.436  1.4282 -0.7976  2.6423
   87SAPS   O31 8310   0.105   6.956  10.254 -0.7327 -0.4941 -0.0599
   87SAPS   C31 8311   0.020   7.062  10.235 -0.0165 -0.3975  0.2635
   87SAPS   O32 8312   0.001   7.158  10.303  0.2672 -0.2253 -0.6377
   87SAPS   C32 8313  -0.034   7.050  10.091  0.0041 -0.5058  0.0069
   87SAPS   H2X 8314  -0.075   6.948  10.077  0.2212 -0.6997  0.7604
   87SAPS   H2Y 8315   0.046   7.057  10.013 -2.0107 -1.5413 -2.2903
   87SAPS   C23 8316   0.028   6.529  10.151  0.2852 -0.0454  0.5572
   87SAPS   H3R 8317  -0.071   6.482  10.168 -0.1541  0.5971 -0.1797
   87SAPS   H3S 8318   0.096   6.458  10.099 -0.8039  0.3345 -1.4595
   87SAPS   C24 8319  -0.003   6.639  10.050 -0.4623 -0.6628  0.0499
   87SAPS   H4R 8320  -0.057   6.721  10.103  0.9809  0.6839 -0.4974
   87SAPS   H4S 8321  -0.058   6.584   9.971 -1.0089 -1.7346  1.1504
   87SAPS   C25 8322   0.126   6.698   9.991  0.3204 -0.4199  0.2259
   87SAPS   H5R 8323   0.203   6.724  10.066  0.1218  2.9264 -0.5938
   87SAPS   C26 8324   0.162   6.728   9.868  0.1335  0.2027  0.3009
   87SAPS   H6R 8325   0.266   6.757   9.850 -0.5941  2.0197 -1.2201
   87SAPS   C27 8326   0.082   6.706   9.739  0.6791 -0.3326 -0.8974
   87SAPS   H7R 8327  -0.026   6.688   9.755  0.9148 -0.6207  0.5144
   87SAPS   H7S 8328   0.114   6.608   9.700 -1.3962 -2.2535  1.8285
   87SAPS   C28 8329   0.090   6.836   9.659 -0.1017  0.3799 -0.4279
   87SAPS   H8R 8330   0.093   6.928   9.719  0.3514 -1.8588  3.3542
   87SAPS   C29 8331   0.122   6.831   9.529  0.7201  0.2012  0.3554
   87SAPS   H9R 8332   0.153   6.925   9.481 -1.0724  1.2876  1.2260
   87SAPS  C210 8333   0.147   6.710   9.441  0.0008 -0.4135 -0.1527
   87SAPS  H10R 8334   0.133   6.617   9.500 -3.2492 -0.3396 -0.6011
   87SAPS  H10S 8335   0.250   6.714   9.399 -0.0056  1.2576 -0.0873
   87SAPS  C211 8336   0.030   6.698   9.342  0.2596 -0.3408  0.5162
   87SAPS  H11R 8337  -0.068   6.674   9.387  0.3330  0.9365  1.4213
   87SAPS  C212 8338   0.029   6.717   9.205 -0.7554 -0.5410 -0.0860
   87SAPS  H12R 8339  -0.069   6.712   9.156 -1.6666 -3.7176  1.8010
   87SAPS  C213 8340   0.148   6.763   9.121  0.0497 -0.1083 -0.2715
   87SAPS  H13R 8341   0.208   6.675   9.091 -0.0270 -0.3784  0.3358
   87SAPS  H13S 8342   0.224   6.814   9.184 -0.4125  2.3168 -1.5489
   87SAPS  C214 8343   0.098   6.853   9.012  0.0557  0.1751 -0.5660
   87SAPS  H14R 8344   0.097   6.962   9.030 -3.0558  0.4740 -1.7890
   87SAPS  C215 8345   0.024   6.808   8.906  0.2811 -0.4084 -0.4722
   87SAPS  H15R 8346  -0.025   6.878   8.836 -1.4189 -1.2609 -0.1889
   87SAPS  C216 8347   0.002   6.659   8.875  0.0257 -0.7985 -0.1083
   87SAPS  H16R 8348  -0.105   6.630   8.888  0.1249 -0.6336  1.2450
   87SAPS  H16S 8349   0.062   6.596   8.944 -1.3348 -1.1034  0.8515
   87SAPS  C217 8350   0.033   6.631   8.726  0.5900  0.7283 -0.0070
   87SAPS  H17R 8351  -0.035   6.696   8.666 -2.4985 -2.3908 -0.2106
   87SAPS  H17S 8352   0.004   6.524   8.721 -1.5068  1.1714  1.6000
   87SAPS  C218 8353   0.179   6.635   8.694 -0.2375  0.7244  0.9186
   87SAPS  H18R 8354   0.243   6.582   8.767  1.2834 -0.3529 -1.0826
   87SAPS  H18S 8355   0.221   6.738   8.692 -1.0082  1.0856 -2.1998
   87SAPS  C219 8356   0.212   6.577   8.553  0.8325  0.5871 -0.1066
   87SAPS  H19R 8357   0.308   6.618   8.514  0.7773  1.2622  0.4621
   87SAPS  H19S 8358   0.137   6.610   8.478  1.6483  0.8184 -0.8430
   87SAPS  C220 8359   0.220   6.422   8.549  0.0149 -0.2404 -0.3623
   87SAPS  H20R 8360   0.284   6.378   8.629  0.6158  1.6578  0.2667
   87SAPS  H20S 8361   0.245   6.374   8.452 -0.1551 -0.3720 -0.3428
   87SAPS  H20T 8362   0.117   6.391   8.576 -0.0297 -0.2614 -0.5572
   87SAPS   C33 8363  -0.148   7.161  10.061  0.1839  0.5747  0.3107
   87SAPS   H3X 8364  -0.117   7.267  10.050  3.8386 -0.3921  0.1333
   87SAPS   H3Y 8365  -0.217   7.150  10.148  0.1649  0.8999  0.3356
   87SAPS   C34 8366  -0.231   7.117   9.936  0.1032  0.5768 -1.0361
   87SAPS   H4X 8367  -0.324   7.177   9.928  0.4687  1.3494  0.1845
   87SAPS   H4Y 8368  -0.254   7.009   9.936  0.3871  0.5087 -0.1255
   87SAPS   C35 8369  -0.158   7.143   9.809 -0.3094 -0.0078 -0.5360
   87SAPS   H5X 8370  -0.052   7.114   9.819  0.3287  1.9952 -1.1328
   87SAPS   H5Y 8371  -0.162   7.250   9.779  0.3144  0.6972  1.7532
   87SAPS   C36 8372  -0.213   7.063   9.687  0.0076 -0.0278  0.3565
   87SAPS   H6X 8373  -0.324   7.063   9.681 -0.0821 -0.1828  1.6514
   87SAPS   H6Y 8374  -0.185   6.955   9.691  1.0515  0.2265  0.0777
   87SAPS   C37 8375  -0.161   7.129   9.553 -0.3556  0.0493 -0.1597
   87SAPS   H7X 8376  -0.054   7.100   9.551 -0.1355  0.6406  1.3959
   87SAPS   H7Y 8377  -0.166   7.240   9.556 -0.8755  0.0315  3.2519
   87SAPS   C38 8378  -0.229   7.064   9.432 -0.2577  0.1113  0.7849
   87SAPS   H8X 8379  -0.335   7.098   9.429  0.0481  1.4691  2.9999
   87SAPS   H8Y 8380  -0.242   6.955   9.447 -1.6737 -0.0164 -0.9793
   87SAPS   C39 8381  -0.168   7.091   9.298  0.0109 -0.1319 -0.0616
   87SAPS   H9X 8382  -0.203   7.030   9.212  0.4001 -1.1159  0.4499
   87SAPS   H9Y 8383  -0.062   7.061   9.311  0.3746  1.0273 -0.2755
   87SAPS  C310 8384  -0.165   7.239   9.257  0.7894  0.0381  0.2083
   87SAPS  H10X 8385  -0.098   7.282   9.334  1.9144  1.4275 -1.4794
   87SAPS  H10Y 8386  -0.268   7.279   9.270  0.6998  0.7925 -2.4143
   87SAPS  C311 8387  -0.103   7.279   9.121  0.4331  0.1786  0.2349
   87SAPS  H11X 8388  -0.121   7.389   9.112 -2.1018 -0.1442  0.4381
   87SAPS  H11Y 8389  -0.164   7.230   9.042  0.0632  1.0595 -0.0407
   87SAPS  C312 8390   0.055   7.265   9.110  0.3871 -0.4345 -0.0926
   87SAPS  H12X 8391   0.080   7.161   9.138  1.0143 -0.4954 -0.8682
   87SAPS  H12Y 8392   0.094   7.335   9.187 -2.4231 -1.3532  2.3932
   87SAPS  C313 8393   0.122   7.304   8.974 -0.1435  0.3048  1.2300
   87SAPS  H13X 8394   0.089   7.410   8.963 -2.4961 -0.4332  0.6703
   87SAPS  H13Y 8395   0.077   7.249   8.889 -0.1172  3.3780 -0.9395
   87SAPS  C314 8396   0.270   7.295   8.996 -0.4726  0.4791 -0.4403
   87SAPS  H14X 8397   0.301   7.189   9.014 -1.2556  0.3981  0.5132
   87SAPS  H14Y 8398   0.301   7.345   9.090  0.1831  0.8367 -0.8361
   87SAPS  C315 8399   0.354   7.370   8.885  0.2063 -0.1756  0.3012
   87SAPS  H15X 8400   0.377   7.471   8.924 -1.1111  0.2232  0.0651
   87SAPS  H15Y 8401   0.299   7.386   8.790 -0.3521 -2.0738  0.2527
   87SAPS  C316 8402   0.494   7.312   8.867 -0.5014  1.4034  0.2478
   87SAPS  H16X 8403   0.498   7.205   8.836  1.0979  2.0136 -1.9136
   87SAPS  H16Y 8404   0.540   7.329   8.967 -0.6918 -0.0163  0.6038
   87SAPS  C317 8405   0.596   7.388   8.767 -0.5034  0.2983 -0.3093
   87SAPS  H17X 8406   0.618   7.483   8.818  0.0635 -0.6764  1.3360
   87SAPS  H17Y 8407   0.543   7.411   8.672 -0.1685 -0.5074 -0.6999
   87SAPS  C318 8408   0.728   7.311   8.736  0.0945 -0.5722 -0.1657
   87SAPS  H18X 8409   0.784   7.346   8.647  0.5696  0.8331  0.6545
   87SAPS  H18Y 8410   0.713   7.202   8.726  0.6088 -0.7739  1.0462
   87SAPS  H18Z 8411   0.789   7.323   8.828 -1.5093 -1.3577  1.0334
   88SAPS     N 8412   1.738   6.236  11.316 -0.5060  0.0356 -0.1472
   88SAPS   HN1 8413   1.681   6.310  11.361  0.3126  1.0525 -0.7385
   88SAPS   HN2 8414   1.754   6.162  11.388 -0.1409 -0.0471 -0.3125
   88SAPS   HN3 8415   1.831   6.268  11.283 -0.7821  0.4469 -0.5510
   88SAPS   C12 8416   1.674   6.177  11.197  0.8403  0.6042  0.3937
   88SAPS  H12A 8417   1.707   6.076  11.178 -0.7440 -0.1910  1.6087
   88SAPS   C13 8418   1.523   6.164  11.222  0.7340 -0.7006  0.2628
   88SAPS  O13A 8419   1.459   6.217  11.318  0.0284 -0.0996  0.5716
   88SAPS  O13B 8420   1.457   6.095  11.134 -0.0156 -0.0110  0.2291
   88SAPS   C11 8421   1.716   6.265  11.069 -0.2783 -0.3366 -0.4735
   88SAPS  H11A 8422   1.660   6.361  11.062  0.3496  0.0395 -0.4731
   88SAPS  H11B 8423   1.684   6.198  10.987  2.0156 -2.9689  0.6466
   88SAPS     P 8424   1.919   6.399  10.984  0.3144 -0.1435 -0.2721
   88SAPS   O13 8425   1.868   6.540  11.013 -0.2265  0.3500 -0.8664
   88SAPS   O14 8426   2.065   6.376  10.995  0.5190  0.1222 -0.1162
   88SAPS   O12 8427   1.851   6.291  11.078 -1.3593  0.3953 -0.1987
   88SAPS   O11 8428   1.854   6.356  10.849  0.1229 -0.1549  0.4312
   88SAPS    C1 8429   1.924   6.247  10.781  0.4891 -0.0763 -0.4945
   88SAPS    HA 8430   1.977   6.176  10.849  1.9146  0.0078 -1.4616
   88SAPS    HB 8431   1.843   6.191  10.729 -1.3068  1.4600  0.5357
   88SAPS    C2 8432   2.020   6.297  10.665 -0.4131  0.3231 -1.4105
   88SAPS    HS 8433   2.102   6.353  10.714 -1.6051  0.6203  0.3359
   88SAPS   O21 8434   1.948   6.389  10.585  0.3804  0.1624 -0.5025
   88SAPS   C21 8435   2.018   6.474  10.511  0.3663  0.5117 -0.2687
   88SAPS   O22 8436   2.133   6.503  10.519 -0.6370  0.3084 -0.2201
   88SAPS   C22 8437   1.910   6.536  10.423  0.1390  0.4200  0.6339
   88SAPS   H2R 8438   1.806   6.513  10.454 -0.7230  1.3965 -1.4140
   88SAPS   H2S 8439   1.913   6.644  10.449  0.5666  1.0353 -1.7644
   88SAPS    C3 8440   2.077   6.175  10.591 -0.0661 -0.2891  0.3876
   88SAPS    HX 8441   2.133   6.116  10.667  1.0866 -0.2136 -0.3820
   88SAPS    HY 8442   2.159   6.213  10.527 -0.4655 -2.3312 -1.4737
   88SAPS   O31 8443   1.977   6.114  10.501 -0.0849 -0.4340 -0.6773
   88SAPS   C31 8444   1.983   5.983  10.505  0.3308  0.4907  0.0154
   88SAPS   O32 8445   2.060   5.916  10.565 -0.0452  0.2542  0.1665
   88SAPS   C32 8446   1.863   5.936  10.416  0.6274 -0.0768  0.5104
   88SAPS   H2X 8447   1.774   5.999  10.439  0.9428  0.7257 -0.4128
   88SAPS   H2Y 8448   1.838   5.836  10.457  0.8504  0.2588  1.5013
   88SAPS   C23 8449   1.944   6.526  10.278  0.3092  0.0884  0.2801
   88SAPS   H3R 8450   2.030   6.588  10.243  0.4670  0.1063  0.6949
   88SAPS   H3S 8451   1.851   6.568  10.234 -0.2962 -1.9891 -0.5548
   88SAPS   C24 8452   1.968   6.385  10.223  0.3716 -0.3330 -0.3230
   88SAPS   H4R 8453   2.046   6.336  10.286  2.0739  0.1483 -1.9570
   88SAPS   H4S 8454   2.016   6.391  10.123 -1.5431 -0.4210 -1.2842
   88SAPS   C25 8455   1.849   6.290  10.237 -0.0690  0.9439 -0.1166
   88SAPS   H5R 8456   1.841   6.260  10.343  0.6648  1.2708  0.0406
   88SAPS   C26 8457   1.766   6.243  10.133 -0.0386  0.7299 -0.0683
   88SAPS   H6R 8458   1.697   6.158  10.148  0.8329  0.2508  1.3557
   88SAPS   C27 8459   1.788   6.283   9.989 -0.0340  0.0907  0.3175
   88SAPS   H7R 8460   1.760   6.189   9.936  0.8841 -0.6399  1.1088
   88SAPS   H7S 8461   1.894   6.303   9.966 -0.5103  0.0735 -2.2402
   88SAPS   C28 8462   1.706   6.401   9.956  0.4318  0.1353 -0.6523
   88SAPS   H8R 8463   1.711   6.476  10.037  1.8401  0.5035 -1.0393
   88SAPS   C29 8464   1.631   6.423   9.843  0.5177 -0.3564 -0.3209
   88SAPS   H9R 8465   1.586   6.522   9.837 -1.1647 -1.1192 -0.8688
   88SAPS  C210 8466   1.620   6.322   9.727 -0.1525 -0.2022 -0.3090
   88SAPS  H10R 8467   1.673   6.226   9.746  3.2663  1.6489  0.1962
   88SAPS  H10S 8468   1.667   6.371   9.639  2.0686  0.0113  0.9217
   88SAPS  C211 8469   1.476   6.300   9.692  0.3086 -0.5197  0.5406
   88SAPS  H11R 8470   1.406   6.298   9.776  0.7119 -0.2294  0.8854
   88SAPS  C212 8471   1.421   6.291   9.571 -0.2674  0.3905  0.2202
   88SAPS  H12R 8472   1.315   6.267   9.558 -0.2745 -0.4448  1.5958
   88SAPS  C213 8473   1.494   6.301   9.439  0.3160  1.0244  0.6459
   88SAPS  H13R 8474   1.427   6.250   9.366  1.7088  0.6884 -0.4476
   88SAPS  H13S 8475   1.590   6.246   9.433 -0.1243  0.3562 -2.0344
   88SAPS  C214 8476   1.528   6.446   9.397 -0.3858  1.4343  0.4511
   88SAPS  H14R 8477   1.481   6.525   9.458 -2.4755 -0.2773  1.2020
   88SAPS  C215 8478   1.602   6.478   9.289 -0.4722 -0.3654 -0.5380
   88SAPS  H15R 8479   1.632   6.583   9.274  1.8699 -0.5992  1.9018
   88SAPS  C216 8480   1.649   6.375   9.194 -0.5438 -0.5059 -0.1804
   88SAPS  H16R 8481   1.608   6.275   9.219  0.3996 -0.8662 -0.0272
   88SAPS  H16S 8482   1.757   6.352   9.193 -0.7501 -1.5458 -0.6508
   88SAPS  C217 8483   1.626   6.430   9.050  0.1595 -0.5688 -0.1546
   88SAPS  H17R 8484   1.689   6.521   9.042  1.5032 -1.3156  1.3855
   88SAPS  H17S 8485   1.521   6.462   9.033  0.8427  1.3588 -1.0317
   88SAPS  C218 8486   1.676   6.335   8.934  0.4627  0.6070 -0.5363
   88SAPS  H18R 8487   1.606   6.249   8.940  3.8146 -2.2411  2.0840
   88SAPS  H18S 8488   1.780   6.302   8.955 -0.3224 -1.5303  0.2317
   88SAPS  C219 8489   1.677   6.390   8.785  0.1346 -0.3107  0.4509
   88SAPS  H19R 8490   1.755   6.469   8.776  1.9105 -1.7839  1.9966
   88SAPS  H19S 8491   1.580   6.441   8.769  0.4260 -0.2481 -1.3160
   88SAPS  C220 8492   1.710   6.280   8.682  0.2170 -1.1399  0.1041
   88SAPS  H20R 8493   1.649   6.187   8.693 -1.4835 -0.2810 -1.4235
   88SAPS  H20S 8494   1.815   6.244   8.691  0.5766  0.2053  1.6434
   88SAPS  H20T 8495   1.681   6.319   8.582  2.5720  0.5911  0.0133
   88SAPS   C33 8496   1.887   5.934  10.262 -0.2040  0.1005 -0.2228
   88SAPS   H3X 8497   1.975   5.870  10.238  2.3705  1.6559  3.8532
   88SAPS   H3Y 8498   1.902   6.032  10.211  1.2206  0.4356  0.7642
   88SAPS   C34 8499   1.766   5.875  10.190 -0.2042  0.1018  0.5180
   88SAPS   H4X 8500   1.687   5.951  10.210 -1.0200 -0.2772 -1.0964
   88SAPS   H4Y 8501   1.735   5.775  10.225 -2.1194  1.2830  2.4719
   88SAPS   C35 8502   1.785   5.878  10.037  0.1314  0.0932  0.1599
   88SAPS   H5X 8503   1.864   5.812   9.996 -0.0757  0.5673 -1.0508
   88SAPS   H5Y 8504   1.814   5.981  10.006 -0.1367  0.1437  0.0776
   88SAPS   C36 8505   1.659   5.861   9.956 -0.5099  0.2254 -0.4974
   88SAPS   H6X 8506   1.581   5.934   9.988 -0.3009  0.8078 -1.2924
   88SAPS   H6Y 8507   1.610   5.763   9.972 -2.0581  0.9393 -0.5838
   88SAPS   C37 8508   1.697   5.883   9.810 -0.9327 -0.6818 -0.0892
   88SAPS   H7X 8509   1.788   5.827   9.782  0.9909  1.3769  1.7003
   88SAPS   H7Y 8510   1.730   5.988   9.797  1.9094 -1.3462  1.0693
   88SAPS   C38 8511   1.572   5.842   9.714 -0.4648 -0.4304  0.6451
   88SAPS   H8X 8512   1.483   5.902   9.743 -1.4659 -1.6897  0.2674
   88SAPS   H8Y 8513   1.548   5.734   9.720 -1.0846 -0.5248 -2.0495
   88SAPS   C39 8514   1.604   5.865   9.562 -1.2059  0.1469 -0.2603
   88SAPS   H9X 8515   1.699   5.817   9.529 -1.5826 -0.1181 -0.9776
   88SAPS   H9Y 8516   1.619   5.974   9.545  1.6944 -0.1129  0.0917
   88SAPS  C310 8517   1.497   5.819   9.465 -0.0358 -0.1301  0.4211
   88SAPS  H10X 8518   1.405   5.834   9.525  0.7107 -1.0033  1.8678
   88SAPS  H10Y 8519   1.501   5.714   9.428  0.7980  0.2935 -0.7353
   88SAPS  C311 8520   1.480   5.908   9.339  0.1681  0.7081  0.1224
   88SAPS  H11X 8521   1.570   5.919   9.275  1.4396 -0.8130  1.5665
   88SAPS  H11Y 8522   1.457   6.013   9.368  0.9306  1.3403 -1.4034
   88SAPS  C312 8523   1.369   5.862   9.248  0.0323 -0.5830 -0.3400
   88SAPS  H12X 8524   1.270   5.863   9.298  0.2970  0.6638  0.2122
   88SAPS  H12Y 8525   1.385   5.754   9.227 -0.8941 -0.6541 -0.7423
   88SAPS  C313 8526   1.353   5.920   9.114 -0.4736  0.0390 -0.2919
   88SAPS  H13X 8527   1.456   5.942   9.078 -0.2910 -0.1195  0.1266
   88SAPS  H13Y 8528   1.289   6.011   9.115 -1.3810 -0.5836 -0.1958
   88SAPS  C314 8529   1.267   5.836   9.017  0.3653 -0.2343 -0.0372
   88SAPS  H14X 8530   1.164   5.833   9.058  0.3167 -2.6686 -0.1666
   88SAPS  H14Y 8531   1.303   5.731   9.016  0.3753 -0.2278 -0.3737
   88SAPS  C315 8532   1.256   5.901   8.873 -0.2033  0.3074 -0.0742
   88SAPS  H15X 8533   1.278   6.010   8.880 -0.1677  0.2313  1.6935
   88SAPS  H15Y 8534   1.153   5.880   8.839 -0.5120 -1.6015  1.8070
   88SAPS  C316 8535   1.345   5.821   8.779 -0.2773 -0.0630  0.2142
   88SAPS  H16X 8536   1.326   5.712   8.787 -0.6083 -0.0214  0.0313
   88SAPS  H16Y 8537   1.454   5.838   8.795  0.1962 -0.4659 -2.2250
   88SAPS  C317 8538   1.321   5.874   8.638  0.5184  0.4892  0.0105
   88SAPS  H17X 8539   1.334   5.984   8.648 -0.2218  0.5074  0.9391
   88SAPS  H17Y 8540   1.218   5.860   8.598  0.3659  0.7703  0.3053
   88SAPS  C318 8541   1.423   5.824   8.536  0.2467 -0.3310 -0.1716
   88SAPS  H18X 8542   1.423   5.714   8.521 -0.6377 -0.7238  2.2821
   88SAPS  H18Y 8543   1.527   5.845   8.570  1.0621 -0.6252 -2.3603
   88SAPS  H18Z 8544   1.403   5.867   8.435  1.3610  0.1378 -0.2093
   89SAPS     N 8545   5.993   1.796  11.015  0.0857  0.1268 -0.1995
   89SAPS   HN1 8546   5.940   1.708  11.000 -2.1247  1.3044  0.3742
   89SAPS   HN2 8547   6.021   1.789  11.115 -0.9925 -0.3690  0.0768
   89SAPS   HN3 8548   5.937   1.882  11.000 -0.0480  0.2508  0.9394
   89SAPS   C12 8549   6.114   1.794  10.922 -0.2216  0.0904 -0.3300
   89SAPS  H12A 8550   6.082   1.808  10.819  2.7730 -0.4826 -1.4209
   89SAPS   C13 8551   6.223   1.901  10.954 -0.7437 -0.3705  0.2647
   89SAPS  O13A 8552   6.204   1.977  11.052  0.1304 -0.0729  0.4622
   89SAPS  O13B 8553   6.311   1.925  10.867  0.2382 -0.1017 -0.2356
   89SAPS   C11 8554   6.185   1.657  10.938  0.4365  0.2314 -0.4006
   89SAPS  H11A 8555   6.225   1.644  11.040 -1.8573  1.7914  0.7893
   89SAPS  H11B 8556   6.272   1.663  10.869 -0.3565  1.8772 -1.3273
   89SAPS     P 8557   6.163   1.395  10.920  0.6943 -0.3427  0.1777
   89SAPS   O13 8558   6.298   1.399  10.861 -0.4555 -0.3723  0.2430
   89SAPS   O14 8559   6.162   1.352  11.061 -0.2669 -0.0792  0.2925
   89SAPS   O12 8560   6.102   1.545  10.906  0.8359  0.4943 -0.5407
   89SAPS   O11 8561   6.074   1.304  10.831  0.2865  0.4581  0.5617
   89SAPS    C1 8562   5.981   1.339  10.730 -0.6991 -1.2170  0.8764
   89SAPS    HA 8563   5.877   1.304  10.746 -0.9400 -0.7916  0.2764
   89SAPS    HB 8564   5.992   1.448  10.714 -2.0711 -0.9275  1.8014
   89SAPS    C2 8565   6.038   1.295  10.593 -0.0869  0.0139 -0.0967
   89SAPS    HS 8566   6.139   1.340  10.592  1.1856 -2.4197  2.4925
   89SAPS   O21 8567   5.946   1.341  10.486  0.4400 -0.4978 -0.1965
   89SAPS   C21 8568   5.975   1.457  10.433  0.3104  0.4794  0.2734
   89SAPS   O22 8569   6.056   1.537  10.470  0.5279 -0.4219  0.3744
   89SAPS   C22 8570   5.841   1.491  10.350 -0.1445  0.0579  0.8548
   89SAPS   H2R 8571   5.759   1.416  10.362 -1.6112  1.7135  1.6942
   89SAPS   H2S 8572   5.811   1.574  10.418  0.2167 -0.9507  2.2928
   89SAPS    C3 8573   6.057   1.142  10.578 -0.1819 -0.1484 -0.3347
   89SAPS    HX 8574   5.970   1.076  10.594  1.4779 -2.6982 -1.1528
   89SAPS    HY 8575   6.125   1.113  10.661 -1.1883 -0.5151  0.3788
   89SAPS   O31 8576   6.125   1.113  10.451 -0.1901 -0.0518  0.0182
   89SAPS   C31 8577   6.181   0.995  10.431 -0.3324 -0.2081 -0.6058
   89SAPS   O32 8578   6.186   0.906  10.516 -0.1608  0.2237  1.0724
   89SAPS   C32 8579   6.220   0.982  10.285 -0.0407  0.0731 -0.5611
   89SAPS   H2X 8580   6.318   1.033  10.273  0.6009 -0.8000  0.7051
   89SAPS   H2Y 8581   6.147   1.041  10.226 -1.2842 -0.6604  0.1991
   89SAPS   C23 8582   5.865   1.528  10.202 -0.5352 -0.2609 -0.5332
   89SAPS   H3R 8583   5.895   1.441  10.139 -2.2169 -0.8769 -0.5560
   89SAPS   H3S 8584   5.960   1.585  10.191 -1.1216  0.4610 -2.2514
   89SAPS   C24 8585   5.752   1.610  10.152 -0.1459 -0.3911  0.8254
   89SAPS   H4R 8586   5.742   1.704  10.212  0.4550 -1.1280  2.1250
   89SAPS   H4S 8587   5.655   1.559  10.171 -0.8902  0.4214 -0.6044
   89SAPS   C25 8588   5.769   1.658  10.008  0.4334  0.4650 -0.5816
   89SAPS   H5R 8589   5.804   1.762  10.011 -2.0854  1.4070 -1.6832
   89SAPS   C26 8590   5.732   1.599   9.899  1.3130 -0.4307  0.7277
   89SAPS   H6R 8591   5.746   1.659   9.808 -0.4640 -0.6061  0.2950
   89SAPS   C27 8592   5.668   1.460   9.874 -0.3641 -0.5204 -0.2054
   89SAPS   H7R 8593   5.560   1.453   9.849 -0.6363  0.3872  0.6176
   89SAPS   H7S 8594   5.689   1.408   9.970  2.9942  2.2587  0.7973
   89SAPS   C28 8595   5.753   1.397   9.763  0.1144 -0.3584  0.1169
   89SAPS   H8R 8596   5.848   1.348   9.792  1.6833  1.8427 -1.0109
   89SAPS   C29 8597   5.724   1.371   9.631 -0.2267 -0.7779 -0.4180
   89SAPS   H9R 8598   5.800   1.320   9.571 -0.4989 -1.7996  0.0839
   89SAPS  C210 8599   5.600   1.424   9.568  0.0080  0.2602 -0.1865
   89SAPS  H10R 8600   5.530   1.466   9.644  0.1049  3.9690 -1.9432
   89SAPS  H10S 8601   5.524   1.356   9.523  0.1181 -1.1901  1.6923
   89SAPS  C211 8602   5.623   1.549   9.482 -0.4008 -0.2205  0.6656
   89SAPS  H11R 8603   5.669   1.631   9.539 -1.6442 -2.0190  4.6605
   89SAPS  C212 8604   5.604   1.562   9.346  0.2237  0.9370  0.2587
   89SAPS  H12R 8605   5.616   1.660   9.298  0.3629  1.5377  1.4621
   89SAPS  C213 8606   5.558   1.443   9.257 -0.2754 -0.1742 -0.2904
   89SAPS  H13R 8607   5.479   1.478   9.187 -0.2104 -1.5504 -1.0794
   89SAPS  H13S 8608   5.508   1.361   9.313  2.0995 -1.0737  0.6486
   89SAPS  C214 8609   5.664   1.373   9.173  0.5135  0.8805 -0.7759
   89SAPS  H14R 8610   5.766   1.394   9.208  1.2835 -0.7989 -1.8492
   89SAPS  C215 8611   5.647   1.279   9.077  0.4677  0.0107  0.4295
   89SAPS  H15R 8612   5.740   1.241   9.032  1.1082 -0.3873  2.0320
   89SAPS  C216 8613   5.518   1.227   9.021  0.1522 -0.2658  0.2850
   89SAPS  H16R 8614   5.455   1.303   8.971  0.7924  2.1493  2.8843
   89SAPS  H16S 8615   5.470   1.190   9.114 -0.2231  0.5341  0.4135
   89SAPS  C217 8616   5.538   1.111   8.925 -0.7427 -0.6162 -0.1510
   89SAPS  H17R 8617   5.446   1.054   8.901 -0.1983 -2.0651  1.0606
   89SAPS  H17S 8618   5.613   1.039   8.965 -0.4221 -0.0665  0.2618
   89SAPS  C218 8619   5.589   1.149   8.785 -0.0936  0.0601 -0.5321
   89SAPS  H18R 8620   5.687   1.202   8.790 -0.0177  0.6170 -4.5469
   89SAPS  H18S 8621   5.514   1.216   8.739  0.2144  0.8034  0.0249
   89SAPS  C219 8622   5.600   1.028   8.698  0.2842 -0.4067  0.5758
   89SAPS  H19R 8623   5.494   1.000   8.682  0.1361  0.9490 -1.1008
   89SAPS  H19S 8624   5.643   0.939   8.749 -1.9445 -1.7666  0.1824
   89SAPS  C220 8625   5.662   1.052   8.562 -0.2209  0.3706  0.3362
   89SAPS  H20R 8626   5.603   1.130   8.509  0.5965  0.2484 -0.7987
   89SAPS  H20S 8627   5.650   0.962   8.497 -1.7997  0.6335  0.2386
   89SAPS  H20T 8628   5.756   1.111   8.557 -0.4323  0.6561 -0.3714
   89SAPS   C33 8629   6.224   0.844  10.228 -0.4131 -0.0033  0.3815
   89SAPS   H3X 8630   6.124   0.796  10.235  0.1418 -1.3451 -0.5578
   89SAPS   H3Y 8631   6.291   0.785  10.293 -0.1291 -0.8046 -0.6092
   89SAPS   C34 8632   6.274   0.848  10.081 -0.0130 -0.0330  0.3309
   89SAPS   H4X 8633   6.382   0.874  10.086  0.0147 -0.0656 -0.0817
   89SAPS   H4Y 8634   6.218   0.931  10.033  0.6228  0.4976  0.5018
   89SAPS   C35 8635   6.237   0.719  10.010 -0.4931 -0.0468  0.4259
   89SAPS   H5X 8636   6.133   0.729   9.973 -0.2469 -0.5865 -0.4488
   89SAPS   H5Y 8637   6.248   0.623  10.064  0.8759 -0.7594 -1.0108
   89SAPS   C36 8638   6.324   0.698   9.884  0.8066  1.1071  0.0149
   89SAPS   H6X 8639   6.425   0.663   9.915  0.4105 -0.3393 -0.2379
   89SAPS   H6Y 8640   6.329   0.798   9.836 -1.3655 -0.0981 -3.0574
   89SAPS   C37 8641   6.264   0.596   9.789  0.2458  0.6149 -0.2101
   89SAPS   H7X 8642   6.156   0.612   9.766 -0.2576 -1.1873  0.7655
   89SAPS   H7Y 8643   6.282   0.495   9.832  2.2966  1.0484  0.0661
   89SAPS   C38 8644   6.328   0.602   9.650  0.3411  0.3705  0.2798
   89SAPS   H8X 8645   6.304   0.509   9.593  0.2406  1.0340 -0.7902
   89SAPS   H8Y 8646   6.435   0.621   9.670  0.4567 -0.6512  0.7070
   89SAPS   C39 8647   6.287   0.710   9.554  0.2466 -0.2214 -0.3431
   89SAPS   H9X 8648   6.308   0.810   9.599 -0.8857 -0.3420  0.4889
   89SAPS   H9Y 8649   6.176   0.701   9.545  0.0296 -0.1858  1.8005
   89SAPS  C310 8650   6.363   0.697   9.419 -0.2380 -0.9505  0.5871
   89SAPS  H10X 8651   6.345   0.599   9.370  2.8626 -0.5931 -1.5555
   89SAPS  H10Y 8652   6.472   0.699   9.439 -0.1602 -1.4040  0.2228
   89SAPS  C311 8653   6.337   0.814   9.320  0.1186 -0.2599 -0.4217
   89SAPS  H11X 8654   6.367   0.906   9.374 -0.3217  0.5035 -1.4529
   89SAPS  H11Y 8655   6.228   0.822   9.301  0.3789 -0.7707 -2.4920
   89SAPS  C312 8656   6.399   0.783   9.186  0.3977 -0.4847  0.3376
   89SAPS  H12X 8657   6.369   0.679   9.161  0.3944 -0.7014  1.1906
   89SAPS  H12Y 8658   6.508   0.800   9.178 -0.0631  1.9976 -1.6109
   89SAPS  C313 8659   6.330   0.868   9.066 -0.6034  0.1159  0.0071
   89SAPS  H13X 8660   6.239   0.917   9.106 -0.5639  1.7666 -1.7740
   89SAPS  H13Y 8661   6.286   0.796   8.993 -0.9396  0.6612 -0.3340
   89SAPS  C314 8662   6.427   0.969   9.003 -0.3466  0.3096  0.9701
   89SAPS  H14X 8663   6.516   0.914   8.966 -1.6273 -0.0329 -1.8680
   89SAPS  H14Y 8664   6.459   1.038   9.084 -0.6084  0.0013  1.3421
   89SAPS  C315 8665   6.364   1.027   8.884  0.0436  0.1257  0.2676
   89SAPS  H15X 8666   6.273   1.080   8.918 -1.2316 -0.9781 -1.2748
   89SAPS  H15Y 8667   6.331   0.940   8.824  1.4030  0.5035 -1.1209
   89SAPS  C316 8668   6.457   1.113   8.791  0.0504  0.5384  0.2268
   89SAPS  H16X 8669   6.556   1.072   8.820  0.9597  2.2346 -0.3364
   89SAPS  H16Y 8670   6.454   1.223   8.806  2.3054  0.5518  1.1193
   89SAPS  C317 8671   6.452   1.080   8.642 -0.2189  0.0850 -0.2441
   89SAPS  H17X 8672   6.469   0.973   8.617 -2.3018 -0.6679  1.2499
   89SAPS  H17Y 8673   6.536   1.134   8.592 -1.8013  1.9472 -1.0095
   89SAPS  C318 8674   6.328   1.128   8.570  0.8595 -0.0441 -0.7412
   89SAPS  H18X 8675   6.250   1.081   8.634  2.2761 -0.7187  0.5512
   89SAPS  H18Y 8676   6.310   1.097   8.465 -3.1509 -0.7379 -0.0196
   89SAPS  H18Z 8677   6.307   1.237   8.577 -2.1163 -0.5147 -1.0529
   90SAPS     N 8678   2.165   3.513  11.070  0.2592  0.1552 -0.7521
   90SAPS   HN1 8679   2.175   3.483  10.971  3.1150 -0.4474 -0.3483
   90SAPS   HN2 8680   2.155   3.617  11.064 -1.6494  0.0791  0.2924
   90SAPS   HN3 8681   2.254   3.491  11.119 -0.8080  0.4005  1.4290
   90SAPS   C12 8682   2.041   3.456  11.129  0.0689 -0.3496  0.0403
   90SAPS  H12A 8683   2.069   3.354  11.152 -1.4713 -0.6054  0.9445
   90SAPS   C13 8684   1.992   3.509  11.263  0.9120 -0.1736  0.4382
   90SAPS  O13A 8685   2.061   3.594  11.321 -0.2466 -0.4856 -0.3813
   90SAPS  O13B 8686   1.885   3.458  11.311  0.1579  0.0177 -0.0652
   90SAPS   C11 8687   1.921   3.471  11.024  0.5468  0.2315  0.9826
   90SAPS  H11A 8688   1.907   3.579  11.002 -2.0680  0.2924  2.5546
   90SAPS  H11B 8689   1.835   3.418  11.070 -1.4651  0.6750 -1.9882
   90SAPS     P 8690   1.906   3.274  10.854  0.2066  0.3865  0.3141
   90SAPS   O13 8691   1.979   3.175  10.933 -0.2672  0.4768  0.1252
   90SAPS   O14 8692   1.759   3.272  10.873  0.6489  0.0869 -0.2311
   90SAPS   O12 8693   1.956   3.410  10.895 -0.5145  0.1828  0.6002
   90SAPS   O11 8694   1.943   3.272  10.702 -0.7580  0.1265  0.7461
   90SAPS    C1 8695   1.872   3.367  10.615  0.2696 -0.5087 -0.3465
   90SAPS    HA 8696   1.761   3.360  10.621 -0.0836  2.1536 -2.0131
   90SAPS    HB 8697   1.887   3.472  10.649  1.4489 -1.1489  1.1825
   90SAPS    C2 8698   1.920   3.359  10.466 -0.1967 -0.2782 -0.6805
   90SAPS    HS 8699   1.860   3.427  10.402 -0.1960  0.1653 -0.2119
   90SAPS   O21 8700   1.895   3.226  10.425  0.0363  0.1064  0.4882
   90SAPS   C21 8701   1.772   3.197  10.410 -0.0633  0.5341 -0.5513
   90SAPS   O22 8702   1.679   3.271  10.428 -0.2753 -0.1801  0.7346
   90SAPS   C22 8703   1.765   3.057  10.340  0.9075 -0.5609 -0.1482
   90SAPS   H2R 8704   1.828   2.984  10.396  2.6147 -0.2781 -1.6058
   90SAPS   H2S 8705   1.662   3.023  10.362  0.8018 -0.9637 -1.2395
   90SAPS    C3 8706   2.067   3.394  10.446  0.6407  0.4375 -0.1309
   90SAPS    HX 8707   2.137   3.315  10.481 -0.7331  0.7459  3.8748
   90SAPS    HY 8708   2.074   3.478  10.518 -1.7261  0.3290  0.2962
   90SAPS   O31 8709   2.093   3.450  10.319 -0.4496  0.4759  0.1296
   90SAPS   C31 8710   2.121   3.357  10.229 -0.3556  0.8973 -0.4063
   90SAPS   O32 8711   2.137   3.239  10.255  0.1484 -0.3731 -0.7733
   90SAPS   C32 8712   2.086   3.401  10.093  0.3265  0.0762  0.7202
   90SAPS   H2X 8713   1.992   3.460  10.099  0.7158  0.7527  0.3051
   90SAPS   H2Y 8714   2.067   3.312  10.029  2.3150 -0.1813  0.4323
   90SAPS   C23 8715   1.814   3.067  10.192  0.3166 -0.1859 -0.4662
   90SAPS   H3R 8716   1.802   2.963  10.154  0.9620 -0.2704 -0.4505
   90SAPS   H3S 8717   1.922   3.086  10.180  0.4983  0.8328  2.0974
   90SAPS   C24 8718   1.734   3.166  10.099 -0.3253 -0.2082  0.0998
   90SAPS   H4R 8719   1.759   3.269  10.133 -0.4130  0.1088 -0.7661
   90SAPS   H4S 8720   1.627   3.163  10.130  0.3760 -1.2088  2.6934
   90SAPS   C25 8721   1.761   3.136   9.953 -0.8529 -0.5995  0.3574
   90SAPS   H5R 8722   1.800   3.033   9.947  0.4422 -0.0726 -0.8471
   90SAPS   C26 8723   1.754   3.217   9.845 -0.0206  0.1615  0.4189
   90SAPS   H6R 8724   1.790   3.185   9.746 -1.2783  1.4597 -0.5162
   90SAPS   C27 8725   1.723   3.367   9.839  0.2376 -0.3080 -0.2195
   90SAPS   H7R 8726   1.805   3.430   9.799  0.3536  0.0529  0.5620
   90SAPS   H7S 8727   1.723   3.405   9.944  0.8692  0.0561 -0.3480
   90SAPS   C28 8728   1.594   3.392   9.762  1.2122  0.5479 -0.0677
   90SAPS   H8R 8729   1.516   3.425   9.833  0.8363  0.0208 -0.2297
   90SAPS   C29 8730   1.576   3.383   9.630 -0.4329 -0.5443 -0.1309
   90SAPS   H9R 8731   1.473   3.398   9.593  0.1670  0.3661 -1.4656
   90SAPS  C210 8732   1.679   3.356   9.527 -0.7169 -0.5805  0.6858
   90SAPS  H10R 8733   1.777   3.320   9.564 -0.5342 -2.4257 -1.3819
   90SAPS  H10S 8734   1.707   3.451   9.478 -1.1653  0.6556  2.7332
   90SAPS  C211 8735   1.624   3.255   9.424  0.1289 -0.8102 -0.8934
   90SAPS  H11R 8736   1.623   3.152   9.463 -0.4012  0.2821  2.2898
   90SAPS  C212 8737   1.589   3.277   9.297 -0.4210  0.0445 -1.0307
   90SAPS  H12R 8738   1.566   3.185   9.241 -0.5359  0.1512 -1.1559
   90SAPS  C213 8739   1.593   3.406   9.217  0.3737 -0.4245 -0.6092
   90SAPS  H13R 8740   1.676   3.400   9.143 -0.3452  0.4197 -1.5205
   90SAPS  H13S 8741   1.604   3.495   9.282 -0.1632 -0.9377  0.2006
   90SAPS  C214 8742   1.463   3.417   9.141  0.3176  0.0272  0.1826
   90SAPS  H14R 8743   1.389   3.476   9.197  0.5911 -0.3455  0.9579
   90SAPS  C215 8744   1.436   3.360   9.024  0.4063  0.3693  0.4220
   90SAPS  H15R 8745   1.331   3.373   8.992  0.3911 -0.7968 -0.0539
   90SAPS  C216 8746   1.521   3.265   8.940 -0.0448 -0.1455  0.4058
   90SAPS  H16R 8747   1.465   3.169   8.937 -2.9700  1.4592 -0.7987
   90SAPS  H16S 8748   1.620   3.247   8.986  0.5093  2.4361  0.3591
   90SAPS  C217 8749   1.531   3.319   8.798 -0.1231  0.4317 -0.0641
   90SAPS  H17R 8750   1.585   3.415   8.796 -0.1215  0.4515  0.6180
   90SAPS  H17S 8751   1.425   3.329   8.765 -0.0770  0.3413 -0.2365
   90SAPS  C218 8752   1.609   3.214   8.716  0.1510 -0.4761  0.0422
   90SAPS  H18R 8753   1.587   3.107   8.734 -0.4065 -0.3724 -0.0146
   90SAPS  H18S 8754   1.712   3.225   8.755 -0.6218 -1.7339  2.6753
   90SAPS  C219 8755   1.604   3.232   8.566  1.0311 -1.0281  0.0082
   90SAPS  H19R 8756   1.640   3.333   8.538 -3.5005  1.0328  0.7868
   90SAPS  H19S 8757   1.496   3.249   8.550  1.3366  1.1291 -0.1032
   90SAPS  C220 8758   1.677   3.124   8.490  0.0688  0.1917 -0.7081
   90SAPS  H20R 8759   1.624   3.026   8.493 -1.9659  1.2496  1.9704
   90SAPS  H20S 8760   1.779   3.108   8.531  0.1912  1.4393 -0.4805
   90SAPS  H20T 8761   1.681   3.149   8.382 -0.3580  2.1080 -0.3043
   90SAPS   C33 8762   2.187   3.489  10.013 -0.5250  0.0121  0.0636
   90SAPS   H3X 8763   2.288   3.442  10.010  0.5730  2.1794  0.4221
   90SAPS   H3Y 8764   2.203   3.585  10.066  0.3660 -0.2139  0.2236
   90SAPS   C34 8765   2.131   3.522   9.873 -0.2488 -0.2553 -0.4718
   90SAPS   H4X 8766   2.192   3.604   9.830 -1.9665  2.3807  1.7506
   90SAPS   H4Y 8767   2.029   3.560   9.897 -0.6415 -1.8582  0.5306
   90SAPS   C35 8768   2.122   3.408   9.779 -0.2632 -0.0345  0.2001
   90SAPS   H5X 8769   2.050   3.327   9.805 -0.3157 -0.3859 -1.0007
   90SAPS   H5Y 8770   2.220   3.358   9.758  0.2568  0.9394  0.2344
   90SAPS   C36 8771   2.080   3.463   9.643 -0.1579 -0.4311  0.0716
   90SAPS   H6X 8772   2.167   3.527   9.617 -1.7034  2.4795  1.5586
   90SAPS   H6Y 8773   1.995   3.534   9.650 -2.4322 -2.8159 -1.5545
   90SAPS   C37 8774   2.050   3.358   9.537 -0.3144  0.2916  0.7719
   90SAPS   H7X 8775   1.967   3.295   9.575 -1.0825  0.5734 -0.3815
   90SAPS   H7Y 8776   2.139   3.293   9.518  0.8695  1.8784  0.7227
   90SAPS   C38 8777   2.030   3.429   9.402  0.5230  0.2518 -0.4880
   90SAPS   H8X 8778   1.939   3.491   9.417 -0.6959 -1.1522 -1.7047
   90SAPS   H8Y 8779   1.994   3.352   9.330 -0.6592 -1.4276  1.7927
   90SAPS   C39 8780   2.156   3.482   9.339 -0.6242 -0.3479  0.2069
   90SAPS   H9X 8781   2.230   3.400   9.321  1.4231  1.7188 -1.4896
   90SAPS   H9Y 8782   2.202   3.554   9.409  1.8179 -1.0665 -0.5548
   90SAPS  C310 8783   2.138   3.544   9.203 -0.6703  0.0117  0.5869
   90SAPS  H10X 8784   2.094   3.646   9.204 -0.9169 -0.0184 -1.9336
   90SAPS  H10Y 8785   2.067   3.481   9.147  0.0208 -0.0295 -0.2641
   90SAPS  C311 8786   2.267   3.564   9.114  0.1634 -0.2002  0.8321
   90SAPS  H11X 8787   2.329   3.472   9.114  2.0002  0.9165 -1.9183
   90SAPS  H11Y 8788   2.340   3.638   9.152 -0.1244  1.0933 -1.0083
   90SAPS  C312 8789   2.222   3.592   8.974  0.1317  0.5283  0.4905
   90SAPS  H12X 8790   2.157   3.682   8.969 -2.0083 -0.9823 -2.4035
   90SAPS  H12Y 8791   2.149   3.516   8.939 -0.0223  1.1294 -0.5601
   90SAPS  C313 8792   2.327   3.599   8.868  0.4892  1.0054 -0.2345
   90SAPS  H13X 8793   2.374   3.498   8.872 -0.3287  0.5954 -0.5897
   90SAPS  H13Y 8794   2.390   3.686   8.894 -0.7162  1.8536 -0.0613
   90SAPS  C314 8795   2.271   3.639   8.727  0.0884  0.5009 -0.1264
   90SAPS  H14X 8796   2.250   3.748   8.717 -1.5851  0.0030 -3.4403
   90SAPS  H14Y 8797   2.173   3.587   8.721 -0.5660  0.9532  3.9100
   90SAPS  C315 8798   2.359   3.586   8.613  0.1417  0.0404  0.1613
   90SAPS  H15X 8799   2.331   3.628   8.514 -1.9260  0.3231  0.8360
   90SAPS  H15Y 8800   2.337   3.478   8.600 -1.0616  0.3692 -0.7189
   90SAPS  C316 8801   2.513   3.603   8.633  1.0594  0.1378  0.8321
   90SAPS  H16X 8802   2.545   3.560   8.730  1.5880 -1.1578  0.1200
   90SAPS  H16Y 8803   2.512   3.714   8.630 -1.9532  0.1811 -2.0939
   90SAPS  C317 8804   2.593   3.557   8.510  0.1833 -0.4832 -0.0442
   90SAPS  H17X 8805   2.575   3.616   8.418 -1.0275 -0.6628  0.0666
   90SAPS  H17Y 8806   2.553   3.456   8.486 -1.7859  0.2875 -0.1386
   90SAPS  C318 8807   2.735   3.556   8.549  0.4217 -0.2223  0.4389
   90SAPS  H18X 8808   2.751   3.600   8.650 -0.2985  2.5134 -0.5434
   90SAPS  H18Y 8809   2.794   3.620   8.479 -1.2523  1.5897  0.6219
   90SAPS  H18Z 8810   2.779   3.455   8.536  0.5694 -0.1480  0.3535
   91SAPS     N 8811   1.396   2.396   6.046  0.6596  0.0625  0.5440
   91SAPS   HN1 8812   1.325   2.470   6.031  0.4330  0.6556  3.8720
   91SAPS   HN2 8813   1.380   2.378   6.147  1.3733 -0.3820  0.5882
   91SAPS   HN3 8814   1.487   2.444   6.034  0.0585  1.0938  0.0443
   91SAPS   C12 8815   1.368   2.285   5.948 -0.6347  0.9049  0.1546
   91SAPS  H12A 8816   1.266   2.249   5.945 -0.9023  1.6542  0.0102
   91SAPS   C13 8817   1.394   2.330   5.803 -0.8691  0.1995 -0.2192
   91SAPS  O13A 8818   1.403   2.452   5.767 -0.0288  0.0752  0.0136
   91SAPS  O13B 8819   1.381   2.242   5.713  0.3662 -0.0221  0.6284
   91SAPS   C11 8820   1.478   2.175   5.968 -0.1833 -0.6587 -0.0056
   91SAPS  H11A 8821   1.579   2.221   5.962  0.5647 -1.7161  2.6887
   91SAPS  H11B 8822   1.473   2.088   5.899  0.9989 -1.1637  0.5201
   91SAPS     P 8823   1.395   1.975   6.135 -0.0689 -0.5214  0.1122
   91SAPS   O13 8824   1.254   1.999   6.112  0.1679 -0.1625  0.6667
   91SAPS   O14 8825   1.466   1.863   6.066 -0.2182 -0.2919  0.5117
   91SAPS   O12 8826   1.470   2.116   6.101 -0.1561 -0.1992 -0.6419
   91SAPS   O11 8827   1.430   1.951   6.289  0.3564 -0.3218 -0.1640
   91SAPS    C1 8828   1.478   2.053   6.373 -0.1532  1.4268 -0.1795
   91SAPS    HA 8829   1.460   2.151   6.324  1.5369  1.0755 -1.6144
   91SAPS    HB 8830   1.432   2.049   6.473  0.9502  2.7599  0.4138
   91SAPS    C2 8831   1.629   2.037   6.376 -0.6099  0.0875 -0.1200
   91SAPS    HS 8832   1.663   2.019   6.271  1.4213  0.3473  0.4370
   91SAPS   O21 8833   1.667   1.938   6.469 -0.1816  0.3069  0.6171
   91SAPS   C21 8834   1.797   1.902   6.455  1.1544 -0.2077  0.1641
   91SAPS   O22 8835   1.873   1.938   6.366  0.2611 -0.0046  0.6902
   91SAPS   C22 8836   1.835   1.820   6.567 -0.4353  0.7619 -0.6322
   91SAPS   H2R 8837   1.759   1.833   6.648  0.4994 -1.7766  0.7572
   91SAPS   H2S 8838   1.832   1.713   6.537  1.6534  0.1207  1.2330
   91SAPS    C3 8839   1.704   2.167   6.424  0.4801  0.3369  0.3411
   91SAPS    HX 8840   1.665   2.242   6.351  0.6356  2.0378  1.9221
   91SAPS    HY 8841   1.814   2.165   6.408  0.5041 -0.2425  0.5522
   91SAPS   O31 8842   1.660   2.216   6.553  0.4729  0.5543  0.7095
   91SAPS   C31 8843   1.748   2.225   6.645 -0.6577 -0.2557 -0.0608
   91SAPS   O32 8844   1.871   2.210   6.626 -0.1376  0.2034  0.3938
   91SAPS   C32 8845   1.676   2.278   6.772 -0.3481  0.4332  0.8296
   91SAPS   H2X 8846   1.568   2.289   6.750 -0.4287 -2.6138 -0.8029
   91SAPS   H2Y 8847   1.727   2.374   6.794  0.0346  0.6005 -0.7025
   91SAPS   C23 8848   1.987   1.827   6.604  0.2233  0.3225  0.7839
   91SAPS   H3R 8849   2.013   1.920   6.659  0.1654 -0.6273  2.4638
   91SAPS   H3S 8850   2.050   1.824   6.512  0.5867  1.8859  0.9452
   91SAPS   C24 8851   2.028   1.703   6.688 -0.2458 -0.3716  0.0867
   91SAPS   H4R 8852   2.029   1.612   6.624 -1.1079  0.0976 -0.6252
   91SAPS   H4S 8853   1.944   1.686   6.759 -1.2838  1.6946 -0.5594
   91SAPS   C25 8854   2.166   1.707   6.742  0.3227  0.8805  0.7273
   91SAPS   H5R 8855   2.243   1.678   6.669 -1.6638 -3.5241  0.0500
   91SAPS   C26 8856   2.190   1.728   6.872  0.4746  0.4337  0.5357
   91SAPS   H6R 8857   2.294   1.724   6.909  0.9003 -0.4461 -0.7032
   91SAPS   C27 8858   2.081   1.761   6.967  0.0231  0.2516 -0.6959
   91SAPS   H7R 8859   1.993   1.694   6.966 -0.5575  0.9976 -1.1810
   91SAPS   H7S 8860   2.038   1.863   6.953 -0.5790  0.3075  1.2492
   91SAPS   C28 8861   2.128   1.753   7.103 -0.5910 -0.5525  0.3055
   91SAPS   H8R 8862   2.220   1.694   7.118 -0.3635 -1.0903 -2.5858
   91SAPS   C29 8863   2.087   1.822   7.210  0.2958 -0.2042 -0.3766
   91SAPS   H9R 8864   2.143   1.803   7.302  1.0589 -2.5122 -1.2463
   91SAPS  C210 8865   1.972   1.921   7.204  0.3490  0.1485  0.0519
   91SAPS  H10R 8866   1.971   1.982   7.111 -0.1038  0.1744  0.0729
   91SAPS  H10S 8867   2.007   1.994   7.280  1.4291 -1.5570  1.2525
   91SAPS  C211 8868   1.836   1.865   7.222 -0.2240  0.4485  0.0729
   91SAPS  H11R 8869   1.768   1.872   7.136 -0.5134  0.3494  0.2918
   91SAPS  C212 8870   1.784   1.822   7.338  0.0553  0.4657 -0.1535
   91SAPS  H12R 8871   1.682   1.779   7.333  1.2089 -2.3895 -1.7897
   91SAPS  C213 8872   1.859   1.815   7.470  0.8571 -0.5255 -0.1225
   91SAPS  H13R 8873   1.968   1.823   7.454  0.6906  0.4711 -0.9008
   91SAPS  H13S 8874   1.830   1.717   7.515  0.8851 -0.5207 -0.0947
   91SAPS  C214 8875   1.809   1.915   7.575  0.0254  0.3279  0.6249
   91SAPS  H14R 8876   1.700   1.917   7.584 -0.1399  0.2898 -1.1020
   91SAPS  C215 8877   1.887   1.985   7.658  0.0931  0.0186  0.1546
   91SAPS  H15R 8878   1.833   2.057   7.722  1.0359  1.4308 -0.5718
   91SAPS  C216 8879   2.036   1.990   7.666  0.5737 -0.0486  0.1612
   91SAPS  H16R 8880   2.071   1.964   7.564  0.3020  0.1805  0.0079
   91SAPS  H16S 8881   2.078   1.918   7.739  2.8590 -0.5384 -1.5220
   91SAPS  C217 8882   2.085   2.129   7.706 -0.4483 -0.0663 -0.2595
   91SAPS  H17R 8883   2.038   2.201   7.637  0.6318 -1.0940 -2.1516
   91SAPS  H17S 8884   2.189   2.139   7.669 -0.3400  1.9320  0.4688
   91SAPS  C218 8885   2.077   2.171   7.854  0.4415 -0.6725 -0.1457
   91SAPS  H18R 8886   2.122   2.090   7.915  2.4628  0.0381 -0.5992
   91SAPS  H18S 8887   1.972   2.191   7.886 -0.0772 -3.0033 -0.2532
   91SAPS  C219 8888   2.156   2.301   7.865  0.1237 -0.8623  0.9493
   91SAPS  H19R 8889   2.118   2.368   7.785  1.0167 -1.8118 -0.3177
   91SAPS  H19S 8890   2.263   2.280   7.842  0.3944  0.7348  0.6729
   91SAPS  C220 8891   2.141   2.365   8.007 -0.2494  0.3501  0.6061
   91SAPS  H20R 8892   2.188   2.462   8.033  0.4684 -0.1865  1.3633
   91SAPS  H20S 8893   2.175   2.293   8.084 -2.7598  1.7813  3.2392
   91SAPS  H20T 8894   2.036   2.389   8.033 -0.8599 -0.2337 -1.1389
   91SAPS   C33 8895   1.696   2.181   6.896 -1.1335  0.4036 -0.6338
   91SAPS   H3X 8896   1.683   2.243   6.987  0.0499  0.4581 -0.4821
   91SAPS   H3Y 8897   1.796   2.132   6.899 -0.3911  1.8996  1.5493
   91SAPS   C34 8898   1.591   2.071   6.914 -0.0045  0.5174 -0.0022
   91SAPS   H4X 8899   1.486   2.105   6.898 -0.3962  0.1891  1.6254
   91SAPS   H4Y 8900   1.589   2.041   7.021 -0.2621  0.8006  0.0748
   91SAPS   C35 8901   1.610   1.947   6.832  0.1438 -0.1133  0.5590
   91SAPS   H5X 8902   1.706   1.901   6.866  0.5247 -0.5061 -0.9550
   91SAPS   H5Y 8903   1.607   1.981   6.726 -2.2730 -0.4789  0.4508
   91SAPS   C36 8904   1.491   1.853   6.841 -0.1032 -0.4976  0.5940
   91SAPS   H6X 8905   1.479   1.795   6.748  2.1320  1.6758 -1.1890
   91SAPS   H6Y 8906   1.396   1.907   6.862 -0.7773 -2.0817  1.8512
   91SAPS   C37 8907   1.484   1.760   6.958  0.4283  0.6123 -0.0235
   91SAPS   H7X 8908   1.463   1.818   7.051  2.0765  0.0151  0.7638
   91SAPS   H7Y 8909   1.582   1.712   6.978 -0.4480 -0.9276  0.8255
   91SAPS   C38 8910   1.389   1.644   6.932  0.2503 -0.4959 -0.1415
   91SAPS   H8X 8911   1.417   1.583   6.844  1.0015  0.5371 -0.6412
   91SAPS   H8Y 8912   1.286   1.684   6.918 -0.1669 -0.6462  2.1337
   91SAPS   C39 8913   1.389   1.562   7.057  0.8023  0.2796 -0.0249
   91SAPS   H9X 8914   1.495   1.547   7.087  0.8559  1.2637  0.3184
   91SAPS   H9Y 8915   1.345   1.466   7.020 -1.9542  1.1634  0.7329
   91SAPS  C310 8916   1.302   1.608   7.178  0.1415  0.2581 -0.2583
   91SAPS  H10X 8917   1.199   1.567   7.173  0.1948  0.1899 -0.9833
   91SAPS  H10Y 8918   1.295   1.718   7.182  0.1026  0.2193  0.9397
   91SAPS  C311 8919   1.361   1.566   7.313 -0.4718  1.1774  0.5561
   91SAPS  H11X 8920   1.462   1.611   7.321  1.2097 -2.4078  1.5905
   91SAPS  H11Y 8921   1.370   1.456   7.307  0.9153  1.3508 -1.6139
   91SAPS  C312 8922   1.273   1.598   7.435  0.3909  0.3885  0.3518
   91SAPS  H12X 8923   1.182   1.536   7.419  0.5526  0.5672 -1.4565
   91SAPS  H12Y 8924   1.228   1.700   7.431 -0.7961 -0.0563  1.3816
   91SAPS  C313 8925   1.340   1.578   7.575 -0.0265  0.7826 -0.3316
   91SAPS  H13X 8926   1.424   1.649   7.584  0.2091  0.6489 -1.4121
   91SAPS  H13Y 8927   1.380   1.475   7.590 -1.4015  0.1795 -0.6434
   91SAPS  C314 8928   1.245   1.610   7.691 -0.4722 -0.4137 -0.2675
   91SAPS  H14X 8929   1.154   1.547   7.696 -2.2787  2.1745  2.0568
   91SAPS  H14Y 8930   1.219   1.717   7.688 -1.1246 -0.5756 -0.5221
   91SAPS  C315 8931   1.307   1.576   7.828  0.8229 -0.4041  0.1721
   91SAPS  H15X 8932   1.383   1.656   7.845 -0.8891  0.9543  1.8345
   91SAPS  H15Y 8933   1.354   1.476   7.823 -0.3202 -1.0204  1.1524
   91SAPS  C316 8934   1.196   1.588   7.938  0.6521 -0.4348  0.2891
   91SAPS  H16X 8935   1.130   1.503   7.914 -1.8372  1.3212  0.5464
   91SAPS  H16Y 8936   1.146   1.687   7.926 -1.1299 -1.2505  0.6742
   91SAPS  C317 8937   1.227   1.564   8.080 -0.3342 -0.0378 -0.0221
   91SAPS  H17X 8938   1.286   1.654   8.109 -1.5109  1.4871 -2.0686
   91SAPS  H17Y 8939   1.302   1.483   8.077  0.2959  0.4984  0.7550
   91SAPS  C318 8940   1.108   1.541   8.180  0.1263 -0.1202 -0.5166
   91SAPS  H18X 8941   1.145   1.536   8.284 -0.7228  1.7146 -0.0936
   91SAPS  H18Y 8942   1.039   1.459   8.150 -1.5019  0.7756  0.6115
   91SAPS  H18Z 8943   1.047   1.634   8.181  0.1400 -0.1171 -0.0080
   92SAPS     N 8944   1.242   6.465   6.402  0.3866 -0.4284  0.1141
   92SAPS   HN1 8945   1.217   6.438   6.499 -0.4237  0.1879  0.0863
   92SAPS   HN2 8946   1.274   6.390   6.337 -1.0079  0.5018 -1.7294
   92SAPS   HN3 8947   1.319   6.536   6.407 -0.3133  0.5388 -1.8479
   92SAPS   C12 8948   1.131   6.541   6.324 -0.3578  0.0001 -0.1368
   92SAPS  H12A 8949   1.094   6.617   6.392 -1.6815 -1.2610  0.6251
   92SAPS   C13 8950   1.176   6.612   6.191  0.2844  0.1158  0.3416
   92SAPS  O13A 8951   1.292   6.622   6.160 -0.5118 -0.3877 -0.3637
   92SAPS  O13B 8952   1.092   6.667   6.114 -0.0388  0.3385  0.1600
   92SAPS   C11 8953   1.005   6.444   6.305  0.1447  0.3885  0.7639
   92SAPS  H11A 8954   1.030   6.368   6.228  2.3115  2.1899 -0.4594
   92SAPS  H11B 8955   0.925   6.502   6.256  0.9851  0.9624  0.0416
   92SAPS     P 8956   0.809   6.370   6.458  0.2519 -0.1338 -0.7035
   92SAPS   O13 8957   0.753   6.501   6.415  0.3851 -0.2533 -0.4903
   92SAPS   O14 8958   0.750   6.251   6.393  0.0991  0.0244 -0.1978
   92SAPS   O12 8959   0.961   6.383   6.426 -0.5104 -0.4994 -0.5954
   92SAPS   O11 8960   0.810   6.358   6.620  0.6820 -0.2451 -0.2236
   92SAPS    C1 8961   0.798   6.231   6.682  0.4249 -0.1568  0.5447
   92SAPS    HA 8962   0.854   6.155   6.623 -0.2500  1.1136 -1.8595
   92SAPS    HB 8963   0.845   6.242   6.782  0.9924  0.7595  0.1960
   92SAPS    C2 8964   0.650   6.183   6.704 -0.0573 -1.2967  0.1051
   92SAPS    HS 8965   0.596   6.181   6.607 -0.5050  0.4836  0.2791
   92SAPS   O21 8966   0.579   6.271   6.791  0.1133  0.8346 -0.2288
   92SAPS   C21 8967   0.457   6.241   6.823 -0.6676  0.0486 -0.4381
   92SAPS   O22 8968   0.386   6.155   6.766 -0.4967  0.0991  0.0692
   92SAPS   C22 8969   0.403   6.336   6.930  0.0002  0.3205  0.1651
   92SAPS   H2R 8970   0.319   6.287   6.983  0.6307  0.0050  0.9053
   92SAPS   H2S 8971   0.488   6.360   6.998 -0.9652  0.7501  1.2463
   92SAPS    C3 8972   0.660   6.030   6.745  0.2428 -0.2608  0.0545
   92SAPS    HX 8973   0.729   5.976   6.676 -1.9416 -1.8039 -1.0723
   92SAPS    HY 8974   0.558   5.985   6.745 -0.4055  1.1317  1.0097
   92SAPS   O31 8975   0.717   6.027   6.878 -0.3006 -0.0835 -0.5874
   92SAPS   C31 8976   0.769   5.909   6.922  0.6678 -0.5967 -0.7067
   92SAPS   O32 8977   0.771   5.804   6.862 -0.6095 -0.3099 -0.1465
   92SAPS   C32 8978   0.821   5.926   7.066 -0.3910 -0.3173 -0.7774
   92SAPS   H2X 8979   0.733   5.961   7.124 -0.3565  0.1818 -1.0203
   92SAPS   H2Y 8980   0.903   6.001   7.060  1.8398 -2.5902 -0.8100
   92SAPS   C23 8981   0.362   6.476   6.874 -0.3081  0.2950  0.1060
   92SAPS   H3R 8982   0.279   6.457   6.803  0.0273  1.6364 -0.6775
   92SAPS   H3S 8983   0.450   6.516   6.818  1.0264 -3.4388 -0.7339
   92SAPS   C24 8984   0.316   6.581   6.968 -0.2189  0.1216  0.0124
   92SAPS   H4R 8985   0.294   6.671   6.908  0.3183 -0.0641 -0.4760
   92SAPS   H4S 8986   0.400   6.610   7.034  1.0620  0.4375 -1.6868
   92SAPS   C25 8987   0.202   6.536   7.054  0.4018  0.1368  0.6078
   92SAPS   H5R 8988   0.107   6.536   6.998 -0.9389  1.6251  2.7340
   92SAPS   C26 8989   0.201   6.495   7.183 -0.1489 -1.3210  0.1436
   92SAPS   H6R 8990   0.109   6.469   7.237 -0.8760  0.4735 -0.1762
   92SAPS   C27 8991   0.313   6.500   7.281 -0.0206  0.3292  0.0401
   92SAPS   H7R 8992   0.307   6.603   7.322 -0.2749  1.0628 -1.7455
   92SAPS   H7S 8993   0.412   6.499   7.230 -0.6445 -1.9464 -1.2467
   92SAPS   C28 8994   0.316   6.384   7.375  0.3183 -0.1873  0.1845
   92SAPS   H8R 8995   0.357   6.291   7.333  1.6805  0.8853 -0.9880
   92SAPS   C29 8996   0.300   6.391   7.506 -0.4321 -0.0873  0.4352
   92SAPS   H9R 8997   0.296   6.299   7.566  1.9616  0.7763  2.0745
   92SAPS  C210 8998   0.271   6.520   7.583 -0.8857 -0.3051 -0.1074
   92SAPS  H10R 8999   0.230   6.589   7.505 -1.7463  1.7736  2.0482
   92SAPS  H10S 9000   0.358   6.581   7.613 -1.8037  1.0653 -0.1081
   92SAPS  C211 9001   0.159   6.517   7.689 -0.6123  0.3563  0.0021
   92SAPS  H11R 9002   0.074   6.585   7.669 -0.0220  0.5571 -2.0294
   92SAPS  C212 9003   0.164   6.451   7.810  1.0248 -0.5003 -0.4413
   92SAPS  H12R 9004   0.085   6.472   7.884  0.9490 -1.8407 -0.1064
   92SAPS  C213 9005   0.285   6.374   7.850 -0.2927  0.2190 -0.4480
   92SAPS  H13R 9006   0.331   6.417   7.942  1.1377 -0.8412 -0.6373
   92SAPS  H13S 9007   0.367   6.379   7.774  0.0185  2.7550 -0.0178
   92SAPS  C214 9008   0.266   6.223   7.874 -0.6038 -0.5174 -0.0222
   92SAPS  H14R 9009   0.194   6.164   7.814 -1.5064  1.3019 -0.8056
   92SAPS  C215 9010   0.336   6.146   7.960 -0.3783  0.1853  0.1471
   92SAPS  H15R 9011   0.314   6.039   7.950  0.2370  0.2407 -2.6379
   92SAPS  C216 9012   0.444   6.197   8.056  0.5001  0.7569  0.0752
   92SAPS  H16R 9013   0.409   6.281   8.120 -0.0829  0.1837  0.5229
   92SAPS  H16S 9014   0.534   6.227   7.998  0.6195  2.1458  0.9298
   92SAPS  C217 9015   0.475   6.082   8.153 -0.2537 -0.0879  0.0232
   92SAPS  H17R 9016   0.529   6.007   8.093 -2.2326 -2.1158  0.6567
   92SAPS  H17S 9017   0.392   6.027   8.203  0.3632  0.3421  1.6088
   92SAPS  C218 9018   0.570   6.119   8.273  0.7727 -0.4763 -0.0045
   92SAPS  H18R 9019   0.657   6.180   8.241  0.6313 -0.1491  0.2240
   92SAPS  H18S 9020   0.610   6.025   8.318 -1.4265 -2.0176 -1.0751
   92SAPS  C219 9021   0.490   6.207   8.374 -0.5686 -0.6421  0.6460
   92SAPS  H19R 9022   0.390   6.170   8.405 -0.8712  0.0557  0.5289
   92SAPS  H19S 9023   0.478   6.305   8.322 -2.1593 -2.3124 -2.4016
   92SAPS  C220 9024   0.579   6.228   8.493  0.0405  0.1367  0.5107
   92SAPS  H20R 9025   0.603   6.129   8.537  0.8995 -0.5152 -1.3323
   92SAPS  H20S 9026   0.520   6.289   8.565 -0.7577  0.2350 -0.2139
   92SAPS  H20T 9027   0.670   6.282   8.459  0.0753 -1.0563 -1.3834
   92SAPS   C33 9028   0.882   5.798   7.123  0.2698 -0.2923 -0.3612
   92SAPS   H3X 9029   0.923   5.736   7.040  1.0019 -1.2991  0.7129
   92SAPS   H3Y 9030   0.809   5.740   7.185  1.2028 -0.4043  0.6712
   92SAPS   C34 9031   0.993   5.825   7.221 -0.9582  0.8642  0.2851
   92SAPS   H4X 9032   1.077   5.879   7.172 -1.5979  1.4549 -0.1846
   92SAPS   H4Y 9033   1.034   5.731   7.263  4.8554  1.6205 -2.5754
   92SAPS   C35 9034   0.951   5.914   7.344 -0.8362  0.4077  0.1543
   92SAPS   H5X 9035   0.849   5.879   7.373 -0.9543  0.3061 -0.3713
   92SAPS   H5Y 9036   0.938   6.018   7.306 -0.6817  0.9629  1.5587
   92SAPS   C36 9037   1.050   5.914   7.452 -0.8487  0.2476 -0.4892
   92SAPS   H6X 9038   1.142   5.970   7.427  0.5406 -1.2274  1.0189
   92SAPS   H6Y 9039   1.067   5.805   7.462 -2.0598 -0.0150 -1.0407
   92SAPS   C37 9040   0.991   5.976   7.575  0.5123 -0.2622 -0.0604
   92SAPS   H7X 9041   0.909   6.047   7.549  1.9048  1.6465  0.4860
   92SAPS   H7Y 9042   1.065   6.046   7.619 -1.1853  1.4590  0.2060
   92SAPS   C38 9043   0.941   5.871   7.678  0.2416  0.1536 -0.0265
   92SAPS   H8X 9044   1.028   5.808   7.708  0.7239  0.6175 -0.4275
   92SAPS   H8Y 9045   0.872   5.802   7.625  2.3002 -1.3255 -0.9172
   92SAPS   C39 9046   0.865   5.924   7.801  0.3021 -0.1255  0.4266
   92SAPS   H9X 9047   0.818   5.843   7.861  2.3777 -0.9785  1.0069
   92SAPS   H9Y 9048   0.789   5.994   7.761  2.3129  1.7065 -0.3827
   92SAPS  C310 9049   0.947   6.009   7.909 -0.2549 -0.2176 -0.5277
   92SAPS  H10X 9050   0.871   6.061   7.970  2.1788  3.5204 -0.3726
   92SAPS  H10Y 9051   1.005   6.094   7.867 -1.7716  1.6098  0.9067
   92SAPS  C311 9052   1.049   5.927   7.985  0.7454  0.3030  0.1131
   92SAPS  H11X 9053   1.124   5.887   7.913  0.2857 -0.4733  0.0534
   92SAPS  H11Y 9054   0.991   5.841   8.023 -1.2359  0.1508 -2.8920
   92SAPS  C312 9055   1.107   5.997   8.103 -0.2129  0.6748  0.9187
   92SAPS  H12X 9056   1.158   6.092   8.075 -0.5297  0.8601  0.9647
   92SAPS  H12Y 9057   1.187   5.933   8.146  0.2954  1.2061  0.7882
   92SAPS  C313 9058   1.010   6.039   8.211  0.1474 -0.7001 -0.5190
   92SAPS  H13X 9059   0.954   5.958   8.262 -3.4706  2.8290  1.7247
   92SAPS  H13Y 9060   0.933   6.111   8.178 -1.2006 -0.9425  1.9051
   92SAPS  C314 9061   1.076   6.099   8.335  0.1715  0.3078 -0.6909
   92SAPS  H14X 9062   1.132   6.192   8.311  1.8153  0.4794  2.9932
   92SAPS  H14Y 9063   1.145   6.022   8.376 -2.4447  0.1839  4.2217
   92SAPS  C315 9064   0.977   6.111   8.444  0.4276 -0.0842 -0.1552
   92SAPS  H15X 9065   0.948   6.016   8.494  1.1977 -0.1228  0.2354
   92SAPS  H15Y 9066   0.882   6.147   8.401  0.9401  2.8949  0.9492
   92SAPS  C316 9067   1.031   6.207   8.541 -0.0839  0.0868 -0.0238
   92SAPS  H16X 9068   1.085   6.297   8.502 -1.7154  0.6021 -1.1958
   92SAPS  H16Y 9069   1.100   6.151   8.608 -2.2026 -3.2281 -0.3884
   92SAPS  C317 9070   0.923   6.271   8.631 -0.6778 -0.2657  0.4196
   92SAPS  H17X 9071   0.868   6.343   8.567  2.4721  0.2351 -1.9554
   92SAPS  H17Y 9072   0.975   6.336   8.705  2.0283 -0.6301 -1.0114
   92SAPS  C318 9073   0.840   6.164   8.702 -0.2353 -0.0151 -0.0758
   92SAPS  H18X 9074   0.783   6.212   8.785  2.0696 -0.7553  2.0550
   92SAPS  H18Y 9075   0.914   6.108   8.764  0.5253  0.9453 -0.0942
   92SAPS  H18Z 9076   0.774   6.106   8.634  0.4985 -0.1261 -0.6998
   93SAPS     N 9077   6.264   6.698   6.573 -0.7475  0.4941 -0.6811
   93SAPS   HN1 9078   6.170   6.731   6.604 -2.6469 -1.9447 -3.3297
   93SAPS   HN2 9079   6.272   6.609   6.627 -1.5960 -0.5723 -2.2074
   93SAPS   HN3 9080   6.342   6.760   6.601 -0.3394  0.2209 -1.2028
   93SAPS   C12 9081   6.262   6.688   6.431 -0.6043 -0.0394 -0.3827
   93SAPS  H12A 9082   6.166   6.648   6.401 -1.5944  1.5493  0.5056
   93SAPS   C13 9083   6.260   6.825   6.365 -0.8329  0.2099 -0.4512
   93SAPS  O13A 9084   6.279   6.933   6.426 -0.1699  0.2370 -0.2336
   93SAPS  O13B 9085   6.257   6.824   6.237  0.1257  0.0711 -0.2916
   93SAPS   C11 9086   6.381   6.600   6.385  0.8245  0.2680 -0.1552
   93SAPS  H11A 9087   6.468   6.652   6.430 -0.6231  1.3592  1.4923
   93SAPS  H11B 9088   6.380   6.602   6.274  0.6916  2.2407 -0.1584
   93SAPS     P 9089   6.308   6.352   6.355 -0.0922  0.1906  0.3882
   93SAPS   O13 9090   6.161   6.361   6.364 -0.7802  0.2507 -0.3973
   93SAPS   O14 9091   6.369   6.363   6.217  0.4992  0.0486 -0.0925
   93SAPS   O12 9092   6.373   6.470   6.433 -0.0820 -0.3478  0.7461
   93SAPS   O11 9093   6.364   6.229   6.422  0.2840 -0.0410  0.1187
   93SAPS    C1 9094   6.292   6.150   6.519 -0.5938  0.0892 -0.2643
   93SAPS    HA 9095   6.190   6.120   6.489 -1.4420  2.6260 -0.2079
   93SAPS    HB 9096   6.350   6.061   6.550 -0.0244 -0.7630 -3.4023
   93SAPS    C2 9097   6.268   6.227   6.649  0.6743 -0.0594  0.3109
   93SAPS    HS 9098   6.197   6.310   6.629 -0.9300 -1.4532 -0.0140
   93SAPS   O21 9099   6.389   6.275   6.702 -0.6434 -0.2611  0.1536
   93SAPS   C21 9100   6.380   6.391   6.765 -0.1356 -0.3309 -0.2103
   93SAPS   O22 9101   6.296   6.479   6.744  0.5028 -0.4967 -0.3284
   93SAPS   C22 9102   6.479   6.398   6.869 -1.0330  0.4250 -0.5290
   93SAPS   H2R 9103   6.488   6.298   6.918  3.9515  0.8473 -0.0607
   93SAPS   H2S 9104   6.581   6.422   6.833  0.0157  1.8265  2.9781
   93SAPS    C3 9105   6.196   6.138   6.751 -0.0543  0.1084  0.3051
   93SAPS    HX 9106   6.244   6.039   6.767 -0.7017 -0.0483  1.3289
   93SAPS    HY 9107   6.093   6.119   6.714  1.1635 -0.7864 -2.9913
   93SAPS   O31 9108   6.189   6.207   6.875 -0.2028 -0.2708 -0.4247
   93SAPS   C31 9109   6.139   6.136   6.976 -0.5891 -0.1706 -0.3332
   93SAPS   O32 9110   6.128   6.015   6.984 -0.1550 -0.0299  0.8168
   93SAPS   C32 9111   6.108   6.238   7.098  0.7260 -0.1894 -0.7698
   93SAPS   H2X 9112   6.013   6.294   7.082 -1.4985 -2.2938  3.4564
   93SAPS   H2Y 9113   6.191   6.312   7.098 -0.3152  1.0245 -0.2854
   93SAPS   C23 9114   6.440   6.510   6.973  0.3158  0.8131 -0.3808
   93SAPS   H3R 9115   6.334   6.499   7.005  0.5905 -1.6879 -0.1410
   93SAPS   H3S 9116   6.443   6.608   6.921  1.4382  0.0395 -1.8514
   93SAPS   C24 9117   6.534   6.504   7.099  0.5345 -0.8914  0.2894
   93SAPS   H4R 9118   6.634   6.543   7.069 -0.6794  2.0107 -0.3525
   93SAPS   H4S 9119   6.551   6.401   7.135  1.1044 -0.7150  0.5305
   93SAPS   C25 9120   6.485   6.598   7.207  0.1067  0.0439  0.0421
   93SAPS   H5R 9121   6.427   6.681   7.164  1.5567  1.0017 -0.1483
   93SAPS   C26 9122   6.503   6.586   7.343 -0.4561  0.5125 -0.2975
   93SAPS   H6R 9123   6.453   6.668   7.397 -0.8453  0.7131 -0.9428
   93SAPS   C27 9124   6.587   6.482   7.422  1.2764  0.1574  0.3517
   93SAPS   H7R 9125   6.667   6.532   7.481  1.5961  0.5811 -0.4344
   93SAPS   H7S 9126   6.641   6.411   7.355 -0.7927 -1.2181  0.0630
   93SAPS   C28 9127   6.499   6.389   7.503 -0.3382  0.8591  0.1430
   93SAPS   H8R 9128   6.445   6.314   7.444  1.0419 -2.2735  2.5761
   93SAPS   C29 9129   6.489   6.390   7.634 -0.6116 -0.2431 -0.2836
   93SAPS   H9R 9130   6.425   6.311   7.678 -0.0231  0.0106  1.0713
   93SAPS  C210 9131   6.550   6.478   7.741 -0.4094  0.2704 -0.6335
   93SAPS  H10R 9132   6.641   6.522   7.695 -0.5417 -0.3742 -1.5428
   93SAPS  H10S 9133   6.574   6.416   7.831 -0.6871 -0.3915 -1.0052
   93SAPS  C211 9134   6.460   6.593   7.764 -0.0553 -0.5600 -0.6661
   93SAPS  H11R 9135   6.475   6.677   7.694 -0.3060 -0.9509 -1.2003
   93SAPS  C212 9136   6.392   6.619   7.875 -0.3501  0.5630 -0.3293
   93SAPS  H12R 9137   6.327   6.708   7.875  0.5628  1.2627 -1.7222
   93SAPS  C213 9138   6.376   6.529   7.992  0.2498  0.2135 -0.3919
   93SAPS  H13R 9139   6.420   6.431   7.961 -0.7156  0.2260 -1.9289
   93SAPS  H13S 9140   6.267   6.513   8.007 -0.0769  1.7159 -0.9833
   93SAPS  C214 9141   6.429   6.586   8.121 -0.7501  0.4135  0.4284
   93SAPS  H14R 9142   6.373   6.675   8.154 -1.7388  0.4707 -1.2851
   93SAPS  C215 9143   6.547   6.557   8.181 -0.4523  0.5206 -0.0606
   93SAPS  H15R 9144   6.564   6.605   8.278 -0.2784  1.6785 -0.6527
   93SAPS  C216 9145   6.643   6.450   8.137 -0.3979 -0.2388  0.1165
   93SAPS  H16R 9146   6.656   6.436   8.028 -2.5148  0.2498 -0.2540
   93SAPS  H16S 9147   6.611   6.355   8.184 -0.8527  0.7110  1.8162
   93SAPS  C217 9148   6.790   6.464   8.199 -0.7895  0.3863  0.4789
   93SAPS  H17R 9149   6.859   6.380   8.177  0.8138  1.2191  1.9926
   93SAPS  H17S 9150   6.784   6.451   8.309  0.4650 -0.1984  0.4940
   93SAPS  C218 9151   6.869   6.590   8.156  0.2777 -0.1423  0.0567
   93SAPS  H18R 9152   6.851   6.684   8.213  2.9403 -0.0354  0.8470
   93SAPS  H18S 9153   6.846   6.605   8.049  1.0652  0.1377 -0.0796
   93SAPS  C219 9154   7.020   6.573   8.175 -0.1151  0.4510 -0.2052
   93SAPS  H19R 9155   7.048   6.473   8.134  2.9438  0.4519  1.6027
   93SAPS  H19S 9156   7.044   6.568   8.283  2.4983 -0.0919 -0.7364
   93SAPS  C220 9157   7.102   6.682   8.106 -0.1443 -0.3362 -0.2346
   93SAPS  H20R 9158   7.211   6.661   8.117  0.2722  0.5896 -2.2123
   93SAPS  H20S 9159   7.072   6.782   8.142  1.3812  0.3127 -0.6716
   93SAPS  H20T 9160   7.089   6.673   7.996  0.3555  1.1177 -0.4302
   93SAPS   C33 9161   6.079   6.169   7.238  0.0317  0.4285  0.7510
   93SAPS   H3X 9162   6.114   6.241   7.314  1.5285 -0.3627  0.8453
   93SAPS   H3Y 9163   6.131   6.070   7.246 -0.9278  0.0502  2.9979
   93SAPS   C34 9164   5.925   6.140   7.264  0.2998  0.7516 -0.5912
   93SAPS   H4X 9165   5.913   6.033   7.237  0.4896  0.5867 -0.0221
   93SAPS   H4Y 9166   5.866   6.202   7.192  1.7516  2.4502 -0.3827
   93SAPS   C35 9167   5.888   6.149   7.412 -0.4200 -0.1336  0.1294
   93SAPS   H5X 9168   5.792   6.203   7.426 -0.7504 -0.8883  0.9343
   93SAPS   H5Y 9169   5.964   6.212   7.462 -0.0747 -0.2068 -0.2994
   93SAPS   C36 9170   5.871   6.018   7.493  0.2830  0.2268  0.3506
   93SAPS   H6X 9171   5.945   5.945   7.453  1.1524  0.4610  1.4782
   93SAPS   H6Y 9172   5.768   5.985   7.465  0.5689  1.4967 -2.4662
   93SAPS   C37 9173   5.866   6.024   7.650  0.5230  0.0696 -0.1820
   93SAPS   H7X 9174   5.969   6.018   7.692  1.1547  1.4018 -1.4530
   93SAPS   H7Y 9175   5.816   5.930   7.681 -0.1744  0.7671  0.8742
   93SAPS   C38 9176   5.796   6.148   7.688 -0.0487  0.6028 -0.1090
   93SAPS   H8X 9177   5.706   6.153   7.623 -1.9312 -1.1798  2.2065
   93SAPS   H8Y 9178   5.856   6.242   7.679 -3.3326  2.9815  1.0690
   93SAPS   C39 9179   5.750   6.127   7.834 -0.1917  0.2225 -0.2771
   93SAPS   H9X 9180   5.701   6.028   7.829  1.0882 -0.4024 -0.9227
   93SAPS   H9Y 9181   5.674   6.203   7.860 -2.5256 -1.9769 -0.2957
   93SAPS  C310 9182   5.860   6.121   7.941  0.4497 -0.4796  0.2606
   93SAPS  H10X 9183   5.913   6.219   7.934  2.4995 -1.6107 -1.4222
   93SAPS  H10Y 9184   5.942   6.052   7.909  0.1434 -0.9220  0.4206
   93SAPS  C311 9185   5.804   6.103   8.079  0.6852  0.0615  0.2781
   93SAPS  H11X 9186   5.755   6.005   8.094  0.5694  0.0635 -0.0670
   93SAPS  H11Y 9187   5.719   6.171   8.103 -0.1311  0.2023 -2.6177
   93SAPS  C312 9188   5.907   6.108   8.189  0.3415 -0.6417  0.5327
   93SAPS  H12X 9189   5.936   6.215   8.199  0.8320 -0.7672  0.4705
   93SAPS  H12Y 9190   5.995   6.044   8.164  0.0084 -1.3253  1.0638
   93SAPS  C313 9191   5.856   6.059   8.322  0.3286 -0.7579 -0.0149
   93SAPS  H13X 9192   5.824   5.954   8.306 -0.7937 -0.7257  1.7407
   93SAPS  H13Y 9193   5.770   6.128   8.341  1.6607  0.1907  3.3084
   93SAPS  C314 9194   5.959   6.068   8.428 -0.4901  0.1954 -0.6194
   93SAPS  H14X 9195   5.971   6.172   8.464 -3.5932 -0.1163  1.7130
   93SAPS  H14Y 9196   6.060   6.034   8.395  0.6634 -0.0920  2.7761
   93SAPS  C315 9197   5.929   5.989   8.552  0.2967 -0.5346 -0.4112
   93SAPS  H15X 9198   5.913   5.881   8.532  2.3122 -1.0929  0.7900
   93SAPS  H15Y 9199   5.832   6.023   8.595  0.4911  0.1428 -0.4916
   93SAPS  C316 9200   6.043   6.000   8.661 -0.6165  0.0916  0.2210
   93SAPS  H16X 9201   5.988   6.024   8.755 -2.0008  0.7762 -0.7220
   93SAPS  H16Y 9202   6.108   6.085   8.632 -1.5974 -0.0643 -2.8004
   93SAPS  C317 9203   6.123   5.859   8.674  0.4356 -0.2518 -0.4972
   93SAPS  H17X 9204   6.045   5.780   8.683  0.4691 -0.0592  2.1855
   93SAPS  H17Y 9205   6.186   5.875   8.764  1.7601  1.8143 -1.7245
   93SAPS  C318 9206   6.212   5.830   8.554 -0.0491  0.9087 -0.3877
   93SAPS  H18X 9207   6.141   5.835   8.468  0.8602 -1.0087 -1.3109
   93SAPS  H18Y 9208   6.253   5.727   8.556 -1.0328  0.5009  1.9100
   93SAPS  H18Z 9209   6.292   5.906   8.566  0.6141  0.2382 -0.4710
   94SAPS     N 9210   6.505   2.546   6.167 -0.1935 -0.3590  0.9624
   94SAPS   HN1 9211   6.560   2.517   6.251  0.0713  0.7050  1.1762
   94SAPS   HN2 9212   6.447   2.627   6.198  0.6132  1.0457 -0.9497
   94SAPS   HN3 9213   6.442   2.466   6.148  1.1714 -1.8750  2.4810
   94SAPS   C12 9214   6.577   2.603   6.051  0.4463 -0.3855  0.3610
   94SAPS  H12A 9215   6.639   2.529   6.001 -0.7686 -0.5992 -0.9004
   94SAPS   C13 9216   6.476   2.653   5.943 -0.0494 -0.2030  0.0781
   94SAPS  O13A 9217   6.353   2.650   5.956  0.4327  0.7002 -0.4902
   94SAPS  O13B 9218   6.523   2.673   5.826 -0.2837  0.1140 -0.7317
   94SAPS   C11 9219   6.668   2.715   6.107  0.1841 -0.8028  0.3345
   94SAPS  H11A 9220   6.736   2.678   6.186  2.0605  3.0674  0.7496
   94SAPS  H11B 9221   6.610   2.790   6.166  2.4035  0.8268  0.5481
   94SAPS     P 9222   6.848   2.895   6.041  0.2797  0.5060  0.3211
   94SAPS   O13 9223   6.945   2.898   5.928  0.0468  0.0874  0.2346
   94SAPS   O14 9224   6.786   3.032   6.072 -0.6312 -0.1375  0.1463
   94SAPS   O12 9225   6.739   2.784   6.004  0.1726  0.0553 -0.0917
   94SAPS   O11 9226   6.918   2.853   6.177 -0.2513 -0.3212 -0.5030
   94SAPS    C1 9227   6.999   2.739   6.180 -0.3425  0.3754 -0.3477
   94SAPS    HA 9228   6.942   2.648   6.153  0.4920 -1.0880  2.4282
   94SAPS    HB 9229   7.085   2.753   6.110  1.4839 -2.0452  1.2406
   94SAPS    C2 9230   7.060   2.726   6.323 -0.2570  0.2892  0.8913
   94SAPS    HS 9231   7.133   2.643   6.317 -0.0500  0.4417  1.2508
   94SAPS   O21 9232   6.960   2.711   6.420 -0.0926  0.3600 -0.3403
   94SAPS   C21 9233   6.908   2.596   6.448 -0.0003  0.1437 -0.2286
   94SAPS   O22 9234   6.940   2.495   6.388 -0.0194 -0.3250 -0.0951
   94SAPS   C22 9235   6.806   2.613   6.554  0.0183 -0.3757 -0.2945
   94SAPS   H2R 9236   6.722   2.673   6.511  0.8414  1.1715  0.2026
   94SAPS   H2S 9237   6.762   2.513   6.576  1.2194 -0.5665  1.3753
   94SAPS    C3 9238   7.146   2.843   6.363 -0.6373 -0.9403 -0.6257
   94SAPS    HX 9239   7.075   2.926   6.379 -0.1112 -0.1001 -2.3800
   94SAPS    HY 9240   7.214   2.878   6.282  1.2110  1.1714  1.6903
   94SAPS   O31 9241   7.224   2.808   6.477  0.0122  0.1054  0.5195
   94SAPS   C31 9242   7.248   2.920   6.546  0.1383  0.0200 -1.0350
   94SAPS   O32 9243   7.244   3.036   6.505 -0.3931 -0.0053 -0.6384
   94SAPS   C32 9244   7.283   2.883   6.689  0.6417 -0.3746  0.3957
   94SAPS   H2X 9245   7.367   2.946   6.726  0.2930  0.0221  0.5217
   94SAPS   H2Y 9246   7.321   2.779   6.692 -0.0800 -0.6242  1.1220
   94SAPS   C23 9247   6.837   2.655   6.697 -0.3984  0.0339  0.1923
   94SAPS   H3R 9248   6.889   2.752   6.705  0.3317 -0.3718  0.4818
   94SAPS   H3S 9249   6.903   2.576   6.739 -0.7408  0.3335  1.3193
   94SAPS   C24 9250   6.716   2.677   6.790 -0.2072 -0.3644 -0.0788
   94SAPS   H4R 9251   6.660   2.760   6.741  0.8691  0.1189 -0.5023
   94SAPS   H4S 9252   6.762   2.714   6.884 -4.1953  0.7353  1.6542
   94SAPS   C25 9253   6.633   2.550   6.803  0.3073 -0.5651  0.2341
   94SAPS   H5R 9254   6.551   2.547   6.730  0.1604 -1.1444  0.4187
   94SAPS   C26 9255   6.640   2.450   6.892  0.6100 -0.3166  0.2203
   94SAPS   H6R 9256   6.561   2.374   6.878 -1.1725  1.9476 -3.7394
   94SAPS   C27 9257   6.734   2.441   7.016 -0.5144 -1.0272 -0.2588
   94SAPS   H7R 9258   6.771   2.544   7.038 -4.6019  0.2747  1.6130
   94SAPS   H7S 9259   6.822   2.379   6.989  0.2842 -0.9301  1.9519
   94SAPS   C28 9260   6.672   2.381   7.135  0.1671  0.1180  0.3767
   94SAPS   H8R 9261   6.564   2.401   7.143  0.4501  1.9722  0.0623
   94SAPS   C29 9262   6.732   2.318   7.240 -0.2240  0.0811 -0.2257
   94SAPS   H9R 9263   6.669   2.278   7.320 -0.6487 -1.1415 -1.1289
   94SAPS  C210 9264   6.882   2.304   7.250 -0.1619 -0.9086 -0.0881
   94SAPS  H10R 9265   6.925   2.398   7.290 -1.9046 -0.5610  1.0695
   94SAPS  H10S 9266   6.926   2.281   7.151  0.1903 -1.5936  0.2169
   94SAPS  C211 9267   6.919   2.197   7.343 -0.3395 -0.1677 -0.2030
   94SAPS  H11R 9268   6.976   2.114   7.298 -0.5835 -0.3642 -0.1521
   94SAPS  C212 9269   6.906   2.193   7.476 -1.1440 -0.0800 -0.4460
   94SAPS  H12R 9270   6.938   2.102   7.528 -3.5406 -0.3368  0.7154
   94SAPS  C213 9271   6.849   2.295   7.562  0.3971 -0.1932  0.0443
   94SAPS  H13R 9272   6.819   2.386   7.505  0.4664  0.3058  0.7818
   94SAPS  H13S 9273   6.930   2.322   7.634 -0.1774 -0.4771  0.8112
   94SAPS  C214 9274   6.729   2.244   7.644 -0.2890 -0.1423  0.1174
   94SAPS  H14R 9275   6.629   2.283   7.621 -0.9404 -1.3601  0.7819
   94SAPS  C215 9276   6.735   2.179   7.760  0.1276  0.2470 -0.1158
   94SAPS  H15R 9277   6.642   2.173   7.818 -0.4633 -0.2764 -1.0993
   94SAPS  C216 9278   6.874   2.139   7.818 -0.1256 -0.1784 -1.1791
   94SAPS  H16R 9279   6.937   2.217   7.867 -0.0097 -0.1990 -1.2962
   94SAPS  H16S 9280   6.939   2.104   7.736 -0.9444  1.3437 -2.5272
   94SAPS  C217 9281   6.848   2.023   7.916  0.0105  0.2777  0.3073
   94SAPS  H17R 9282   6.944   1.974   7.940 -0.3643 -0.8394 -0.4282
   94SAPS  H17S 9283   6.782   1.951   7.864 -1.4812  0.9917  1.1187
   94SAPS  C218 9284   6.778   2.066   8.056 -0.3119  0.5606 -0.2908
   94SAPS  H18R 9285   6.722   2.160   8.036 -0.1780  0.5831 -0.5652
   94SAPS  H18S 9286   6.857   2.107   8.122 -0.9289  0.1835  0.7082
   94SAPS  C219 9287   6.711   1.956   8.138 -0.2723 -0.2184  0.4175
   94SAPS  H19R 9288   6.623   1.923   8.078 -0.8089  1.8291 -0.0097
   94SAPS  H19S 9289   6.661   1.993   8.230 -0.6305  0.2823  0.0240
   94SAPS  C220 9290   6.806   1.839   8.189  0.2367 -0.2834  0.6766
   94SAPS  H20R 9291   6.885   1.878   8.255  0.8264  0.2991 -0.3455
   94SAPS  H20S 9292   6.855   1.795   8.100 -0.6154 -0.6825  0.3889
   94SAPS  H20T 9293   6.755   1.755   8.241 -1.3771 -0.7382 -1.4865
   94SAPS   C33 9294   7.162   2.908   6.782 -0.1732  0.7559  0.3258
   94SAPS   H3X 9295   7.082   2.838   6.751  1.5196 -2.0330  1.8279
   94SAPS   H3Y 9296   7.122   3.011   6.774 -0.8431  0.7428  2.7569
   94SAPS   C34 9297   7.200   2.885   6.930 -0.6288  0.4673  0.2392
   94SAPS   H4X 9298   7.240   2.980   6.970 -0.3688  0.1871  0.6631
   94SAPS   H4Y 9299   7.280   2.811   6.953  0.4578  1.8695  1.1475
   94SAPS   C35 9300   7.083   2.829   7.014  0.1633 -0.0895 -0.1648
   94SAPS   H5X 9301   7.077   2.720   6.997  0.9182  0.0087 -1.0868
   94SAPS   H5Y 9302   6.985   2.874   6.985  1.2839  1.5028 -1.7077
   94SAPS   C36 9303   7.090   2.861   7.164 -0.0486  0.5660  0.1096
   94SAPS   H6X 9304   7.089   2.969   7.189 -1.7040  0.8723 -1.0729
   94SAPS   H6Y 9305   7.186   2.816   7.195 -0.9200 -3.1206 -1.9670
   94SAPS   C37 9306   6.972   2.789   7.234 -0.1680  0.1131 -0.4889
   94SAPS   H7X 9307   6.939   2.704   7.171  2.3712  0.6859 -2.7797
   94SAPS   H7Y 9308   6.887   2.860   7.242  0.8693  1.5586 -1.7589
   94SAPS   C38 9309   7.018   2.747   7.381 -0.0612 -0.5356 -0.4769
   94SAPS   H8X 9310   7.057   2.836   7.436  0.4120 -2.0133  1.7125
   94SAPS   H8Y 9311   7.104   2.677   7.374  1.1908  0.7678  1.0031
   94SAPS   C39 9312   6.911   2.702   7.477  0.0026  0.2599 -0.2466
   94SAPS   H9X 9313   6.874   2.603   7.443  1.6308 -0.5734  0.2506
   94SAPS   H9Y 9314   6.825   2.772   7.485  0.5509  0.9370 -0.1584
   94SAPS  C310 9315   6.966   2.663   7.616  0.0936  0.3234 -0.2906
   94SAPS  H10X 9316   7.023   2.750   7.657  1.4488 -0.2456 -0.9039
   94SAPS  H10Y 9317   7.045   2.585   7.608 -1.7607 -1.4740 -2.3175
   94SAPS  C311 9318   6.862   2.613   7.717 -0.0733  0.1314 -0.3337
   94SAPS  H11X 9319   6.807   2.534   7.661 -1.6730  1.3550 -0.5638
   94SAPS  H11Y 9320   6.788   2.693   7.738 -0.2429 -0.1989  0.3539
   94SAPS  C312 9321   6.927   2.572   7.857  0.5875 -0.1525 -0.4801
   94SAPS  H12X 9322   7.018   2.510   7.838  1.1062 -0.6902  3.0915
   94SAPS  H12Y 9323   6.856   2.509   7.915 -3.0854  1.2703 -3.0507
   94SAPS  C313 9324   6.961   2.695   7.938 -0.9037 -0.0587 -0.2557
   94SAPS  H13X 9325   6.873   2.764   7.938 -0.9403 -0.0949 -1.0046
   94SAPS  H13Y 9326   7.041   2.749   7.884 -1.4607 -0.8268 -1.9344
   94SAPS  C314 9327   7.016   2.659   8.073 -0.0888 -0.2655 -0.4513
   94SAPS  H14X 9328   7.068   2.746   8.120  0.4147  1.0274 -3.2102
   94SAPS  H14Y 9329   7.089   2.579   8.051 -1.1076 -0.8819 -1.6917
   94SAPS  C315 9330   6.911   2.620   8.170 -0.4639  0.0469  0.7167
   94SAPS  H15X 9331   6.868   2.523   8.138  0.7425  0.1613 -1.4626
   94SAPS  H15Y 9332   6.828   2.695   8.170  0.8331  1.5358  0.4149
   94SAPS  C316 9333   6.960   2.610   8.315  0.5247  0.2532  0.2817
   94SAPS  H16X 9334   6.881   2.552   8.368 -1.4375 -1.9862 -4.5445
   94SAPS  H16Y 9335   6.987   2.704   8.368  1.3736  0.4984 -0.5559
   94SAPS  C317 9336   7.094   2.527   8.326 -0.1542  0.0685 -0.7945
   94SAPS  H17X 9337   7.177   2.591   8.290  0.4003  0.1817  0.6279
   94SAPS  H17Y 9338   7.087   2.430   8.273  0.6836 -0.9037  0.7713
   94SAPS  C318 9339   7.125   2.491   8.475  0.0994  0.5179  0.3092
   94SAPS  H18X 9340   7.129   2.584   8.535  0.8009 -0.3926  1.7150
   94SAPS  H18Y 9341   7.224   2.443   8.490  0.3774  0.0430 -2.4928
   94SAPS  H18Z 9342   7.036   2.437   8.516  0.7329  1.2774  2.8022
   95SAPS     N 9343   4.101   6.775   5.996 -0.0802  0.3485  0.6933
   95SAPS   HN1 9344   4.008   6.728   5.989 -0.4420  0.7360  2.3627
   95SAPS   HN2 9345   4.119   6.825   5.907  1.1795  0.0631  0.7701
   95SAPS   HN3 9346   4.170   6.698   6.010 -2.3109 -2.1887 -1.2986
   95SAPS   C12 9347   4.110   6.865   6.118 -0.1206  0.1203 -0.0154
   95SAPS  H12A 9348   4.211   6.903   6.127  0.0500 -0.6777  1.9505
   95SAPS   C13 9349   4.010   6.977   6.117 -0.5645 -0.3528 -0.4317
   95SAPS  O13A 9350   3.943   6.999   6.014 -0.5604  0.3919 -0.3033
   95SAPS  O13B 9351   4.007   7.047   6.220 -0.4545 -0.9103 -0.3132
   95SAPS   C11 9352   4.091   6.758   6.230 -0.4937  0.0202 -0.3976
   95SAPS  H11A 9353   3.989   6.714   6.234 -0.4708 -0.0645 -0.7416
   95SAPS  H11B 9354   4.099   6.816   6.325 -0.7103  2.7483 -1.9370
   95SAPS     P 9355   4.307   6.634   6.332  0.1232  0.2365 -0.0602
   95SAPS   O13 9356   4.316   6.491   6.365 -0.2475 -0.1537  0.5848
   95SAPS   O14 9357   4.427   6.687   6.270  0.5823  0.1699  0.2197
   95SAPS   O12 9358   4.190   6.652   6.229 -0.3941 -0.4281  0.2599
   95SAPS   O11 9359   4.265   6.715   6.468  0.1685  0.3650 -0.0393
   95SAPS    C1 9360   4.370   6.745   6.557  0.4031  0.6169  0.0859
   95SAPS    HA 9361   4.428   6.651   6.570 -0.9265  0.0037  2.0294
   95SAPS    HB 9362   4.432   6.824   6.509  1.2108  0.5106  0.9291
   95SAPS    C2 9363   4.330   6.783   6.705  0.6221  0.0222 -0.1946
   95SAPS    HS 9364   4.421   6.785   6.768  1.2856  0.0232 -1.1356
   95SAPS   O21 9365   4.220   6.693   6.754 -0.3522  0.7755 -0.1305
   95SAPS   C21 9366   4.270   6.581   6.810 -0.2804  0.9056  0.0582
   95SAPS   O22 9367   4.388   6.545   6.808 -0.1738 -0.4766  0.7536
   95SAPS   C22 9368   4.154   6.505   6.889  0.3610 -0.2621  0.4507
   95SAPS   H2R 9369   4.084   6.583   6.927 -1.0122 -0.5895 -1.2546
   95SAPS   H2S 9370   4.092   6.450   6.815  0.3462  0.9725 -0.4849
   95SAPS    C3 9371   4.266   6.922   6.710  0.2363 -0.4577  0.1110
   95SAPS    HX 9372   4.170   6.910   6.655 -0.0425 -1.4287  0.7647
   95SAPS    HY 9373   4.335   6.989   6.654 -1.5966  0.9047 -0.6052
   95SAPS   O31 9374   4.237   6.958   6.852 -0.5757 -0.4895  0.1950
   95SAPS   C31 9375   4.192   7.084   6.866 -0.2917  0.4868 -0.7251
   95SAPS   O32 9376   4.185   7.163   6.773  0.2045  1.1195  0.2380
   95SAPS   C32 9377   4.171   7.109   7.018  0.0708  0.2549 -0.2803
   95SAPS   H2X 9378   4.252   7.058   7.074 -0.3372 -0.8828 -0.7068
   95SAPS   H2Y 9379   4.079   7.056   7.053  1.3482 -1.0994  1.2013
   95SAPS   C23 9380   4.202   6.410   6.988  0.2463 -0.1301  0.4930
   95SAPS   H3R 9381   4.294   6.358   6.956 -0.1298 -0.6954  0.3085
   95SAPS   H3S 9382   4.120   6.338   7.010 -0.3987  0.7214  0.9438
   95SAPS   C24 9383   4.230   6.488   7.122 -0.1426 -0.3993 -0.4195
   95SAPS   H4R 9384   4.147   6.559   7.138  1.3968  1.2667  0.5482
   95SAPS   H4S 9385   4.311   6.564   7.119  0.0882 -0.6701 -1.3763
   95SAPS   C25 9386   4.240   6.381   7.229 -0.3761 -0.0641  0.6532
   95SAPS   H5R 9387   4.244   6.278   7.191  1.2961 -0.7836  2.5824
   95SAPS   C26 9388   4.232   6.387   7.357  0.7157 -0.5621  0.2603
   95SAPS   H6R 9389   4.230   6.292   7.412 -3.3875 -0.7855  0.0511
   95SAPS   C27 9390   4.220   6.511   7.438  0.1530 -0.6912  0.0407
   95SAPS   H7R 9391   4.176   6.591   7.374 -1.3474  0.1693  2.0270
   95SAPS   H7S 9392   4.320   6.555   7.462  0.6154 -0.8475 -1.5347
   95SAPS   C28 9393   4.140   6.491   7.562 -0.2070  0.1565  0.3313
   95SAPS   H8R 9394   4.036   6.526   7.552 -0.5477 -1.3154 -1.9709
   95SAPS   C29 9395   4.185   6.431   7.675  0.2975 -0.1515  0.3689
   95SAPS   H9R 9396   4.119   6.426   7.763 -0.2274 -0.5952 -0.0469
   95SAPS  C210 9397   4.331   6.392   7.686 -0.0793 -0.3601 -0.0939
   95SAPS  H10R 9398   4.386   6.484   7.714 -0.8474 -0.7778  3.1227
   95SAPS  H10S 9399   4.371   6.353   7.590 -1.5814 -2.6393  0.1269
   95SAPS  C211 9400   4.354   6.293   7.798  0.2506  0.3160  0.3911
   95SAPS  H11R 9401   4.358   6.191   7.757  0.7991  0.1323  0.8926
   95SAPS  C212 9402   4.369   6.321   7.927  0.0879  0.2258 -0.3921
   95SAPS  H12R 9403   4.408   6.243   7.994  0.7954  1.2875  0.4770
   95SAPS  C213 9404   4.357   6.456   7.991  0.2290 -0.4543  0.0078
   95SAPS  H13R 9405   4.266   6.459   8.056  0.0835 -1.0653 -0.1549
   95SAPS  H13S 9406   4.350   6.537   7.916  0.2956 -0.4723 -0.0175
   95SAPS  C214 9407   4.475   6.494   8.073 -0.0980  0.0570  0.5817
   95SAPS  H14R 9408   4.563   6.541   8.027 -0.4887  1.6742  1.4379
   95SAPS  C215 9409   4.474   6.483   8.210 -0.1874  0.7764  0.9159
   95SAPS  H15R 9410   4.566   6.518   8.261  0.0075  0.2125  0.9560
   95SAPS  C216 9411   4.358   6.431   8.293  0.2890 -0.9750  0.0252
   95SAPS  H16R 9412   4.312   6.353   8.230 -0.7975  1.1965 -2.0303
   95SAPS  H16S 9413   4.289   6.517   8.307  3.6167  2.3309 -1.8303
   95SAPS  C217 9414   4.398   6.365   8.428  1.1036  0.5333 -0.6693
   95SAPS  H17R 9415   4.497   6.315   8.420  0.7164 -0.0813 -1.7327
   95SAPS  H17S 9416   4.321   6.296   8.467  0.2084  2.6381  1.5388
   95SAPS  C218 9417   4.405   6.478   8.529 -0.0073 -0.1089 -0.2129
   95SAPS  H18R 9418   4.302   6.520   8.535  0.2842  0.9015 -1.6865
   95SAPS  H18S 9419   4.466   6.562   8.490  0.9198 -1.1223 -0.9918
   95SAPS  C219 9420   4.463   6.438   8.670  0.6788  0.0602 -0.5662
   95SAPS  H19R 9421   4.564   6.396   8.654 -0.0644 -1.0493 -2.7005
   95SAPS  H19S 9422   4.391   6.359   8.703  0.4511  0.8291  0.8422
   95SAPS  C220 9423   4.467   6.546   8.776  0.6262 -0.0482 -0.3290
   95SAPS  H20R 9424   4.498   6.503   8.873  0.8321 -0.3856 -0.5416
   95SAPS  H20S 9425   4.373   6.606   8.779  0.9893  0.6986 -2.1951
   95SAPS  H20T 9426   4.552   6.614   8.754  0.1714  0.6402  0.0223
   95SAPS   C33 9427   4.159   7.254   7.062 -0.1703 -0.7756 -0.4571
   95SAPS   H3X 9428   4.092   7.314   6.997  0.0910  1.5164  1.2544
   95SAPS   H3Y 9429   4.255   7.309   7.053 -0.9821  0.7341 -0.2121
   95SAPS   C34 9430   4.128   7.271   7.210  0.9296 -0.1221  0.4922
   95SAPS   H4X 9431   4.034   7.221   7.242 -0.3817  1.6640 -0.4646
   95SAPS   H4Y 9432   4.101   7.376   7.232  0.7428 -0.3466  1.3761
   95SAPS   C35 9433   4.239   7.247   7.314  0.4355 -0.6938 -0.2228
   95SAPS   H5X 9434   4.340   7.267   7.272 -0.0706  0.6981 -0.8161
   95SAPS   H5Y 9435   4.245   7.141   7.348  1.2958 -0.6970 -0.3563
   95SAPS   C36 9436   4.222   7.329   7.443  0.0549 -0.4475 -0.7515
   95SAPS   H6X 9437   4.129   7.302   7.497 -1.1830  1.8714 -1.5907
   95SAPS   H6Y 9438   4.217   7.439   7.424  1.8301  0.1694  1.8089
   95SAPS   C37 9439   4.339   7.310   7.537 -0.9784 -0.1498 -0.0026
   95SAPS   H7X 9440   4.432   7.341   7.486 -1.4203  1.1737 -0.0248
   95SAPS   H7Y 9441   4.362   7.204   7.563  4.5748  0.6917 -0.2791
   95SAPS   C38 9442   4.330   7.385   7.672 -0.0436  0.4987 -0.1580
   95SAPS   H8X 9443   4.294   7.487   7.646  0.8813  0.3745 -2.1284
   95SAPS   H8Y 9444   4.433   7.410   7.706 -0.3830 -0.1111  1.4048
   95SAPS   C39 9445   4.268   7.303   7.791 -0.1373 -0.2863 -0.1503
   95SAPS   H9X 9446   4.332   7.215   7.814 -0.7645 -0.4998  0.8516
   95SAPS   H9Y 9447   4.164   7.269   7.773 -1.1461  1.5050  1.8876
   95SAPS  C310 9448   4.271   7.400   7.914 -0.8286  0.1094  0.3821
   95SAPS  H10X 9449   4.234   7.497   7.874 -2.6297  0.1530  1.9683
   95SAPS  H10Y 9450   4.374   7.405   7.956 -0.6236 -3.8800  0.7325
   95SAPS  C311 9451   4.171   7.350   8.027 -0.3903 -0.0976  0.0441
   95SAPS  H11X 9452   4.191   7.241   8.040  0.0543  0.0429  0.5833
   95SAPS  H11Y 9453   4.068   7.350   7.986 -0.6566 -0.0564  0.6982
   95SAPS  C312 9454   4.179   7.429   8.160 -0.5354  0.2747 -0.2605
   95SAPS  H12X 9455   4.166   7.538   8.141 -2.7703 -0.0282 -0.7874
   95SAPS  H12Y 9456   4.276   7.423   8.214 -1.4319  1.1035  1.5285
   95SAPS  C313 9457   4.072   7.386   8.261 -0.1550  0.2305  0.0760
   95SAPS  H13X 9458   4.087   7.283   8.298 -0.4720 -0.8462 -2.6089
   95SAPS  H13Y 9459   3.971   7.386   8.215  0.1085  3.2328 -0.7587
   95SAPS  C314 9460   4.074   7.480   8.381  0.0218 -0.9730 -0.7886
   95SAPS  H14X 9461   4.059   7.588   8.360  0.3716 -0.6434  0.5267
   95SAPS  H14Y 9462   4.174   7.484   8.428 -0.5667  1.3866  0.4249
   95SAPS  C315 9463   3.967   7.449   8.481  0.3231  0.2775  0.0948
   95SAPS  H15X 9464   3.972   7.341   8.504  2.3304 -0.3453 -2.7445
   95SAPS  H15Y 9465   3.871   7.471   8.430 -0.1059  0.2070  0.8579
   95SAPS  C316 9466   3.973   7.533   8.615 -0.3137 -0.3595 -0.2226
   95SAPS  H16X 9467   4.028   7.626   8.591 -2.5005  0.5667 -1.8673
   95SAPS  H16Y 9468   4.029   7.478   8.694 -0.7302 -0.9074 -0.3059
   95SAPS  C317 9469   3.841   7.577   8.681 -0.3022  0.3869  0.2936
   95SAPS  H17X 9470   3.809   7.672   8.634  0.2615 -0.7375 -2.6319
   95SAPS  H17Y 9471   3.855   7.601   8.788 -1.1195 -2.3267  1.1092
   95SAPS  C318 9472   3.729   7.473   8.685 -0.2634 -0.1245 -0.1306
   95SAPS  H18X 9473   3.660   7.461   8.598 -0.4765  0.0124  0.0203
   95SAPS  H18Y 9474   3.670   7.489   8.777  1.5031  1.5856  0.7621
   95SAPS  H18Z 9475   3.778   7.373   8.690  0.5721  0.2706 -0.3043
   96SAPS     N 9476   5.966   2.115   6.141 -0.4707 -0.8882 -0.2473
   96SAPS   HN1 9477   6.001   2.177   6.217  0.8178 -0.8690 -0.8373
   96SAPS   HN2 9478   5.985   2.015   6.164  0.6209 -0.1911  2.1902
   96SAPS   HN3 9479   6.021   2.140   6.057  1.7108  0.3564  1.4423
   96SAPS   C12 9480   5.821   2.144   6.129 -0.6600  0.5409 -0.1095
   96SAPS  H12A 9481   5.806   2.245   6.094 -0.0154  0.0908 -1.7920
   96SAPS   C13 9482   5.748   2.051   6.027 -0.0186 -0.1697 -0.3208
   96SAPS  O13A 9483   5.787   1.931   6.011  0.3983  0.0384 -0.4133
   96SAPS  O13B 9484   5.632   2.095   5.993 -1.1469  0.5878  0.2066
   96SAPS   C11 9485   5.762   2.136   6.270 -0.1468 -0.0678 -0.4037
   96SAPS  H11A 9486   5.749   2.030   6.302  0.1121  0.5324  1.8641
   96SAPS  H11B 9487   5.653   2.156   6.262 -0.1363 -0.3320 -1.2771
   96SAPS     P 9488   5.751   2.324   6.453  0.1181 -0.0113  0.0127
   96SAPS   O13 9489   5.783   2.456   6.399  0.0130  0.0407 -0.2132
   96SAPS   O14 9490   5.603   2.290   6.454  0.2243 -0.3519  0.5484
   96SAPS   O12 9491   5.836   2.215   6.375  0.4516 -0.1484 -0.2935
   96SAPS   O11 9492   5.794   2.319   6.603  0.0562  0.7998 -0.3010
   96SAPS    C1 9493   5.859   2.196   6.639  0.1151 -0.3572 -0.0029
   96SAPS    HA 9494   5.798   2.106   6.618  1.2398 -0.7922 -1.5647
   96SAPS    HB 9495   5.956   2.189   6.587  1.3157  0.9468  1.9150
   96SAPS    C2 9496   5.890   2.200   6.792 -0.4675  0.0309  0.2744
   96SAPS    HS 9497   5.949   2.106   6.801 -0.5775 -0.1386 -0.6174
   96SAPS   O21 9498   5.766   2.223   6.861  0.3475  0.0484 -0.3155
   96SAPS   C21 9499   5.704   2.111   6.896 -1.1767 -0.1972 -0.0408
   96SAPS   O22 9500   5.739   2.000   6.863  0.0035 -0.1235  0.0321
   96SAPS   C22 9501   5.580   2.140   6.979 -0.2639 -0.5997  0.1326
   96SAPS   H2R 9502   5.525   2.225   6.933 -0.3082 -0.2788  0.7675
   96SAPS   H2S 9503   5.506   2.057   6.975 -0.8401 -0.3662  3.2150
   96SAPS    C3 9504   5.986   2.315   6.830  0.7579 -0.5358  0.0413
   96SAPS    HX 9505   5.938   2.415   6.822  3.3496  0.9393  1.5925
   96SAPS    HY 9506   6.074   2.307   6.762  1.5471  1.2797  0.7876
   96SAPS   O31 9507   6.030   2.301   6.971 -0.6171  0.4652 -0.2829
   96SAPS   C31 9508   5.964   2.371   7.068 -1.1625  0.3388 -0.0731
   96SAPS   O32 9509   5.867   2.443   7.050  0.4409  0.5151  0.2007
   96SAPS   C32 9510   6.030   2.336   7.197  0.0121 -0.1535  0.3640
   96SAPS   H2X 9511   6.140   2.346   7.186 -0.1964  0.2270 -1.8857
   96SAPS   H2Y 9512   6.004   2.231   7.223 -0.7408  0.6198  3.0924
   96SAPS   C23 9513   5.603   2.175   7.132 -0.2110  1.5946  0.3907
   96SAPS   H3R 9514   5.669   2.263   7.146  2.2043 -0.2117  0.8355
   96SAPS   H3S 9515   5.665   2.091   7.170 -1.7809  1.1146  2.0814
   96SAPS   C24 9516   5.474   2.187   7.214 -0.1812 -0.0285 -0.3418
   96SAPS   H4R 9517   5.511   2.203   7.318  1.6009  0.6886 -1.0447
   96SAPS   H4S 9518   5.425   2.088   7.219  1.3731 -0.8016  3.4364
   96SAPS   C25 9519   5.372   2.288   7.173 -0.0238  0.8296  0.0814
   96SAPS   H5R 9520   5.322   2.261   7.079  0.7629  1.2388 -0.4593
   96SAPS   C26 9521   5.353   2.410   7.231  0.1613 -0.1248  0.6648
   96SAPS   H6R 9522   5.279   2.478   7.189  0.0634 -0.5991  0.0523
   96SAPS   C27 9523   5.435   2.458   7.350 -0.7041 -0.1665  0.8866
   96SAPS   H7R 9524   5.453   2.372   7.417 -0.3448 -0.1602  0.8025
   96SAPS   H7S 9525   5.379   2.531   7.411  0.3036 -0.2094  1.8922
   96SAPS   C28 9526   5.574   2.507   7.314 -0.2118 -0.9186  0.4217
   96SAPS   H8R 9527   5.609   2.484   7.212  1.8466  1.7467  0.4021
   96SAPS   C29 9528   5.659   2.574   7.390  1.0247  0.4692  0.7956
   96SAPS   H9R 9529   5.759   2.603   7.352  1.1440 -1.3735 -0.4738
   96SAPS  C210 9530   5.626   2.619   7.529  0.0060 -0.0399  1.2824
   96SAPS  H10R 9531   5.728   2.628   7.572  0.2793 -1.1484  0.9027
   96SAPS  H10S 9532   5.574   2.542   7.590  0.2734 -0.0911  1.4452
   96SAPS  C211 9533   5.541   2.738   7.535 -0.8895 -0.3620 -0.9933
   96SAPS  H11R 9534   5.524   2.801   7.447 -0.2079 -1.0449 -1.6293
   96SAPS  C212 9535   5.485   2.790   7.647 -0.2242 -0.0985 -0.2605
   96SAPS  H12R 9536   5.436   2.888   7.640  0.5075  0.3164  0.2906
   96SAPS  C213 9537   5.498   2.720   7.783  0.1060  0.5054 -0.3270
   96SAPS  H13R 9538   5.556   2.778   7.858  1.2042  0.8120 -1.3680
   96SAPS  H13S 9539   5.549   2.621   7.783 -2.2619 -0.7836  0.9112
   96SAPS  C214 9540   5.360   2.678   7.828  0.0384  0.4595  0.1538
   96SAPS  H14R 9541   5.311   2.603   7.764 -1.5154  1.4676  0.1235
   96SAPS  C215 9542   5.299   2.729   7.935 -0.0976  0.4324  0.1069
   96SAPS  H15R 9543   5.200   2.694   7.965 -0.4709  1.4349  0.0946
   96SAPS  C216 9544   5.348   2.837   8.027  0.0969  0.3127 -0.4723
   96SAPS  H16R 9545   5.432   2.897   7.984  1.5017 -1.9501 -1.0720
   96SAPS  H16S 9546   5.379   2.784   8.120 -2.5990 -1.7185 -0.6115
   96SAPS  C217 9547   5.233   2.928   8.065  0.0922 -0.5032 -0.3999
   96SAPS  H17R 9548   5.142   2.872   8.095 -0.9818  0.8375 -1.0691
   96SAPS  H17S 9549   5.206   2.989   7.976 -2.0061 -2.6004 -1.2950
   96SAPS  C218 9550   5.254   3.028   8.182 -0.2002  0.5526 -0.8028
   96SAPS  H18R 9551   5.157   3.081   8.190  1.2389  3.2269  0.2236
   96SAPS  H18S 9552   5.324   3.107   8.149  1.8104 -0.7083  0.2667
   96SAPS  C219 9553   5.302   2.973   8.317  0.5369  0.5622  0.1004
   96SAPS  H19R 9554   5.409   2.948   8.305  0.0297 -2.3854  0.9916
   96SAPS  H19S 9555   5.243   2.885   8.351  0.2748  0.1704 -1.3093
   96SAPS  C220 9556   5.282   3.079   8.432  0.2554  0.2157  0.2480
   96SAPS  H20R 9557   5.241   3.036   8.525 -0.9631  0.9264  0.0573
   96SAPS  H20S 9558   5.212   3.157   8.395  1.4362  0.3841 -1.8407
   96SAPS  H20T 9559   5.380   3.127   8.455  0.6422  0.2241 -1.2817
   96SAPS   C33 9560   5.990   2.431   7.314  0.5477  0.7243  0.5199
   96SAPS   H3X 9561   5.886   2.406   7.343 -0.5674  2.0136 -2.0846
   96SAPS   H3Y 9562   5.990   2.538   7.285  1.3185  0.2273 -1.4386
   96SAPS   C34 9563   6.056   2.390   7.446 -0.3119 -0.3691  0.8885
   96SAPS   H4X 9564   6.142   2.459   7.455 -0.0968 -0.5352  0.1388
   96SAPS   H4Y 9565   6.095   2.286   7.442 -0.8190 -0.6596  2.6534
   96SAPS   C35 9566   5.963   2.406   7.563  0.6431  0.3982  0.4159
   96SAPS   H5X 9567   5.871   2.350   7.537 -0.5213  2.6423 -0.6086
   96SAPS   H5Y 9568   5.942   2.514   7.583  0.6208  0.1189  1.9948
   96SAPS   C36 9569   6.033   2.363   7.697 -0.3764 -0.9233 -0.4847
   96SAPS   H6X 9570   6.121   2.431   7.708 -2.1550  1.4294 -0.1485
   96SAPS   H6Y 9571   6.065   2.257   7.697  2.8414 -0.0642 -0.8397
   96SAPS   C37 9572   5.958   2.383   7.831  0.2150 -0.4231  0.5656
   96SAPS   H7X 9573   5.946   2.493   7.844  1.9137 -0.2393  0.8450
   96SAPS   H7Y 9574   6.020   2.347   7.915  1.1224 -0.0266  0.0903
   96SAPS   C38 9575   5.825   2.307   7.837  0.8553 -0.5331 -0.6206
   96SAPS   H8X 9576   5.825   2.209   7.786 -2.7646 -0.4911 -0.9663
   96SAPS   H8Y 9577   5.753   2.365   7.776  1.2078 -0.4250 -0.9378
   96SAPS   C39 9578   5.774   2.309   7.981  0.2371  0.3652 -0.1995
   96SAPS   H9X 9579   5.776   2.413   8.019  0.9993  0.3258 -0.1188
   96SAPS   H9Y 9580   5.839   2.253   8.051 -1.6979 -0.3198  1.1268
   96SAPS  C310 9581   5.638   2.242   8.014  0.1873 -0.6311 -0.5598
   96SAPS  H10X 9582   5.647   2.131   8.006 -0.6299 -0.9328  1.7884
   96SAPS  H10Y 9583   5.557   2.280   7.948  0.6548  0.2917 -0.6181
   96SAPS  C311 9584   5.598   2.252   8.162  0.4920  0.4285  0.5711
   96SAPS  H11X 9585   5.670   2.192   8.221  0.6706  1.2067  1.1456
   96SAPS  H11Y 9586   5.503   2.196   8.175  0.8290 -0.6996 -1.3488
   96SAPS  C312 9587   5.586   2.394   8.218 -0.8404  0.2508  0.1841
   96SAPS  H12X 9588   5.552   2.447   8.126 -3.4981 -0.0856  0.8851
   96SAPS  H12Y 9589   5.685   2.427   8.255 -0.6992  3.5162 -2.6279
   96SAPS  C313 9590   5.477   2.398   8.328 -0.6360  0.0399  0.1082
   96SAPS  H13X 9591   5.499   2.318   8.401 -2.8875  0.5506  1.4217
   96SAPS  H13Y 9592   5.382   2.370   8.278 -0.2220  3.0882 -2.7951
   96SAPS  C314 9593   5.470   2.530   8.392 -0.5460 -0.6582  0.2103
   96SAPS  H14X 9594   5.441   2.608   8.318  0.9205  0.2417  0.5388
   96SAPS  H14Y 9595   5.571   2.555   8.433 -0.0808 -0.1469 -1.2061
   96SAPS  C315 9596   5.385   2.542   8.518 -0.6518  0.2755 -0.7074
   96SAPS  H15X 9597   5.381   2.650   8.545 -3.7725  0.4700 -1.5177
   96SAPS  H15Y 9598   5.423   2.482   8.603 -0.6879  0.9141 -0.2365
   96SAPS  C316 9599   5.241   2.488   8.497 -0.2149 -0.0373  0.1038
   96SAPS  H16X 9600   5.249   2.382   8.464  3.3836 -0.9032  3.0913
   96SAPS  H16Y 9601   5.193   2.549   8.417  1.0074  0.3456 -0.3687
   96SAPS  C317 9602   5.151   2.500   8.621  0.0432  0.3754  0.4846
   96SAPS  H17X 9603   5.139   2.610   8.637 -0.6156  0.3609  0.1185
   96SAPS  H17Y 9604   5.192   2.443   8.707  0.0889  1.7126  1.3914
   96SAPS  C318 9605   5.004   2.453   8.591 -0.2766  0.0457 -0.1766
   96SAPS  H18X 9606   4.963   2.514   8.507  1.8436  0.4800 -0.9372
   96SAPS  H18Y 9607   4.939   2.467   8.680 -1.8717 -1.6428 -1.0060
   96SAPS  H18Z 9608   5.006   2.352   8.545 -1.8522 -0.5619  0.9720
   97SAPS     N 9609   5.692   6.696   6.377  0.2327 -0.2027 -0.4698
   97SAPS   HN1 9610   5.740   6.780   6.413  2.1172 -1.4057 -0.0596
   97SAPS   HN2 9611   5.704   6.705   6.274 -0.4617  1.0364 -0.4584
   97SAPS   HN3 9612   5.592   6.697   6.407  0.6880 -0.3992  1.1032
   97SAPS   C12 9613   5.751   6.571   6.432  0.6529  0.4463 -0.0836
   97SAPS  H12A 9614   5.713   6.543   6.529 -2.6072 -1.1525 -1.6488
   97SAPS   C13 9615   5.718   6.442   6.355 -0.7994 -0.2031  0.2775
   97SAPS  O13A 9616   5.649   6.450   6.254  0.3345 -0.0790 -0.3986
   97SAPS  O13B 9617   5.768   6.335   6.394 -0.5976 -0.3881  0.7937
   97SAPS   C11 9618   5.900   6.594   6.436  0.4743  0.3204  0.2681
   97SAPS  H11A 9619   5.933   6.600   6.330  0.6676 -0.2371  0.2931
   97SAPS  H11B 9620   5.951   6.510   6.486  0.7043  0.8234  0.8948
   97SAPS     P 9621   5.922   6.752   6.656  0.4920 -0.4770 -0.2650
   97SAPS   O13 9622   6.047   6.707   6.723  0.6869  0.7779 -0.3159
   97SAPS   O14 9623   5.876   6.893   6.675  0.3162  0.1616  0.2128
   97SAPS   O12 9624   5.937   6.718   6.503  0.0356 -0.5169  0.3210
   97SAPS   O11 9625   5.807   6.661   6.710 -0.6537  0.4461 -0.7021
   97SAPS    C1 9626   5.686   6.710   6.765 -0.3432  0.1735 -0.0364
   97SAPS    HA 9627   5.638   6.793   6.708 -1.0877 -1.5956 -2.1700
   97SAPS    HB 9628   5.604   6.635   6.760  0.5977 -0.8613 -0.4258
   97SAPS    C2 9629   5.703   6.760   6.916 -0.6098  0.4830  0.2512
   97SAPS    HS 9630   5.778   6.842   6.907  1.1179 -0.8467  1.8874
   97SAPS   O21 9631   5.750   6.648   6.987 -0.5569  0.6867 -0.4087
   97SAPS   C21 9632   5.848   6.674   7.077  0.4392  0.1356  0.5021
   97SAPS   O22 9633   5.899   6.780   7.102 -0.3363  0.5608  0.2073
   97SAPS   C22 9634   5.871   6.544   7.157  0.4352 -0.0233 -0.5789
   97SAPS   H2R 9635   5.795   6.535   7.237  1.7793 -0.7515  0.6684
   97SAPS   H2S 9636   5.863   6.464   7.081 -1.0090 -0.3957 -0.0492
   97SAPS    C3 9637   5.574   6.811   6.987  0.1274 -0.4161 -0.1188
   97SAPS    HX 9638   5.505   6.724   6.977 -2.0761  0.9953  1.8859
   97SAPS    HY 9639   5.532   6.891   6.923 -0.0335 -0.6202 -0.2705
   97SAPS   O31 9640   5.599   6.852   7.125  1.0316  0.0730 -0.2665
   97SAPS   C31 9641   5.610   6.986   7.147 -0.2984  0.9167  0.1933
   97SAPS   O32 9642   5.629   7.075   7.059  0.4801 -0.0589 -0.0229
   97SAPS   C32 9643   5.619   7.007   7.298 -0.0033 -0.6757 -0.1741
   97SAPS   H2X 9644   5.529   6.960   7.344 -0.1808 -2.1105 -1.8927
   97SAPS   H2Y 9645   5.628   7.117   7.312  0.3830 -0.4530 -1.9368
   97SAPS   C23 9646   5.998   6.540   7.253 -0.6596 -0.2252  0.3501
   97SAPS   H3R 9647   6.074   6.617   7.227  2.2022 -2.8381  0.3641
   97SAPS   H3S 9648   6.053   6.445   7.240  2.0939  1.1012  1.5621
   97SAPS   C24 9649   5.974   6.539   7.407 -0.0862 -0.1208  0.5831
   97SAPS   H4R 9650   5.910   6.450   7.425 -0.0617 -0.8285 -2.2481
   97SAPS   H4S 9651   5.923   6.626   7.454  2.0234  0.6463  1.5346
   97SAPS   C25 9652   6.103   6.540   7.482  0.2305  0.0666  0.5044
   97SAPS   H5R 9653   6.186   6.551   7.411  0.8647  1.0887  1.3629
   97SAPS   C26 9654   6.119   6.530   7.615  0.4580 -0.0861 -0.1925
   97SAPS   H6R 9655   6.219   6.549   7.656  1.6723 -1.1405 -2.4534
   97SAPS   C27 9656   6.012   6.510   7.715 -0.2126  0.4313 -0.3880
   97SAPS   H7R 9657   6.047   6.443   7.797 -0.2980  1.4026  0.4564
   97SAPS   H7S 9658   5.924   6.463   7.667  0.1744 -1.8417  0.9632
   97SAPS   C28 9659   5.983   6.646   7.777  0.4756 -0.2397  0.3110
   97SAPS   H8R 9660   5.987   6.730   7.706 -0.0066 -0.5598 -0.0976
   97SAPS   C29 9661   5.959   6.684   7.905  0.4389  0.0300  0.3008
   97SAPS   H9R 9662   5.950   6.790   7.933  1.7345  0.2225  0.0552
   97SAPS  C210 9663   5.957   6.591   8.029  0.6929  0.5142  0.0224
   97SAPS  H10R 9664   6.060   6.553   8.050  1.1844  1.2930 -0.9183
   97SAPS  H10S 9665   5.909   6.494   8.006  1.8018  0.4631 -2.4306
   97SAPS  C211 9666   5.892   6.644   8.153 -0.2899  0.0159  0.0184
   97SAPS  H11R 9667   5.805   6.709   8.139  0.6617  2.0005  2.6255
   97SAPS  C212 9668   5.940   6.630   8.276  0.2755 -0.0257  0.3393
   97SAPS  H12R 9669   5.876   6.677   8.352 -0.5799  1.1826 -1.0794
   97SAPS  C213 9670   6.071   6.562   8.322  0.3767  0.5706  0.3784
   97SAPS  H13R 9671   6.140   6.642   8.356  1.6314 -0.1068 -0.4672
   97SAPS  H13S 9672   6.122   6.507   8.240 -1.3653 -0.5945  0.0067
   97SAPS  C214 9673   6.060   6.459   8.435  1.0810  0.3363  0.2418
   97SAPS  H14R 9674   6.000   6.370   8.409  1.1406  0.5598 -0.6986
   97SAPS  C215 9675   6.101   6.462   8.567  0.2605 -0.1489  0.2358
   97SAPS  H15R 9676   6.073   6.372   8.623 -0.0828 -1.0304 -1.2897
   97SAPS  C216 9677   6.162   6.580   8.641  0.2492 -0.0284 -0.2894
   97SAPS  H16R 9678   6.171   6.562   8.750  5.2512 -0.1495 -0.4943
   97SAPS  H16S 9679   6.107   6.677   8.635 -0.0904 -0.1985  0.0013
   97SAPS  C217 9680   6.309   6.603   8.602 -0.8017 -0.2625  0.2355
   97SAPS  H17R 9681   6.323   6.594   8.492  0.3718 -1.7221  0.4702
   97SAPS  H17S 9682   6.368   6.521   8.648  1.7351  1.1824 -0.2255
   97SAPS  C218 9683   6.360   6.738   8.652 -0.1905 -0.2263  0.5757
   97SAPS  H18R 9684   6.370   6.730   8.763 -2.8618 -1.0310  0.8271
   97SAPS  H18S 9685   6.288   6.820   8.635 -1.0841 -0.8040  1.4963
   97SAPS  C219 9686   6.485   6.784   8.573  0.2727 -0.1958 -0.2807
   97SAPS  H19R 9687   6.461   6.783   8.465 -0.2010  2.1850 -0.2470
   97SAPS  H19S 9688   6.566   6.709   8.586 -1.1227 -1.8062 -0.4562
   97SAPS  C220 9689   6.542   6.919   8.617 -0.1089 -0.5538  0.3845
   97SAPS  H20R 9690   6.464   6.992   8.588  0.7806  0.9149  1.5860
   97SAPS  H20S 9691   6.633   6.949   8.560 -1.4980  1.7376 -0.7817
   97SAPS  H20T 9692   6.562   6.919   8.726  0.4630  2.9669  0.3805
   97SAPS   C33 9693   5.744   6.942   7.355 -0.4383 -0.9314 -0.2754
   97SAPS   H3X 9694   5.825   6.975   7.286  0.8367  0.0216  1.5901
   97SAPS   H3Y 9695   5.747   6.831   7.350 -0.3759 -0.9071 -0.9896
   97SAPS   C34 9696   5.780   7.005   7.496 -0.3604  0.2949 -0.5704
   97SAPS   H4X 9697   5.774   7.115   7.485 -0.0312  0.2222 -1.5316
   97SAPS   H4Y 9698   5.886   6.981   7.515 -0.8791 -2.4772 -0.7528
   97SAPS   C35 9699   5.698   6.961   7.620 -0.2860 -0.5266  0.0899
   97SAPS   H5X 9700   5.694   6.851   7.638 -0.4369 -0.2337  2.0139
   97SAPS   H5Y 9701   5.593   6.996   7.606  0.7464  2.4601 -0.9259
   97SAPS   C36 9702   5.760   7.018   7.750  0.2832  0.5617  0.4597
   97SAPS   H6X 9703   5.738   7.126   7.738 -0.4774  0.5320  1.4530
   97SAPS   H6Y 9704   5.869   7.002   7.757  0.3933  1.1709  0.1667
   97SAPS   C37 9705   5.692   6.979   7.878 -0.2448  0.3713 -0.2463
   97SAPS   H7X 9706   5.709   6.870   7.892 -0.0104  0.3193 -0.8939
   97SAPS   H7Y 9707   5.584   7.002   7.868 -0.4636 -0.2666  0.5120
   97SAPS   C38 9708   5.748   7.057   8.000 -0.0587  0.0362 -0.4037
   97SAPS   H8X 9709   5.724   7.161   7.967 -2.5488 -0.0011  1.0427
   97SAPS   H8Y 9710   5.859   7.054   8.005  0.3386  5.8672  1.9708
   97SAPS   C39 9711   5.684   7.021   8.134 -0.4782  0.1486  0.1366
   97SAPS   H9X 9712   5.725   6.922   8.160  1.5253  1.0362  0.5461
   97SAPS   H9Y 9713   5.573   7.023   8.133 -0.5311 -1.2700 -1.6378
   97SAPS  C310 9714   5.736   7.117   8.242 -0.2504  0.8185 -0.3852
   97SAPS  H10X 9715   5.684   7.215   8.242  2.1867  2.3538  3.6545
   97SAPS  H10Y 9716   5.841   7.148   8.221  0.0360 -0.0929 -0.3489
   97SAPS  C311 9717   5.709   7.068   8.380 -0.3012  0.2513 -0.0708
   97SAPS  H11X 9718   5.734   6.960   8.391 -1.7624 -0.0558  0.4379
   97SAPS  H11Y 9719   5.599   7.050   8.383 -0.3067 -0.0678 -1.5765
   97SAPS  C312 9720   5.759   7.147   8.496 -0.0463 -0.5536  0.1301
   97SAPS  H12X 9721   5.702   7.144   8.591 -0.9396  0.5774 -0.3432
   97SAPS  H12Y 9722   5.761   7.253   8.463 -0.2034 -1.0599 -1.6368
   97SAPS  C313 9723   5.900   7.098   8.536  0.5565  1.1299  0.3456
   97SAPS  H13X 9724   5.974   7.098   8.454 -0.2845 -2.3872 -0.5800
   97SAPS  H13Y 9725   5.897   6.987   8.549 -0.6320  1.0129 -0.6947
   97SAPS  C314 9726   5.969   7.163   8.660 -0.0281 -0.8430 -0.7032
   97SAPS  H14X 9727   5.892   7.174   8.740  0.2773 -2.6488 -0.1072
   97SAPS  H14Y 9728   6.011   7.262   8.633 -0.8637 -0.5547 -0.9623
   97SAPS  C315 9729   6.086   7.065   8.707 -0.0949  0.4621  0.0864
   97SAPS  H15X 9730   6.159   7.080   8.625  1.6996  0.5093  1.5993
   97SAPS  H15Y 9731   6.056   6.958   8.711  1.2694  0.0629  0.0905
   97SAPS  C316 9732   6.148   7.114   8.840 -0.3672  0.7682  0.3260
   97SAPS  H16X 9733   6.066   7.121   8.915  0.7224 -0.8384  1.7247
   97SAPS  H16Y 9734   6.200   7.210   8.819 -0.1843  0.8963  1.3423
   97SAPS  C317 9735   6.247   7.013   8.896 -0.1948  0.3786 -0.0197
   97SAPS  H17X 9736   6.302   7.057   8.982 -0.7475 -2.0505  1.6858
   97SAPS  H17Y 9737   6.333   6.994   8.829  2.2962  2.3387  2.3563
   97SAPS  C318 9738   6.188   6.875   8.944  0.2295 -0.8662  0.0069
   97SAPS  H18X 9739   6.269   6.800   8.961 -0.8306 -2.3349 -1.2175
   97SAPS  H18Y 9740   6.117   6.843   8.865  0.1983 -0.4702 -0.1289
   97SAPS  H18Z 9741   6.134   6.878   9.040 -0.5119 -2.6670 -0.3272
   98SAPS     N 9742   2.241   6.056   6.267 -0.3061 -0.8352 -0.2991
   98SAPS   HN1 9743   2.271   5.958   6.283 -1.8178 -1.0407  1.7363
   98SAPS   HN2 9744   2.262   6.112   6.352  0.4188 -2.1507  0.4227
   98SAPS   HN3 9745   2.137   6.054   6.258 -0.5511  2.1932  0.7173
   98SAPS   C12 9746   2.294   6.124   6.144  0.4490 -0.1782  0.8418
   98SAPS  H12A 9747   2.401   6.106   6.146  0.3732 -0.6473  0.7316
   98SAPS   C13 9748   2.243   6.065   6.007  0.2648  0.0752 -1.0320
   98SAPS  O13A 9749   2.205   5.945   6.003 -0.0197 -0.6134 -0.0430
   98SAPS  O13B 9750   2.231   6.135   5.903 -0.2102 -0.2067 -0.1567
   98SAPS   C11 9751   2.264   6.281   6.137  0.7207 -0.2318  0.2431
   98SAPS  H11A 9752   2.155   6.278   6.157  0.6506 -1.6051 -0.2571
   98SAPS  H11B 9753   2.288   6.318   6.036  0.3853  0.5073  0.4258
   98SAPS     P 9754   2.263   6.392   6.375  0.1600 -0.3765  0.0546
   98SAPS   O13 9755   2.200   6.526   6.351 -0.6780 -0.0888  0.0644
   98SAPS   O14 9756   2.166   6.288   6.416 -0.1270  0.2847 -0.2901
   98SAPS   O12 9757   2.330   6.357   6.241  0.1955  0.6490  0.5157
   98SAPS   O11 9758   2.379   6.409   6.479  0.3022 -0.6790  0.1027
   98SAPS    C1 9759   2.497   6.328   6.476  0.2232  0.8453  0.3863
   98SAPS    HA 9760   2.490   6.242   6.406 -1.0533  1.2026  0.0425
   98SAPS    HB 9761   2.588   6.385   6.444 -1.0966  1.0177 -3.7083
   98SAPS    C2 9762   2.520   6.265   6.619 -0.1860  0.0186 -0.4543
   98SAPS    HS 9763   2.572   6.168   6.607 -1.4131 -0.5633 -1.1894
   98SAPS   O21 9764   2.398   6.239   6.697  0.0966 -0.1305  0.2627
   98SAPS   C21 9765   2.328   6.149   6.635 -0.4555 -0.7661  0.0418
   98SAPS   O22 9766   2.364   6.081   6.543  0.4251 -0.0516  0.7275
   98SAPS   C22 9767   2.191   6.140   6.691 -0.1682 -0.0674  0.4266
   98SAPS   H2R 9768   2.153   6.241   6.720  0.0909  0.3139 -0.5117
   98SAPS   H2S 9769   2.118   6.097   6.619 -0.8402 -3.3612  2.8412
   98SAPS    C3 9770   2.607   6.371   6.703 -0.1383  0.3518 -0.3643
   98SAPS    HX 9771   2.529   6.442   6.737  0.4274  0.5516  0.5738
   98SAPS    HY 9772   2.687   6.403   6.633  2.0328 -2.9298  0.3616
   98SAPS   O31 9773   2.662   6.311   6.821  0.3381 -0.1042  0.9126
   98SAPS   C31 9774   2.787   6.260   6.801 -0.2185  0.4432 -0.4137
   98SAPS   O32 9775   2.849   6.256   6.699 -0.8376  0.0281 -0.1637
   98SAPS   C32 9776   2.842   6.201   6.932 -0.0797  0.4800 -0.3393
   98SAPS   H2X 9777   2.871   6.289   6.994  0.5503  2.1807 -2.9096
   98SAPS   H2Y 9778   2.934   6.141   6.917 -1.0584 -1.0899 -0.2712
   98SAPS   C23 9779   2.172   6.050   6.819 -0.5280 -0.4637 -0.5227
   98SAPS   H3R 9780   2.258   6.054   6.890  0.8658 -2.2319 -1.9951
   98SAPS   H3S 9781   2.184   5.947   6.778  0.0979 -0.7561  0.3559
   98SAPS   C24 9782   2.048   6.079   6.902 -0.3290 -0.5967 -0.1504
   98SAPS   H4R 9783   2.060   6.166   6.970 -1.3492  0.1287 -0.8725
   98SAPS   H4S 9784   2.029   5.995   6.973  1.0908 -0.4566  0.4488
   98SAPS   C25 9785   1.929   6.093   6.812 -0.4781 -0.1392 -0.3038
   98SAPS   H5R 9786   1.931   6.063   6.706 -1.4575  0.6477 -0.5527
   98SAPS   C26 9787   1.817   6.159   6.838  0.6041 -0.2530  0.0435
   98SAPS   H6R 9788   1.752   6.173   6.751  0.0732 -1.9412  0.1266
   98SAPS   C27 9789   1.780   6.234   6.970  0.3708  0.4525  0.5626
   98SAPS   H7R 9790   1.806   6.170   7.057 -0.1135  1.4295  1.4464
   98SAPS   H7S 9791   1.670   6.239   6.987 -0.4484  3.6132 -3.8969
   98SAPS   C28 9792   1.838   6.374   6.979  0.3430  0.0131  0.7380
   98SAPS   H8R 9793   1.931   6.398   6.926 -0.2694 -0.1610 -0.4389
   98SAPS   C29 9794   1.792   6.472   7.060 -0.6840 -0.2489 -0.7723
   98SAPS   H9R 9795   1.844   6.569   7.051  0.3168 -0.5780  0.9056
   98SAPS  C210 9796   1.685   6.456   7.160  0.1992 -0.4422  0.4068
   98SAPS  H10R 9797   1.594   6.410   7.115  0.3494 -0.9130  0.5782
   98SAPS  H10S 9798   1.647   6.555   7.192  0.8497  0.1497 -0.5907
   98SAPS  C211 9799   1.736   6.376   7.275 -0.6932  0.0481 -0.1982
   98SAPS  H11R 9800   1.839   6.337   7.272 -1.6140 -3.2703  3.1071
   98SAPS  C212 9801   1.659   6.328   7.374 -0.0676 -0.2760 -0.2078
   98SAPS  H12R 9802   1.710   6.255   7.439 -1.0332 -1.2231 -0.4771
   98SAPS  C213 9803   1.511   6.349   7.401 -0.2921 -0.5005  0.3913
   98SAPS  H13R 9804   1.452   6.397   7.320  1.5170  1.4048  0.1231
   98SAPS  H13S 9805   1.509   6.423   7.483  1.3590  0.3812 -0.3180
   98SAPS  C214 9806   1.440   6.224   7.453  0.0599  0.0981  0.3422
   98SAPS  H14R 9807   1.404   6.158   7.372  0.8995  1.2908 -1.0467
   98SAPS  C215 9808   1.401   6.193   7.580 -0.1713  0.8664 -0.2516
   98SAPS  H15R 9809   1.357   6.094   7.597  2.0082 -0.1563 -0.3208
   98SAPS  C216 9810   1.409   6.269   7.706 -0.7183 -0.4896 -0.9180
   98SAPS  H16R 9811   1.372   6.373   7.692 -0.3582 -0.3048 -0.5160
   98SAPS  H16S 9812   1.512   6.276   7.746 -0.7146  0.2454 -1.0554
   98SAPS  C217 9813   1.319   6.201   7.825  0.1917 -0.1553 -1.0038
   98SAPS  H17R 9814   1.215   6.172   7.800  0.3173 -2.2983  0.6135
   98SAPS  H17S 9815   1.305   6.274   7.907 -1.0870 -0.3579 -1.0290
   98SAPS  C218 9816   1.383   6.071   7.883  0.0373  0.1039 -0.5884
   98SAPS  H18R 9817   1.442   6.030   7.798  3.2707  2.9065  0.0837
   98SAPS  H18S 9818   1.303   6.000   7.914 -2.8234  2.6766 -1.6710
   98SAPS  C219 9819   1.479   6.095   7.996  0.1760  0.0590  0.2892
   98SAPS  H19R 9820   1.423   6.142   8.080 -1.4839 -1.2063 -0.0742
   98SAPS  H19S 9821   1.566   6.158   7.966 -0.0691 -0.3615 -1.4134
   98SAPS  C220 9822   1.522   5.960   8.049 -0.1303  0.2806 -0.3637
   98SAPS  H20R 9823   1.588   5.976   8.137  0.8112  3.1852 -1.4823
   98SAPS  H20S 9824   1.576   5.911   7.966 -3.3033 -2.8289 -0.8393
   98SAPS  H20T 9825   1.448   5.883   8.081 -0.1331  0.2236 -0.5070
   98SAPS   C33 9826   2.730   6.133   7.012 -0.7087 -0.1970  0.3093
   98SAPS   H3X 9827   2.699   6.052   6.943  0.5344  1.5472 -2.5047
   98SAPS   H3Y 9828   2.649   6.207   7.026 -0.0382  1.0474 -1.8497
   98SAPS   C34 9829   2.766   6.068   7.146 -0.6310  1.0708  0.2575
   98SAPS   H4X 9830   2.844   5.990   7.130 -0.9143  0.6440  0.9258
   98SAPS   H4Y 9831   2.673   6.030   7.193 -0.6490 -0.6130 -1.0410
   98SAPS   C35 9832   2.821   6.176   7.243  0.2243  0.6231 -0.6641
   98SAPS   H5X 9833   2.767   6.273   7.239  1.7980  1.5514 -0.0490
   98SAPS   H5Y 9834   2.928   6.189   7.218  0.7944 -5.3685 -3.2239
   98SAPS   C36 9835   2.802   6.105   7.379 -0.1870 -0.1902  0.1205
   98SAPS   H6X 9836   2.861   6.011   7.386  0.3065  0.0128 -0.9748
   98SAPS   H6Y 9837   2.693   6.086   7.391 -0.3701  1.5749  1.5432
   98SAPS   C37 9838   2.847   6.202   7.493 -0.7761  0.0256 -0.1179
   98SAPS   H7X 9839   2.779   6.290   7.504 -2.1116 -1.2681  3.5455
   98SAPS   H7Y 9840   2.948   6.242   7.469 -0.8279 -0.3401 -0.9708
   98SAPS   C38 9841   2.841   6.129   7.629 -0.0670 -0.0831  0.8756
   98SAPS   H8X 9842   2.896   6.034   7.644  0.8484  0.6108  2.0804
   98SAPS   H8Y 9843   2.732   6.108   7.642 -0.6417  0.5556 -2.0035
   98SAPS   C39 9844   2.883   6.217   7.745 -0.3994 -0.3472 -0.1071
   98SAPS   H9X 9845   2.796   6.283   7.765 -0.4705 -0.6870  0.7588
   98SAPS   H9Y 9846   2.963   6.287   7.712 -0.4922  0.1311  0.6567
   98SAPS  C310 9847   2.927   6.144   7.871  0.3639 -0.4385  0.3540
   98SAPS  H10X 9848   3.019   6.193   7.910  0.6121 -0.6646  0.0569
   98SAPS  H10Y 9849   2.951   6.036   7.861  1.0171 -0.2231 -0.5738
   98SAPS  C311 9850   2.829   6.154   7.984 -0.2242 -0.6386 -0.2223
   98SAPS  H11X 9851   2.733   6.099   7.974 -1.2930  0.6600  2.1201
   98SAPS  H11Y 9852   2.812   6.263   7.972  3.4879 -0.0619 -1.2841
   98SAPS  C312 9853   2.894   6.122   8.122  0.1860  0.0161  0.4736
   98SAPS  H12X 9854   3.004   6.130   8.112  0.4732 -3.4031 -0.1494
   98SAPS  H12Y 9855   2.859   6.021   8.151 -1.8450  0.6698  0.4959
   98SAPS  C313 9856   2.847   6.209   8.234 -0.4476 -0.2920  0.0870
   98SAPS  H13X 9857   2.738   6.193   8.248 -0.5829 -0.9105 -1.4614
   98SAPS  H13Y 9858   2.863   6.317   8.214 -0.6877 -0.5322 -1.5670
   98SAPS  C314 9859   2.907   6.168   8.374 -0.1489 -0.1046 -0.1048
   98SAPS  H14X 9860   2.882   6.066   8.410  1.4076 -0.9195 -1.2170
   98SAPS  H14Y 9861   2.873   6.238   8.453  1.4436 -0.9740  1.4057
   98SAPS  C315 9862   3.059   6.183   8.385 -0.5189 -0.8190  0.3227
   98SAPS  H15X 9863   3.079   6.277   8.330 -1.1642 -2.1020 -2.2315
   98SAPS  H15Y 9864   3.120   6.112   8.325  0.3410  2.7372 -3.4416
   98SAPS  C316 9865   3.109   6.187   8.533  0.6486  0.5130  0.0134
   98SAPS  H16X 9866   3.069   6.095   8.581 -0.2726  1.3650  0.9204
   98SAPS  H16Y 9867   3.074   6.286   8.569 -0.6856  0.0470  0.0263
   98SAPS  C317 9868   3.263   6.190   8.548 -0.4410 -0.5292 -0.6029
   98SAPS  H17X 9869   3.294   6.280   8.605  0.2368 -1.2547  0.1885
   98SAPS  H17Y 9870   3.306   6.204   8.446 -0.6106  1.4252 -0.4488
   98SAPS  C318 9871   3.326   6.063   8.609 -0.5100  0.4401  0.6285
   98SAPS  H18X 9872   3.437   6.066   8.610 -0.3530 -0.7230 -2.7118
   98SAPS  H18Y 9873   3.302   5.971   8.552  1.0114 -0.1971  0.9518
   98SAPS  H18Z 9874   3.295   6.051   8.715 -2.1060  2.1651  0.4104
   99SAPS     N 9875   1.485   6.526   5.975  0.8083 -0.1774  0.4339
   99SAPS   HN1 9876   1.570   6.522   6.035 -0.4005  0.5850  2.3098
   99SAPS   HN2 9877   1.491   6.616   5.923  0.3245  0.1131  0.8715
   99SAPS   HN3 9878   1.402   6.528   6.037  0.2745 -0.5597 -0.2581
   99SAPS   C12 9879   1.490   6.414   5.877  0.0470 -0.9581  0.1714
   99SAPS  H12A 9880   1.431   6.441   5.790  0.7872 -2.1651 -0.7402
   99SAPS   C13 9881   1.627   6.389   5.807  0.6921  0.4239 -0.2545
   99SAPS  O13A 9882   1.722   6.466   5.843  0.0695  0.1613 -0.1562
   99SAPS  O13B 9883   1.622   6.339   5.691 -0.2107 -0.2123  0.2178
   99SAPS   C11 9884   1.458   6.282   5.940  0.6852  0.0895 -0.4755
   99SAPS  H11A 9885   1.534   6.271   6.019 -0.4029 -0.2022  0.5694
   99SAPS  H11B 9886   1.465   6.202   5.863  1.1647 -1.7998  1.4459
   99SAPS     P 9887   1.309   6.165   6.127 -0.5932 -0.0840 -0.5887
   99SAPS   O13 9888   1.166   6.137   6.125 -0.1247  0.0456  0.0514
   99SAPS   O14 9889   1.398   6.050   6.112 -0.2391  0.0217 -0.4787
   99SAPS   O12 9890   1.327   6.264   6.002 -0.2726 -0.6058 -0.2213
   99SAPS   O11 9891   1.348   6.262   6.256 -0.1540 -0.2139  0.5173
   99SAPS    C1 9892   1.463   6.249   6.340  0.1042 -0.3739  0.0289
   99SAPS    HA 9893   1.560   6.238   6.287 -0.0441  0.6736 -0.4887
   99SAPS    HB 9894   1.471   6.341   6.401 -0.3431  0.9291 -1.8016
   99SAPS    C2 9895   1.449   6.132   6.436 -0.3354  0.3622 -0.5172
   99SAPS    HS 9896   1.464   6.036   6.381  0.4504  0.5940 -0.7211
   99SAPS   O21 9897   1.319   6.134   6.503  0.3352 -0.0616 -0.2530
   99SAPS   C21 9898   1.256   6.012   6.525  0.4886  0.4546  0.1588
   99SAPS   O22 9899   1.315   5.909   6.499 -0.2491  0.1129  0.4758
   99SAPS   C22 9900   1.130   6.042   6.602  0.1770  0.3343  0.3525
   99SAPS   H2R 9901   1.102   6.150   6.602  1.3912  0.6666  0.1103
   99SAPS   H2S 9902   1.045   5.990   6.552 -1.0824  0.4377  2.2792
   99SAPS    C3 9903   1.558   6.137   6.545  0.3665 -0.1700  0.6210
   99SAPS    HX 9904   1.545   6.216   6.621 -2.4367  0.7725 -0.7178
   99SAPS    HY 9905   1.652   6.158   6.490 -0.7222  0.6833 -1.0001
   99SAPS   O31 9906   1.569   6.011   6.616  0.1295 -0.2355  0.5241
   99SAPS   C31 9907   1.639   5.909   6.554  0.2312 -0.2304 -0.2858
   99SAPS   O32 9908   1.710   5.919   6.453 -0.1401 -0.1995 -0.2650
   99SAPS   C32 9909   1.613   5.780   6.632 -0.0942 -0.6118  0.0073
   99SAPS   H2X 9910   1.612   5.700   6.554  1.7865  1.6722 -2.5907
   99SAPS   H2Y 9911   1.505   5.791   6.654  0.1803  2.1621  0.3871
   99SAPS   C23 9912   1.150   6.001   6.749  0.4600 -0.0364  0.3563
   99SAPS   H3R 9913   1.181   5.895   6.756 -0.2866 -0.8502 -4.6319
   99SAPS   H3S 9914   1.051   6.000   6.799  1.2242 -1.4317  1.9179
   99SAPS   C24 9915   1.248   6.099   6.812 -0.9589  0.2045 -0.1573
   99SAPS   H4R 9916   1.227   6.202   6.774 -1.0467 -0.0883 -0.9316
   99SAPS   H4S 9917   1.347   6.084   6.765  0.3115  2.6713  1.5059
   99SAPS   C25 9918   1.231   6.112   6.960 -0.3919  0.0883 -1.0484
   99SAPS   H5R 9919   1.137   6.157   6.995  0.5163  3.3131 -2.4312
   99SAPS   C26 9920   1.324   6.088   7.058 -0.1126 -0.2944  0.4034
   99SAPS   H6R 9921   1.296   6.103   7.164 -0.5181 -0.3339  0.3026
   99SAPS   C27 9922   1.466   6.046   7.033  0.6442  0.5281 -0.2056
   99SAPS   H7R 9923   1.521   6.116   7.100  1.3278 -1.4158  1.3650
   99SAPS   H7S 9924   1.507   6.077   6.934 -0.4433  2.4814 -0.0964
   99SAPS   C28 9925   1.483   5.894   7.056 -0.0205  0.3922 -0.4221
   99SAPS   H8R 9926   1.463   5.823   6.975 -1.3626  1.4763 -1.0766
   99SAPS   C29 9927   1.537   5.843   7.172  0.0697  0.1924  0.3320
   99SAPS   H9R 9928   1.528   5.735   7.190  0.2581  0.0922 -0.1749
   99SAPS  C210 9929   1.576   5.919   7.290  0.5726 -1.1574 -1.2344
   99SAPS  H10R 9930   1.532   6.020   7.300  1.9106 -0.2498 -3.6648
   99SAPS  H10S 9931   1.685   5.936   7.298  0.6565 -1.9640 -0.4015
   99SAPS  C211 9932   1.541   5.829   7.412 -0.5380  0.1051 -0.4584
   99SAPS  H11R 9933   1.450   5.768   7.407  1.7390 -3.6405 -0.9578
   99SAPS  C212 9934   1.613   5.834   7.531  1.0914  0.3049 -0.2669
   99SAPS  H12R 9935   1.576   5.775   7.616 -0.4791  1.2622 -0.2489
   99SAPS  C213 9936   1.730   5.910   7.568  0.5298  0.6911 -0.5432
   99SAPS  H13R 9937   1.779   5.936   7.472  1.1247 -2.1491 -1.1024
   99SAPS  H13S 9938   1.794   5.841   7.629 -1.5574 -0.1048  0.8551
   99SAPS  C214 9939   1.712   6.035   7.646  0.3834 -0.2629  0.3992
   99SAPS  H14R 9940   1.615   6.086   7.639  1.2664  1.5195  0.4207
   99SAPS  C215 9941   1.808   6.097   7.720 -0.0997  0.7240 -0.2870
   99SAPS  H15R 9942   1.778   6.181   7.785  1.3451  1.0142  0.0603
   99SAPS  C216 9943   1.958   6.066   7.735 -0.2411 -0.0169 -0.3646
   99SAPS  H16R 9944   1.978   5.973   7.678 -1.3751 -0.0039 -0.8143
   99SAPS  H16S 9945   1.984   6.034   7.839 -0.3264  0.8438 -0.0691
   99SAPS  C217 9946   2.055   6.182   7.702 -0.5901  0.0053 -0.3875
   99SAPS  H17R 9947   2.160   6.176   7.738 -0.6726 -0.8884 -0.2672
   99SAPS  H17S 9948   2.020   6.272   7.758  0.0457 -0.7874  1.3495
   99SAPS  C218 9949   2.054   6.232   7.555 -0.4111 -0.0330 -0.6181
   99SAPS  H18R 9950   2.116   6.323   7.545 -1.5520  1.2279  2.5441
   99SAPS  H18S 9951   1.950   6.265   7.534  0.0442  2.4093  0.6211
   99SAPS  C219 9952   2.112   6.116   7.468 -0.3307 -0.1953 -1.0329
   99SAPS  H19R 9953   2.063   6.019   7.491 -2.9040  1.4323  0.9268
   99SAPS  H19S 9954   2.222   6.113   7.478 -0.1945 -2.4734 -2.4711
   99SAPS  C220 9955   2.084   6.132   7.321 -0.5115  0.2698 -0.1749
   99SAPS  H20R 9956   1.976   6.157   7.317  0.0893  3.2918  0.0471
   99SAPS  H20S 9957   2.098   6.035   7.269  3.5122  0.6350 -0.1532
   99SAPS  H20T 9958   2.143   6.218   7.282  0.0447  0.2284  0.5351
   99SAPS   C33 9959   1.696   5.741   6.758  0.2854 -0.4613 -0.3271
   99SAPS   H3X 9960   1.653   5.648   6.802  2.0114 -0.0497  2.4311
   99SAPS   H3Y 9961   1.689   5.819   6.837 -0.4456 -2.2504  1.4646
   99SAPS   C34 9962   1.844   5.716   6.731 -0.6963 -0.2989  0.2989
   99SAPS   H4X 9963   1.892   5.816   6.739 -0.9623  0.2801 -3.3850
   99SAPS   H4Y 9964   1.844   5.681   6.625  0.2180 -0.2377  0.2679
   99SAPS   C35 9965   1.910   5.620   6.832  0.0907  0.2234  0.1971
   99SAPS   H5X 9966   2.009   5.595   6.786 -0.6763  0.5530 -1.7461
   99SAPS   H5Y 9967   1.849   5.527   6.840 -1.0667  0.8548 -0.8999
   99SAPS   C36 9968   1.916   5.685   6.971 -0.1226  0.1634 -1.0300
   99SAPS   H6X 9969   1.812   5.721   6.985  0.0388  0.4718 -0.6183
   99SAPS   H6Y 9970   1.982   5.774   6.965  0.5473 -0.2406 -0.0854
   99SAPS   C37 9971   1.951   5.599   7.093  0.4396  0.3447  0.2604
   99SAPS   H7X 9972   2.041   5.542   7.060  1.0915  0.6708  1.4083
   99SAPS   H7Y 9973   1.871   5.526   7.115 -0.7031  1.4700 -0.0823
   99SAPS   C38 9974   1.963   5.684   7.224  0.1492  0.4758  0.4263
   99SAPS   H8X 9975   1.864   5.719   7.261 -0.8951  0.4039 -2.1419
   99SAPS   H8Y 9976   2.022   5.778   7.214 -1.6953  1.6299 -0.3238
   99SAPS   C39 9977   2.030   5.611   7.341  0.1745  0.5027  0.2024
   99SAPS   H9X 9978   2.123   5.574   7.294 -0.6650  1.7393 -2.6778
   99SAPS   H9Y 9979   1.965   5.527   7.376 -0.0574  0.6980  0.2463
   99SAPS  C310 9980   2.073   5.699   7.451  0.4389 -0.1728  1.0268
   99SAPS  H10X 9981   1.985   5.765   7.470  0.4752  0.1296  0.1890
   99SAPS  H10Y 9982   2.141   5.772   7.403 -0.1958 -0.1820  0.0853
   99SAPS  C311 9983   2.106   5.628   7.582 -0.5266 -0.0839  0.4087
   99SAPS  H11X 9984   2.205   5.580   7.566 -1.1364 -1.3258  0.2285
   99SAPS  H11Y 9985   2.039   5.541   7.602 -0.7935 -0.5165 -2.0355
   99SAPS  C312 9986   2.095   5.719   7.702  0.5371 -0.7337 -0.4335
   99SAPS  H12X 9987   1.988   5.743   7.719  0.2099 -1.8871 -0.7760
   99SAPS  H12Y 9988   2.159   5.810   7.693  0.3830 -0.6558 -0.7199
   99SAPS  C313 9989   2.129   5.643   7.835  0.9599 -0.5469 -0.5860
   99SAPS  H13X 9990   2.233   5.604   7.833  0.8203 -1.0792  1.0842
   99SAPS  H13Y 9991   2.052   5.567   7.858  0.4948 -0.0622 -0.5303
   99SAPS  C314 9992   2.121   5.744   7.954 -0.7810  0.3218  0.3159
   99SAPS  H14X 9993   2.156   5.842   7.914 -0.7069 -0.4106 -1.5341
   99SAPS  H14Y 9994   2.196   5.722   8.033 -1.5704  2.2980  1.6838
   99SAPS  C315 9995   1.985   5.752   8.025 -0.3421 -0.2846  0.0815
   99SAPS  H15X 9996   1.959   5.645   8.038  0.6128 -0.5991 -0.5590
   99SAPS  H15Y 9997   1.919   5.807   7.956 -0.3525  1.4508  1.3951
   99SAPS  C316 9998   1.993   5.825   8.158  0.0106  0.0558  0.3267
   99SAPS  H16X 9999   2.049   5.920   8.147 -0.6889  0.3647 -0.6890
   99SAPS  H16Y10000   2.052   5.770   8.234  3.5257 -0.6922 -2.6331
   99SAPS  C31710001   1.857   5.852   8.219  0.3590 -0.4899  0.0390
   99SAPS  H17X10002   1.807   5.754   8.236 -2.1316  0.7129 -0.0192
   99SAPS  H17Y10003   1.798   5.898   8.137  1.5755  1.9854  0.4591
   99SAPS  C31810004   1.861   5.937   8.354  0.8465  0.2634  0.3102
   99SAPS  H18X10005   1.764   5.983   8.380 -0.2318 -1.6623 -0.1429
   99SAPS  H18Y10006   1.953   5.997   8.375  1.2246 -1.3022  3.9547
   99SAPS  H18Z10007   1.868   5.870   8.443  0.8318  1.4003  1.2012
  100SAPS     N10008   0.014   4.602   5.842 -0.4262  0.3623 -0.5022
  100SAPS   HN110009   0.079   4.529   5.878  1.8525  1.6153 -1.8222
  100SAPS   HN210010  -0.006   4.575   5.744 -2.2293  1.0001 -0.3532
  100SAPS   HN310011   0.069   4.690   5.839 -0.2833  0.2882 -0.1377
  100SAPS   C1210012  -0.104   4.624   5.929 -0.0818 -0.5546 -0.2847
  100SAPS  H12A10013  -0.067   4.642   6.029  0.7573 -0.4589 -0.6006
  100SAPS   C1310014  -0.189   4.746   5.901 -0.3151 -0.8974  0.5191
  100SAPS  O13A10015  -0.172   4.814   5.798 -0.2184  0.1302  0.7096
  100SAPS  O13B10016  -0.279   4.774   5.979 -0.1915  0.4222  0.0683
  100SAPS   C1110017  -0.204   4.507   5.926  1.1163 -0.1380 -0.5744
  100SAPS  H11A10018  -0.244   4.488   5.824 -0.6673 -0.7840  0.1974
  100SAPS  H11B10019  -0.280   4.520   6.006  0.6105  0.0938 -1.0906
  100SAPS     P10020  -0.162   4.286   6.067 -0.1621 -0.2688 -0.0149
  100SAPS   O1310021  -0.272   4.200   6.021  0.1726 -0.1112  0.3451
  100SAPS   O1410022  -0.034   4.219   6.103 -0.4761  1.2902 -0.1043
  100SAPS   O1210023  -0.126   4.392   5.955  0.4635  0.6646 -0.0132
  100SAPS   O1110024  -0.214   4.378   6.184 -0.2283 -0.1847 -0.0072
  100SAPS    C110025  -0.122   4.434   6.278  0.4514 -0.1372 -0.3627
  100SAPS    HA10026  -0.027   4.456   6.225  0.7721  0.9350  0.6166
  100SAPS    HB10027  -0.160   4.529   6.319 -1.6792 -1.3706  0.7048
  100SAPS    C210028  -0.091   4.339   6.401  0.6437 -0.3114 -0.3551
  100SAPS    HS10029  -0.085   4.240   6.351  1.5965  0.5441 -2.0553
  100SAPS   O2110030  -0.194   4.363   6.503  0.5155 -0.2968  0.4810
  100SAPS   C2110031  -0.267   4.258   6.544 -0.7078 -0.2405 -0.3987
  100SAPS   O2210032  -0.244   4.144   6.532 -0.1186  0.0343 -0.2442
  100SAPS   C2210033  -0.381   4.319   6.631  0.1244  0.6228  1.0526
  100SAPS   H2R10034  -0.409   4.412   6.578  1.8709  0.4764 -0.2408
  100SAPS   H2S10035  -0.459   4.242   6.645 -1.2911  1.6479 -0.7460
  100SAPS    C310036   0.053   4.369   6.451  0.0323  0.1094  0.3536
  100SAPS    HX10037   0.052   4.480   6.462 -1.5494  0.2816 -1.1644
  100SAPS    HY10038   0.122   4.349   6.367 -0.6431 -0.5070 -0.0628
  100SAPS   O3110039   0.082   4.299   6.574 -0.0617  0.2628  0.8318
  100SAPS   C3110040   0.174   4.362   6.658  0.3066  0.1287  0.3508
  100SAPS   O3210041   0.243   4.459   6.627 -0.5767 -0.2728  0.4441
  100SAPS   C3210042   0.181   4.283   6.790  0.0994 -0.4394  0.3361
  100SAPS   H2X10043   0.259   4.204   6.791  0.3801 -0.1803  1.9541
  100SAPS   H2Y10044   0.081   4.239   6.811 -0.7653  0.8515 -0.8860
  100SAPS   C2310045  -0.338   4.368   6.770  0.1861  0.2501 -0.2327
  100SAPS   H3R10046  -0.395   4.460   6.796  0.1663  0.2402 -0.2415
  100SAPS   H3S10047  -0.229   4.390   6.774  0.7076 -1.8685 -1.4060
  100SAPS   C2410048  -0.377   4.275   6.889  0.5183 -0.1871  0.2675
  100SAPS   H4R10049  -0.478   4.230   6.877 -0.5992  0.9307  4.1962
  100SAPS   H4S10050  -0.391   4.336   6.981  2.5609 -0.5567  0.8865
  100SAPS   C2510051  -0.274   4.170   6.919 -0.0829 -0.3428  0.0192
  100SAPS   H5R10052  -0.253   4.119   6.824 -0.3899  0.8505 -0.7161
  100SAPS   C2610053  -0.205   4.142   7.032  0.6282  0.3264  0.6571
  100SAPS   H6R10054  -0.126   4.066   7.030  1.5044  0.9854  4.0259
  100SAPS   C2710055  -0.209   4.208   7.170  0.0447  0.3857  0.2853
  100SAPS   H7R10056  -0.267   4.302   7.161  0.8030  0.8935  0.6643
  100SAPS   H7S10057  -0.109   4.246   7.198 -1.4516  4.6868  0.4448
  100SAPS   C2810058  -0.272   4.124   7.276 -0.1770 -0.6610 -0.1829
  100SAPS   H8R10059  -0.346   4.052   7.237 -0.7491  0.0862 -0.5081
  100SAPS   C2910060  -0.250   4.118   7.414 -0.4870  0.4598 -0.0304
  100SAPS   H9R10061  -0.308   4.053   7.481  0.0391 -0.6759 -0.6498
  100SAPS  C21010062  -0.137   4.197   7.485  0.2230 -0.0334  0.0131
  100SAPS  H10R10063  -0.141   4.302   7.448  0.4402  0.0501  0.2196
  100SAPS  H10S10064  -0.040   4.177   7.435  0.2617 -1.4304  0.5998
  100SAPS  C21110065  -0.132   4.168   7.633 -0.4515  0.2783 -0.2724
  100SAPS  H11R10066  -0.182   4.079   7.675  0.1806 -0.0485 -0.2082
  100SAPS  C21210067  -0.076   4.247   7.725  0.1665 -1.0316 -0.1714
  100SAPS  H12R10068  -0.067   4.207   7.827 -2.1654 -1.4273 -0.0615
  100SAPS  C21310069  -0.003   4.373   7.691 -0.1681 -0.5332  0.0293
  100SAPS  H13R10070   0.007   4.389   7.582  0.2179  0.2049  0.1652
  100SAPS  H13S10071   0.101   4.349   7.722 -0.7645 -0.1572  2.6317
  100SAPS  C21410072  -0.065   4.490   7.769 -0.7621  0.5603  0.0130
  100SAPS  H14R10073  -0.175   4.500   7.773 -0.6619  1.4413  1.0204
  100SAPS  C21510074   0.008   4.586   7.831 -0.5150  0.2461  0.1188
  100SAPS  H15R10075  -0.047   4.669   7.877  0.6302  1.8920 -1.3193
  100SAPS  C21610076   0.155   4.601   7.849  0.0046 -0.3833  0.2088
  100SAPS  H16R10077   0.194   4.702   7.824  2.0024 -1.1131  0.2014
  100SAPS  H16S10078   0.223   4.535   7.790  0.3400  0.9003 -0.8848
  100SAPS  C21710079   0.182   4.590   8.001  0.2507  0.5229  0.3116
  100SAPS  H17R10080   0.130   4.667   8.062  0.6551 -0.0552  1.4316
  100SAPS  H17S10081   0.292   4.587   8.016  0.3502 -1.4852 -0.5329
  100SAPS  C21810082   0.135   4.462   8.078 -0.7163  0.1178  0.1041
  100SAPS  H18R10083   0.164   4.379   8.009 -3.9326 -0.6396 -0.4959
  100SAPS  H18S10084   0.025   4.450   8.089 -0.4715 -0.5992  2.2599
  100SAPS  C21910085   0.198   4.436   8.219 -0.1250 -0.3372  0.5488
  100SAPS  H19R10086   0.309   4.426   8.219  0.0404  1.1506 -0.4350
  100SAPS  H19S10087   0.148   4.348   8.265 -2.2966  1.3679  1.6430
  100SAPS  C22010088   0.166   4.545   8.327  0.5111 -0.4818  0.0402
  100SAPS  H20R10089   0.219   4.514   8.420  0.7937  1.5614  0.5907
  100SAPS  H20S10090   0.056   4.537   8.344  0.2548 -0.8754 -1.6074
  100SAPS  H20T10091   0.191   4.647   8.292 -3.0800  0.5071 -0.0033
  100SAPS   C3310092   0.226   4.376   6.901 -0.9173 -0.2646 -0.8400
  100SAPS   H3X10093   0.170   4.470   6.880 -0.2426  0.1058 -0.9836
  100SAPS   H3Y10094   0.334   4.397   6.892 -1.1007  1.8013  0.9660
  100SAPS   C3410095   0.192   4.326   7.045 -0.0860  0.5385 -0.3490
  100SAPS   H4X10096   0.244   4.229   7.063  0.5704  1.2731  2.1325
  100SAPS   H4Y10097   0.087   4.295   7.063  0.1894 -0.5110 -0.4744
  100SAPS   C3510098   0.248   4.418   7.157 -0.6616 -0.5953 -0.3543
  100SAPS   H5X10099   0.162   4.482   7.183  0.7666  1.7201 -1.0151
  100SAPS   H5Y10100   0.312   4.490   7.101  1.9537 -0.5823  2.4240
  100SAPS   C3610101   0.326   4.342   7.262  0.3763 -0.4283  0.4555
  100SAPS   H6X10102   0.418   4.303   7.214  0.4427  0.4494 -0.1449
  100SAPS   H6Y10103   0.271   4.256   7.307  0.3171 -1.3850 -1.3538
  100SAPS   C3710104   0.368   4.441   7.374  0.8927  0.5656 -0.4535
  100SAPS   H7X10105   0.273   4.473   7.421  1.3737 -1.1673  1.8573
  100SAPS   H7Y10106   0.404   4.531   7.319 -2.1625  2.6226  0.6740
  100SAPS   C3810107   0.474   4.392   7.477 -0.3336 -0.6940  0.8080
  100SAPS   H8X10108   0.575   4.406   7.432 -0.7958  0.0682 -0.0262
  100SAPS   H8Y10109   0.452   4.292   7.518  1.2702 -1.2242  0.4394
  100SAPS   C3910110   0.485   4.481   7.604 -0.1366 -0.2655  0.2181
  100SAPS   H9X10111   0.383   4.485   7.648 -0.3807 -0.6213 -0.3040
  100SAPS   H9Y10112   0.524   4.579   7.570  0.0164  0.0063  1.1484
  100SAPS  C31010113   0.568   4.416   7.719 -0.4300 -0.1502  0.3396
  100SAPS  H10X10114   0.664   4.390   7.667 -0.0259  0.1016  0.9557
  100SAPS  H10Y10115   0.526   4.316   7.746  0.4436 -1.2140 -1.9272
  100SAPS  C31110116   0.593   4.509   7.839  0.5751  0.5828 -0.7673
  100SAPS  H11X10117   0.498   4.544   7.885  0.7892 -1.2454  1.2227
  100SAPS  H11Y10118   0.656   4.594   7.804  2.6551 -0.9053 -0.8329
  100SAPS  C31210119   0.686   4.445   7.945  0.5522  0.4082 -0.2215
  100SAPS  H12X10120   0.783   4.421   7.896  0.2292 -0.1726 -0.5873
  100SAPS  H12Y10121   0.646   4.346   7.976 -1.8032  0.9633 -1.2611
  100SAPS  C31310122   0.723   4.535   8.067 -0.5386  0.1264  0.7757
  100SAPS  H13X10123   0.697   4.640   8.044  1.8242  0.8129  0.9362
  100SAPS  H13Y10124   0.832   4.523   8.086 -0.6896  0.7731  2.2167
  100SAPS  C31410125   0.642   4.495   8.200 -0.7257 -0.2545 -0.3685
  100SAPS  H14X10126   0.556   4.431   8.172 -1.5403  1.3295 -1.6642
  100SAPS  H14Y10127   0.596   4.586   8.245 -0.3310 -0.6547  0.9003
  100SAPS  C31510128   0.725   4.401   8.299 -0.0397  0.4338  0.5769
  100SAPS  H15X10129   0.833   4.425   8.302 -0.0266  0.3851  0.4960
  100SAPS  H15Y10130   0.718   4.301   8.250 -1.5148  1.1686 -0.8222
  100SAPS  C31610131   0.657   4.389   8.437 -0.5854  0.0133 -0.3152
  100SAPS  H16X10132   0.677   4.485   8.489  1.9255 -0.7769  0.3267
  100SAPS  H16Y10133   0.721   4.318   8.494 -2.0145 -0.5791  0.6138
  100SAPS  C31710134   0.508   4.343   8.442  0.0987 -0.2664 -0.1374
  100SAPS  H17X10135   0.437   4.402   8.380 -1.9410 -2.8384 -0.4191
  100SAPS  H17Y10136   0.480   4.372   8.545 -0.8888  0.0779 -0.4948
  100SAPS  C31810137   0.490   4.197   8.409  0.0955  0.5845 -0.5741
  100SAPS  H18X10138   0.553   4.173   8.322 -2.1878  1.5732 -2.6336
  100SAPS  H18Y10139   0.387   4.175   8.374  0.2872  0.7187 -1.2308
  100SAPS  H18Z10140   0.511   4.128   8.494  0.8868  0.1113 -1.1455
  101OSM      N10141   0.303   4.769  10.722  0.3045 -0.0196 -0.0481
  101OSM    C1510142   0.245   4.814  10.853 -1.0201 -0.5820 -0.2429
  101OSM   H15A10143   0.311   4.848  10.931 -0.0054 -0.7579 -0.9992
  101OSM   H15B10144   0.193   4.731  10.900 -2.6336 -0.8165 -2.2885
  101OSM   H15C10145   0.159   4.876  10.831 -0.7058 -1.0500 -3.2298
  101OSM    C1410146   0.357   4.897  10.650  0.2740  0.3920  0.6624
  101OSM   H14A10147   0.397   4.870  10.554 -0.7976 -1.4573  0.6994
  101OSM   H14B10148   0.434   4.943  10.712  0.7336 -0.3025  0.6151
  101OSM   H14C10149   0.281   4.972  10.632 -1.1031 -1.3573 -1.1316
  101OSM    C1310150   0.433   4.693  10.754  0.2841 -0.2746 -0.0125
  101OSM   H13A10151   0.414   4.588  10.770 -1.4935  0.1966  1.2640
  101OSM   H13B10152   0.487   4.717  10.844  2.0083 -1.7400 -0.5991
  101OSM   H13C10153   0.498   4.707  10.669 -0.6820  1.1973 -0.5587
  101OSM    C1210154   0.211   4.689  10.626 -0.7577 -0.3719 -0.2220
  101OSM   H12A10155   0.159   4.617  10.687 -1.2770  1.3043  1.4205
  101OSM   H12B10156   0.271   4.635  10.554  3.3665 -0.4808  2.8984
  101OSM    C1110157   0.092   4.771  10.560 -0.1128  0.5099 -0.3307
  101OSM   H11A10158   0.033   4.712  10.486 -1.3853  1.0466  0.2208
  101OSM   H11B10159   0.137   4.858  10.507  0.5414  0.0637 -0.5242
  101OSM      P10160  -0.101   4.719  10.705 -0.2272  0.2085 -0.0461
  101OSM    O1310161  -0.036   4.598  10.759  0.2586  0.2250 -0.5698
  101OSM    O1410162  -0.183   4.790  10.806  0.4733  0.3042  0.1445
  101OSM    O1110163  -0.195   4.689  10.578  0.1499 -0.4877 -0.4585
  101OSM    O1210164   0.002   4.821  10.657 -0.0260 -0.3236  0.0374
  101OSM    C1S10165  -0.259   4.796  10.509  0.1618 -0.3936  0.0887
  101OSM    H1S10166  -0.203   4.892  10.511 -1.9579  0.8899  0.8925
  101OSM    H1T10167  -0.361   4.804  10.553 -0.4473 -3.5520 -0.4632
  101OSM     NF10168  -0.327   4.883  10.285 -0.0954  0.2559 -0.5520
  101OSM    HNF10169  -0.423   4.883  10.257  0.4148  3.4066 -2.7657
  101OSM    C2S10170  -0.276   4.763  10.355  0.6203  0.4512  0.8566
  101OSM    H2S10171  -0.182   4.745  10.298  0.2306  2.8133 -0.6874
  101OSM    C3S10172  -0.374   4.640  10.332 -0.3130  0.1675  0.4330
  101OSM    H3S10173  -0.479   4.661  10.361 -0.4281  2.0995 -1.2079
  101OSM     O310174  -0.324   4.526  10.397 -0.3749 -0.2090 -0.8487
  101OSM    HO310175  -0.267   4.552  10.470 -1.8486 -2.0628  1.0764
  101OSM    C4S10176  -0.371   4.598  10.184 -0.0794 -0.2822 -0.3946
  101OSM    H4S10177  -0.278   4.555  10.145 -0.6001 -2.6882  0.8550
  101OSM    C5S10178  -0.472   4.602  10.101  0.5007 -0.4597  0.6988
  101OSM    H5S10179  -0.575   4.615  10.137  0.4891  2.3349 -0.1481
  101OSM    C6S10180  -0.470   4.554   9.958  0.1441  0.4831  0.8191
  101OSM    H6S10181  -0.549   4.477   9.950 -1.0669  1.6000  1.6649
  101OSM    H6T10182  -0.379   4.493   9.942 -0.4164 -0.0740 -0.3479
  101OSM    C7S10183  -0.479   4.672   9.856  0.2428 -0.2316  0.8385
  101OSM    H7S10184  -0.401   4.750   9.871 -0.1344  0.1287  0.9396
  101OSM    H7T10185  -0.575   4.727   9.860 -0.3749 -1.2575  0.4911
  101OSM    C8S10186  -0.464   4.625   9.709 -0.2438 -0.2368  0.1458
  101OSM    H8S10187  -0.545   4.549   9.697 -0.8315  0.3885  0.1125
  101OSM    H8T10188  -0.364   4.577   9.702 -1.7408 -4.0303  1.6891
  101OSM    C9S10189  -0.475   4.733   9.595 -0.3806 -0.7659 -0.2420
  101OSM    H9S10190  -0.400   4.813   9.612  0.6708 -1.6999 -0.3441
  101OSM    H9T10191  -0.577   4.774   9.609  0.2316 -0.1561  3.6398
  101OSM   C10S10192  -0.451   4.677   9.455  0.2734 -0.2592 -0.1259
  101OSM   H10S10193  -0.539   4.613   9.429  0.5806 -1.7400  2.1683
  101OSM   H10T10194  -0.361   4.613   9.444 -1.0407 -2.2667  0.2457
  101OSM   C11S10195  -0.438   4.781   9.342 -0.1471 -0.0611  0.5998
  101OSM   H11S10196  -0.331   4.809   9.347  0.5775 -2.6300  0.9947
  101OSM   H11T10197  -0.504   4.871   9.344  0.8435  0.6673  2.0932
  101OSM   C12S10198  -0.459   4.726   9.195 -0.5442 -0.4226  0.3194
  101OSM   H12S10199  -0.541   4.652   9.196  0.0578 -1.1293 -0.7730
  101OSM   H12T10200  -0.368   4.668   9.170 -0.0516  0.0181  1.0549
  101OSM   C13S10201  -0.480   4.838   9.082  0.0674  0.0116 -0.0083
  101OSM   H13S10202  -0.572   4.896   9.107  0.9319  1.7124 -0.6141
  101OSM   H13T10203  -0.512   4.789   8.987 -1.0132  0.2467  0.2234
  101OSM   C14S10204  -0.365   4.934   9.052 -0.2450 -0.7637  0.1602
  101OSM   H14S10205  -0.275   4.876   9.022  1.3982  2.2290 -1.0839
  101OSM   H14T10206  -0.334   5.000   9.135  1.1294  0.9788 -1.6388
  101OSM   C15S10207  -0.398   5.035   8.939  0.5155 -0.1899 -0.4091
  101OSM   H15S10208  -0.323   5.117   8.946  1.6492 -1.1851 -0.6110
  101OSM   H15T10209  -0.500   5.076   8.958  0.8112 -0.0257  0.8899
  101OSM   C16S10210  -0.382   4.963   8.808 -0.0097 -0.2336  0.6144
  101OSM   H16S10211  -0.461   4.889   8.786  1.1147 -1.1658 -0.4559
  101OSM   H16T10212  -0.282   4.917   8.793  0.4736  1.0795 -0.3841
  101OSM   C17S10213  -0.396   5.072   8.697 -0.7122 -0.4103  0.2846
  101OSM   H17S10214  -0.313   5.146   8.702 -0.3036 -0.9325  1.4919
  101OSM   H17T10215  -0.492   5.127   8.703  0.5340  1.9198  0.3070
  101OSM   C18S10216  -0.385   5.008   8.557  0.8233  0.4085  0.2000
  101OSM   H18S10217  -0.277   4.990   8.538  0.8687 -0.0929  0.9270
  101OSM   H18T10218  -0.420   5.086   8.486  1.4841  1.3078  0.8447
  101OSM   H18U10219  -0.442   4.914   8.543 -1.2547  1.2845  2.2851
  101OSM    C1F10220  -0.267   5.000  10.263 -0.0567  0.0841 -0.3289
  101OSM     OF10221  -0.162   5.028  10.324 -0.6918  0.2232  0.6738
  101OSM    C2F10222  -0.335   5.102  10.170  0.3778  0.4401 -0.1818
  101OSM    H2F10223  -0.328   5.203  10.215  1.6088  0.3370 -0.0997
  101OSM    H2G10224  -0.444   5.082  10.168  0.0850  1.6793  1.4003
  101OSM    C3F10225  -0.264   5.113  10.038 -0.1040  0.2213 -0.6233
  101OSM    H3F10226  -0.214   5.021  10.003 -3.2224 -1.2760 -1.4579
  101OSM    H3G10227  -0.179   5.184  10.047  0.6827 -0.6005 -1.3628
  101OSM    C4F10228  -0.368   5.159   9.927 -0.5019  0.0552 -0.1902
  101OSM    H4F10229  -0.418   5.256   9.951  2.6819  2.2630 -1.7624
  101OSM    H4G10230  -0.438   5.074   9.921 -0.3270 -0.1068  0.0293
  101OSM    C5F10231  -0.293   5.177   9.801 -0.5049 -0.4133  0.2722
  101OSM    H5F10232  -0.222   5.094   9.785 -0.3613 -0.1283 -0.5854
  101OSM    H5G10233  -0.230   5.268   9.808 -2.0385  0.9249 -1.9802
  101OSM    C6F10234  -0.384   5.189   9.679  1.1418 -0.3436 -0.2716
  101OSM    H6F10235  -0.451   5.276   9.694  2.4267  0.6755 -0.2207
  101OSM    H6G10236  -0.446   5.097   9.674  0.8785 -0.1137 -1.4823
  101OSM    C7F10237  -0.308   5.224   9.555 -0.1316  0.6960 -0.6446
  101OSM    H7F10238  -0.222   5.156   9.536 -0.6934  0.2160 -1.5174
  101OSM    H7G10239  -0.262   5.325   9.555  0.3265  0.5001  0.4266
  101OSM    C8F10240  -0.394   5.221   9.432  0.0470  0.1994  0.2713
  101OSM    H8F10241  -0.478   5.293   9.439 -1.1851 -1.0463 -1.0994
  101OSM    H8G10242  -0.438   5.120   9.420  0.4476  0.1234 -0.6455
  101OSM    C9F10243  -0.304   5.244   9.312  0.3349  0.0501 -0.5076
  101OSM    H9F10244  -0.215   5.184   9.290  0.2021  0.2549 -1.6261
  101OSM   C10F10245  -0.332   5.340   9.230 -0.3942  0.3364  0.2980
  101OSM   H10F10246  -0.282   5.337   9.132 -0.0232 -0.6783  0.5024
  101OSM   C11F10247  -0.452   5.437   9.227 -0.7370  0.4612 -0.4162
  101OSM   H11F10248  -0.420   5.536   9.190  2.2657 -0.6962 -1.2077
  101OSM   H11G10249  -0.502   5.465   9.323 -1.1189  0.7968 -0.7111
  101OSM   C12F10250  -0.565   5.386   9.140  0.9083  0.5524 -0.2203
  101OSM   H12F10251  -0.658   5.446   9.148  0.3112 -0.4655  0.8603
  101OSM   H12G10252  -0.595   5.279   9.153 -0.0358  0.8159 -0.1250
  101OSM   C13F10253  -0.537   5.411   8.993  0.4121  0.1227 -0.3693
  101OSM   H13F10254  -0.453   5.350   8.954  1.4424  1.9895 -1.2368
  101OSM   H13G10255  -0.517   5.520   8.981 -0.0481  0.6757  2.9303
  101OSM   C14F10256  -0.658   5.384   8.903  0.3100 -0.3660 -0.3467
  101OSM   H14F10257  -0.742   5.446   8.939 -0.7426 -1.7714 -0.2830
  101OSM   H14G10258  -0.687   5.279   8.925 -1.1908  0.3051  1.0314
  101OSM   C15F10259  -0.638   5.399   8.756 -1.0011  0.3172  0.4115
  101OSM   H15F10260  -0.552   5.340   8.717  1.0282  2.5098  1.2785
  101OSM   H15G10261  -0.607   5.504   8.737 -0.5768  0.3279  1.1582
  101OSM   C16F10262  -0.778   5.380   8.688  0.2512  1.1119 -0.4226
  101OSM   H16F10263  -0.847   5.456   8.731 -1.8640 -0.7842 -0.2406
  101OSM   H16G10264  -0.810   5.278   8.721 -1.6352  1.8770  0.2786
  101OSM   C17F10265  -0.779   5.409   8.536  0.2032  0.6533 -0.1078
  101OSM   H17F10266  -0.737   5.510   8.515 -0.6002  1.3744  1.5303
  101OSM   H17G10267  -0.885   5.411   8.501  0.5869 -2.4781 -1.7671
  101OSM   C18F10268  -0.708   5.298   8.464  0.5597 -0.6117 -0.4247
  101OSM   H18F10269  -0.773   5.208   8.467  0.3095 -0.4373 -0.5702
  101OSM   H18G10270  -0.604   5.273   8.497  0.7247  0.3618 -0.1497
  101OSM   H18H10271  -0.707   5.335   8.360 -2.0871 -1.1972 -0.7089
  102OSM      N10272   4.949   4.132  10.846  0.1321 -0.0995  0.1061
  102OSM    C1510273   4.947   4.262  10.912  0.5934 -0.3794 -0.5898
  102OSM   H15A10274   4.848   4.297  10.936  1.0640  0.4905  0.1506
  102OSM   H15B10275   4.988   4.339  10.848  0.8139  0.6558  0.7695
  102OSM   H15C10276   4.991   4.258  11.010  1.2349 -0.8700 -0.8893
  102OSM    C1410277   4.891   4.033  10.937 -0.0437  0.0558 -0.3207
  102OSM   H14A10278   4.891   3.934  10.894 -2.2384  0.3907 -1.2264
  102OSM   H14B10279   4.792   4.057  10.974 -0.7369 -3.4588  0.4529
  102OSM   H14C10280   4.956   4.022  11.022  0.3462 -1.0369 -0.7365
  102OSM    C1310281   4.858   4.139  10.721 -0.1599  0.5222  0.6977
  102OSM   H13A10282   4.864   4.044  10.670 -1.0663  0.0395  1.4514
  102OSM   H13B10283   4.910   4.218  10.669  1.8663 -0.8217  0.5586
  102OSM   H13C10284   4.760   4.174  10.747  0.2372  0.3251  2.6425
  102OSM    C1210285   5.089   4.090  10.807 -0.3060 -0.0435 -0.1115
  102OSM   H12A10286   5.082   3.996  10.754 -0.1532 -0.4093  0.5128
  102OSM   H12B10287   5.141   4.059  10.896 -0.8261 -2.6634 -0.6518
  102OSM    C1110288   5.183   4.179  10.718 -0.4287 -0.8587  0.0777
  102OSM   H11A10289   5.129   4.194  10.622  0.2562  0.6190 -0.1093
  102OSM   H11B10290   5.267   4.114  10.684 -1.7785 -3.2781  1.1414
  102OSM      P10291   5.343   4.324  10.849  0.0301 -0.5353 -0.6005
  102OSM    O1310292   5.406   4.457  10.841  0.2800 -0.0402 -0.3586
  102OSM    O1410293   5.331   4.263  10.983  0.0239  0.3487  0.2534
  102OSM    O1110294   5.448   4.228  10.775 -0.4074  0.4726  0.1157
  102OSM    O1210295   5.216   4.314  10.760  0.1671  0.3650  0.5310
  102OSM    C1S10296   5.471   4.248  10.633  0.7233 -0.1310 -0.6751
  102OSM    H1S10297   5.376   4.282  10.587 -1.7658 -1.4314  3.0294
  102OSM    H1T10298   5.485   4.143  10.599 -0.2293 -0.8559  1.0651
  102OSM     NF10299   5.599   4.314  10.439  0.0098 -0.4711 -0.0990
  102OSM    HNF10300   5.671   4.258  10.398  0.8500  0.1945  0.4218
  102OSM    C2S10301   5.597   4.335  10.585 -0.2901 -0.8368 -0.3253
  102OSM    H2S10302   5.580   4.442  10.610  1.7750 -0.7654  1.0771
  102OSM    C3S10303   5.721   4.294  10.666 -0.5349  0.3639 -0.1508
  102OSM    H3S10304   5.734   4.185  10.645 -1.7863 -0.5830  3.2386
  102OSM     O310305   5.696   4.305  10.802 -0.9872 -0.3314 -0.4469
  102OSM    HO310306   5.601   4.320  10.804 -1.2494 -1.7956  1.6829
  102OSM    C4S10307   5.835   4.368  10.629 -0.0208 -0.0278 -0.3002
  102OSM    H4S10308   5.822   4.476  10.645  0.5558  0.2772 -1.7579
  102OSM    C5S10309   5.948   4.308  10.577 -0.2847 -0.7431 -0.1446
  102OSM    H5S10310   5.962   4.199  10.584  0.7231 -0.6719 -0.8126
  102OSM    C6S10311   6.070   4.390  10.531 -0.2059  0.2770  0.1821
  102OSM    H6S10312   6.135   4.378  10.621 -0.4886 -0.4462  0.2995
  102OSM    H6T10313   6.053   4.499  10.523 -0.0070  0.3738  0.9327
  102OSM    C7S10314   6.163   4.339  10.418  0.5131 -0.8391 -0.4423
  102OSM    H7S10315   6.160   4.228  10.415 -0.8381 -0.8166 -0.5024
  102OSM    H7T10316   6.270   4.361  10.438  1.2124 -3.2578 -1.2068
  102OSM    C8S10317   6.110   4.396  10.281 -0.5054  0.4594 -0.6225
  102OSM    H8S10318   6.190   4.383  10.205 -1.3654  2.2635 -1.8965
  102OSM    H8T10319   6.095   4.505  10.293  0.0433  0.4221  0.4799
  102OSM    C9S10320   5.984   4.330  10.224 -0.0877  0.0574 -0.7881
  102OSM    H9S10321   5.902   4.362  10.293  0.7226 -1.1545  0.7883
  102OSM    H9T10322   5.994   4.219  10.231 -0.6518  0.1042  1.8648
  102OSM   C10S10323   5.952   4.376  10.076  1.0938  0.4516 -0.1428
  102OSM   H10S10324   5.862   4.318  10.047  1.6479  0.1025 -1.2231
  102OSM   H10T10325   6.032   4.334  10.011  0.4786 -1.6440  0.3745
  102OSM   C11S10326   5.933   4.519  10.058  0.0230  0.5312  0.6452
  102OSM   H11S10327   6.029   4.576  10.049 -0.9954  2.2258  0.0508
  102OSM   H11T10328   5.883   4.559  10.148 -2.0427 -0.5661  0.0336
  102OSM   C12S10329   5.849   4.556   9.929 -0.0517  0.4662 -0.4213
  102OSM   H12S10330   5.863   4.666   9.922  0.3074  0.3948 -0.8580
  102OSM   H12T10331   5.741   4.528   9.930  0.6464 -2.5906  0.7768
  102OSM   C13S10332   5.899   4.496   9.793 -0.1062 -0.2409 -0.7250
  102OSM   H13S10333   5.858   4.393   9.790 -2.7955  0.7294 -0.8447
  102OSM   H13T10334   6.009   4.490   9.802  0.1331  1.1633 -2.2426
  102OSM   C14S10335   5.854   4.578   9.669  0.0672 -0.7802 -0.5324
  102OSM   H14S10336   5.906   4.676   9.672 -0.7906 -0.3062  2.4741
  102OSM   H14T10337   5.746   4.604   9.669  0.3731  1.0120  2.1550
  102OSM   C15S10338   5.908   4.503   9.547  0.1293 -0.5535  0.2079
  102OSM   H15S10339   5.851   4.409   9.531  0.8726 -0.8116 -0.9801
  102OSM   H15T10340   6.017   4.486   9.541  0.7060  1.2686  3.3398
  102OSM   C16S10341   5.880   4.584   9.423  0.3032 -0.3071  0.6572
  102OSM   H16S10342   5.935   4.681   9.420 -0.8371  0.3458  0.6022
  102OSM   H16T10343   5.773   4.613   9.420  0.0763 -1.1511  0.3170
  102OSM   C17S10344   5.936   4.512   9.300  0.4487  0.2429 -0.2441
  102OSM   H17S10345   5.883   4.415   9.289  1.3403 -0.0996 -1.8918
  102OSM   H17T10346   6.045   4.493   9.306  0.5961  1.4563  1.8901
  102OSM   C18S10347   5.913   4.606   9.178 -0.3951  0.3248  0.0602
  102OSM   H18S10348   5.815   4.658   9.171 -0.9605 -0.9073 -5.2254
  102OSM   H18T10349   5.909   4.542   9.087 -0.3470 -1.3845  1.2061
  102OSM   H18U10350   5.989   4.687   9.178  0.8430 -0.7545  1.9320
  102OSM    C1F10351   5.507   4.368  10.360  0.0039  0.2894 -0.4955
  102OSM     OF10352   5.408   4.431  10.397  0.3395 -0.2456 -0.0328
  102OSM    C2F10353   5.542   4.361  10.214  0.0915  0.1274 -0.1581
  102OSM    H2F10354   5.637   4.305  10.207 -0.7169 -1.0646 -4.0750
  102OSM    H2G10355   5.565   4.465  10.183 -0.0405  0.2148  0.0351
  102OSM    C3F10356   5.436   4.294  10.129  0.0912  0.3895  0.9819
  102OSM    H3F10357   5.345   4.355  10.148 -1.2152 -0.1157 -2.7498
  102OSM    H3G10358   5.419   4.190  10.164  1.1285  0.2440  1.0637
  102OSM    C4F10359   5.466   4.291   9.983  0.1839 -1.0478 -0.1205
  102OSM    H4F10360   5.511   4.389   9.957  1.5900 -1.2777  1.2977
  102OSM    H4G10361   5.376   4.275   9.920  0.5271 -2.7516 -0.2117
  102OSM    C5F10362   5.576   4.190   9.953  0.4429 -0.8113 -0.0633
  102OSM    H5F10363   5.557   4.083   9.973  2.3188 -1.4217 -1.2866
  102OSM    H5G10364   5.658   4.218  10.023  1.6814  0.8757 -2.0621
  102OSM    C6F10365   5.622   4.178   9.812  0.4463 -0.0500  0.2439
  102OSM    H6F10366   5.649   4.281   9.778 -1.7290  0.4186 -0.2061
  102OSM    H6G10367   5.549   4.142   9.737 -0.7997  2.5379  0.0794
  102OSM    C7F10368   5.746   4.090   9.809  0.2915 -0.3594 -0.5864
  102OSM    H7F10369   5.712   3.998   9.861 -3.3200  1.3479  0.4353
  102OSM    H7G10370   5.810   4.156   9.871 -2.3653  0.2367  1.7310
  102OSM    C8F10371   5.807   4.056   9.674  0.0496 -0.4192 -0.4328
  102OSM    H8F10372   5.877   3.973   9.696 -0.2283 -0.5726 -0.1265
  102OSM    H8G10373   5.850   4.151   9.634  2.0739  0.0447  2.5381
  102OSM    C9F10374   5.709   3.993   9.581 -0.0345 -0.4441 -0.5968
  102OSM    H9F10375   5.659   3.910   9.633  1.0209  0.3325  1.8350
  102OSM   C10F10376   5.662   4.028   9.459  0.1176 -0.0825 -0.0356
  102OSM   H10F10377   5.591   3.956   9.416 -1.0626  0.8617  0.2954
  102OSM   C11F10378   5.703   4.152   9.385  0.3224  0.2568 -0.0555
  102OSM   H11F10379   5.676   4.135   9.279 -0.1653 -0.2933  0.1551
  102OSM   H11G10380   5.814   4.164   9.388  0.1614  2.0631 -0.1771
  102OSM   C12F10381   5.631   4.282   9.443 -0.0759 -0.4745  0.2426
  102OSM   H12F10382   5.668   4.373   9.391  1.2792 -1.1935 -0.1239
  102OSM   H12G10383   5.656   4.306   9.548 -1.0083  2.0670 -0.0356
  102OSM   C13F10384   5.478   4.275   9.432  0.3126  0.6338 -0.0696
  102OSM   H13F10385   5.444   4.196   9.502  2.4362 -2.1232 -1.9202
  102OSM   H13G10386   5.445   4.235   9.333  0.4933 -2.1690  0.9053
  102OSM   C14F10387   5.394   4.398   9.469  0.0038 -0.5498 -0.0085
  102OSM   H14F10388   5.286   4.375   9.466 -1.1947  3.4719  3.0573
  102OSM   H14G10389   5.408   4.476   9.391  2.2788 -0.5695  0.3138
  102OSM   C15F10390   5.438   4.454   9.606  0.0931  0.2291 -0.0890
  102OSM   H15F10391   5.522   4.527   9.599  0.6003 -0.3626 -0.1756
  102OSM   H15G10392   5.470   4.383   9.685  0.7676  1.7958  1.1132
  102OSM   C16F10393   5.317   4.535   9.656  0.0403 -0.4829  0.2453
  102OSM   H16F10394   5.237   4.459   9.671  0.5880 -1.2015 -0.4075
  102OSM   H16G10395   5.295   4.605   9.573  1.1062  0.2638  0.5693
  102OSM   C17F10396   5.337   4.603   9.795  0.5690 -0.9819 -0.2572
  102OSM   H17F10397   5.420   4.676   9.790  1.9763 -2.5714 -1.6780
  102OSM   H17G10398   5.368   4.532   9.875 -0.7302  0.2525  1.4036
  102OSM   C18F10399   5.208   4.659   9.853  0.2472  0.1796  0.2858
  102OSM   H18F10400   5.141   4.575   9.884 -0.8279  0.7997 -0.2823
  102OSM   H18G10401   5.154   4.730   9.787  0.5757 -1.5319 -1.9710
  102OSM   H18H10402   5.225   4.717   9.946  1.1708  0.6453 -0.1685
  103OSM      N10403   0.611   0.618  11.178  0.0730  0.6859  0.0358
  103OSM    C1510404   0.746   0.594  11.241  0.0815  0.6347 -0.0170
  103OSM   H15A10405   0.785   0.498  11.208  0.4787  0.1713  1.6961
  103OSM   H15B10406   0.743   0.599  11.349 -1.1577 -0.1830  0.0104
  103OSM   H15C10407   0.812   0.672  11.207  1.0378  0.4793  1.4117
  103OSM    C1410408   0.514   0.529  11.234 -0.5015 -0.6590 -0.2552
  103OSM   H14A10409   0.414   0.544  11.194 -0.5805  3.8437  1.0798
  103OSM   H14B10410   0.510   0.541  11.341  3.5245 -1.9814  0.2110
  103OSM   H14C10411   0.524   0.427  11.200  0.3318 -0.3043 -1.1359
  103OSM    C1310412   0.573   0.760  11.215 -0.0750  0.0801  0.3743
  103OSM   H13A10413   0.633   0.834  11.164 -1.4776  0.8745 -0.1687
  103OSM   H13B10414   0.584   0.777  11.321  1.8741  0.8185  0.0919
  103OSM   H13C10415   0.471   0.775  11.185  0.1760  0.6899 -0.1912
  103OSM    C1210416   0.616   0.618  11.026 -0.8636  0.6030 -1.3136
  103OSM   H12A10417   0.660   0.706  10.981  2.2925  0.3597  0.9939
  103OSM   H12B10418   0.511   0.612  11.000 -1.9436 -0.2901  2.6035
  103OSM    C1110419   0.701   0.505  10.973 -0.1986  0.3044  0.2852
  103OSM   H11A10420   0.670   0.491  10.867  4.1002 -1.2036 -1.0271
  103OSM   H11B10421   0.688   0.410  11.030 -0.3998 -0.2194 -0.6119
  103OSM      P10422   0.895   0.655  10.898  0.0912 -0.1199 -0.1559
  103OSM    O1310423   0.807   0.771  10.906  0.0314 -0.7403 -0.3035
  103OSM    O1410424   1.038   0.672  10.944  0.6314  0.0938 -0.5229
  103OSM    O1110425   0.892   0.611  10.748 -0.1774  0.5544  0.4416
  103OSM    O1210426   0.836   0.537  10.982 -0.0754  0.1593  0.6198
  103OSM    C1S10427   0.910   0.480  10.693 -0.4680  0.0483  0.5875
  103OSM    H1S10428   0.881   0.399  10.763 -0.4838  0.0841  0.6222
  103OSM    H1T10429   1.019   0.467  10.678 -0.4585  0.2870  0.4386
  103OSM     NF10430   0.807   0.338  10.531 -0.4619 -0.1813  0.1545
  103OSM    HNF10431   0.871   0.292  10.468 -0.0743 -0.7693  0.9550
  103OSM    C2S10432   0.841   0.474  10.555  0.5312 -0.4731 -0.3738
  103OSM    H2S10433   0.744   0.527  10.565  2.2684  2.8448  0.3159
  103OSM    C3S10434   0.916   0.548  10.443  0.0839 -0.7022  0.1236
  103OSM    H3S10435   1.021   0.515  10.423  1.0355  2.2458 -0.2047
  103OSM     O310436   0.926   0.679  10.487 -0.3135  0.2977  0.0802
  103OSM    HO310437   0.894   0.673  10.577  0.1404 -1.1528  0.1717
  103OSM    C4S10438   0.837   0.548  10.320 -0.2933  0.6937 -0.5361
  103OSM    H4S10439   0.755   0.621  10.319 -1.0335 -0.1103 -2.0164
  103OSM    C5S10440   0.865   0.483  10.206 -0.0296  0.1632  0.0626
  103OSM    H5S10441   0.957   0.423  10.199 -1.3714 -1.8809 -1.4576
  103OSM    C6S10442   0.782   0.499  10.079 -0.2476 -0.3315  0.0019
  103OSM    H6S10443   0.676   0.500  10.111 -0.4116 -2.0064 -0.4033
  103OSM    H6T10444   0.789   0.409  10.015  0.2655 -0.0620 -0.3305
  103OSM    C7S10445   0.806   0.626   9.995 -0.0091 -0.3144  0.2793
  103OSM    H7S10446   0.914   0.627   9.966  0.2050  1.8292  0.9654
  103OSM    H7T10447   0.784   0.722  10.046 -3.4989 -1.9491  2.1467
  103OSM    C8S10448   0.712   0.612   9.870 -0.2385  0.5774 -0.7160
  103OSM    H8S10449   0.604   0.609   9.894  0.0168  0.2763  0.4870
  103OSM    H8T10450   0.745   0.516   9.825 -3.5227 -1.3996  0.7318
  103OSM    C9S10451   0.740   0.726   9.772 -0.3004 -0.0650  0.5085
  103OSM    H9S10452   0.847   0.719   9.741 -0.8934 -3.2237 -1.3303
  103OSM    H9T10453   0.724   0.826   9.817  1.8972  0.4458  0.2639
  103OSM   C10S10454   0.658   0.718   9.635 -0.8679  0.0519  0.1665
  103OSM   H10S10455   0.554   0.728   9.672 -0.8054 -1.7474  0.9173
  103OSM   H10T10456   0.671   0.619   9.587 -0.9598 -0.0505  0.3516
  103OSM   C11S10457   0.683   0.826   9.526  0.7101 -0.0973 -0.1535
  103OSM   H11S10458   0.792   0.842   9.507  1.0868 -3.9060 -2.3620
  103OSM   H11T10459   0.646   0.919   9.572  0.0012 -0.0117 -0.8816
  103OSM   C12S10460   0.600   0.793   9.395 -1.2354 -0.1546 -0.1125
  103OSM   H12S10461   0.493   0.784   9.424 -1.4650  0.9336 -0.5861
  103OSM   H12T10462   0.632   0.703   9.339 -0.5323  1.2557 -2.0897
  103OSM   C13S10463   0.588   0.920   9.298 -0.0424 -0.0940  0.0633
  103OSM   H13S10464   0.617   1.018   9.342 -1.6718 -0.5548  2.3568
  103OSM   H13T10465   0.480   0.932   9.275 -0.9509 -0.9599  3.3214
  103OSM   C14S10466   0.663   0.893   9.163 -0.5412 -0.3324 -0.4325
  103OSM   H14S10467   0.612   0.804   9.121 -0.5285  0.1355 -1.4810
  103OSM   H14T10468   0.767   0.861   9.182 -0.1787  0.0211 -1.7129
  103OSM   C15S10469   0.668   1.012   9.073  0.6918 -0.3500  0.4798
  103OSM   H15S10470   0.721   1.099   9.116  1.0786  0.1709 -0.9897
  103OSM   H15T10471   0.566   1.056   9.070  1.1982  0.8055 -0.2822
  103OSM   C16S10472   0.715   0.985   8.931 -0.3406  0.1273  0.2842
  103OSM   H16S10473   0.710   1.085   8.882 -1.1816  1.6068  3.2151
  103OSM   H16T10474   0.646   0.919   8.875  0.9955 -3.1792  2.2375
  103OSM   C17S10475   0.864   0.941   8.913  0.4042  0.4621 -0.2164
  103OSM   H17S10476   0.875   0.832   8.930  3.0515  0.3597 -2.1132
  103OSM   H17T10477   0.928   0.993   8.988  1.7939  1.8765 -2.2815
  103OSM   C18S10478   0.923   0.964   8.777 -0.2674 -0.3433  0.0303
  103OSM   H18S10479   0.874   0.899   8.702 -0.6025  1.2075 -1.1491
  103OSM   H18T10480   1.032   0.943   8.782 -0.3007 -1.1595 -1.8306
  103OSM   H18U10481   0.911   1.069   8.742  1.4357 -0.4720 -1.0992
  103OSM    C1F10482   0.719   0.265  10.594  0.2431 -0.6470  0.3281
  103OSM     OF10483   0.635   0.316  10.676 -0.2656  0.6616  0.1872
  103OSM    C2F10484   0.727   0.118  10.568 -0.1254  0.4254  0.0412
  103OSM    H2F10485   0.710   0.068  10.665 -0.3521  1.8685  0.7680
  103OSM    H2G10486   0.832   0.090  10.545 -0.9982 -1.6116 -1.9101
  103OSM    C3F10487   0.655   0.065  10.448  0.0647  0.1452 -1.1342
  103OSM    H3F10488   0.548   0.088  10.469  0.4346  1.5207 -0.6673
  103OSM    H3G10489   0.649  -0.046  10.441 -0.1429  0.1247 -0.6821
  103OSM    C4F10490   0.698   0.106  10.309 -0.4742  0.4075 -0.4534
  103OSM    H4F10491   0.806   0.092  10.289 -0.3863  1.2908 -0.6416
  103OSM    H4G10492   0.682   0.217  10.311 -2.6331  0.2834 -3.5646
  103OSM    C5F10493   0.608   0.047  10.205 -0.5885 -0.2288  0.2081
  103OSM    H5F10494   0.501   0.038  10.235 -1.1464  0.9630 -1.2923
  103OSM    H5G10495   0.635  -0.060  10.192 -1.0048  0.0261 -3.9723
  103OSM    C6F10496   0.607   0.127  10.074  0.3307  0.1356  0.0747
  103OSM    H6F10497   0.709   0.151  10.040  0.2558  2.5896  1.3491
  103OSM    H6G10498   0.562   0.227  10.091  1.2849  0.4669  0.7361
  103OSM    C7F10499   0.533   0.058   9.959  0.3745  0.3458 -0.2086
  103OSM    H7F10500   0.437   0.026  10.005  1.2266 -0.9814  0.7139
  103OSM    H7G10501   0.602  -0.026   9.938  1.3603  1.1052 -0.0965
  103OSM    C8F10502   0.520   0.149   9.836  0.7921 -0.0935 -0.0233
  103OSM    H8F10503   0.568   0.245   9.864  0.8219 -0.3093  0.6919
  103OSM    H8G10504   0.412   0.172   9.826  1.0778  1.6581  0.5677
  103OSM    C9F10505   0.558   0.068   9.713 -0.0145 -0.4646 -0.1633
  103OSM    H9F10506   0.489  -0.016   9.697 -0.2388 -0.3223  0.0531
  103OSM   C10F10507   0.673   0.088   9.639 -0.1658 -0.0625  0.2171
  103OSM   H10F10508   0.694   0.014   9.561 -1.2790 -1.9534  1.6170
  103OSM   C11F10509   0.777   0.197   9.664  0.2506  0.1986  0.0852
  103OSM   H11F10510   0.880   0.164   9.639  0.6814 -0.0673  2.0641
  103OSM   H11G10511   0.783   0.219   9.773 -0.0646  0.1270  0.1203
  103OSM   C12F10512   0.761   0.330   9.587  0.4788  0.0426  0.4961
  103OSM   H12F10513   0.840   0.393   9.633 -0.1793  0.9838  0.3720
  103OSM   H12G10514   0.661   0.376   9.603 -0.2527 -0.8453 -1.2237
  103OSM   C13F10515   0.763   0.312   9.429 -0.4570  0.1236 -0.0037
  103OSM   H13F10516   0.688   0.235   9.403 -1.1572  1.2930 -1.6490
  103OSM   H13G10517   0.713   0.405   9.391 -2.4451 -1.3104 -1.0859
  103OSM   C14F10518   0.899   0.309   9.358  0.0620 -0.6827 -0.5740
  103OSM   H14F10519   0.949   0.210   9.359  1.2106 -0.3607 -5.2275
  103OSM   H14G10520   0.960   0.389   9.404  0.4495 -1.3598  0.1146
  103OSM   C15F10521   0.875   0.333   9.204  0.6012  0.2501  0.4077
  103OSM   H15F10522   0.956   0.399   9.168  0.1073  1.7780  1.9416
  103OSM   H15G10523   0.775   0.382   9.193 -0.6526 -1.3157  3.5918
  103OSM   C16F10524   0.874   0.206   9.125  0.2919  0.2192 -0.4903
  103OSM   H16F10525   0.782   0.150   9.150  0.3803 -0.3722 -1.4434
  103OSM   H16G10526   0.968   0.151   9.149 -0.0259 -0.5591 -0.9762
  103OSM   C17F10527   0.875   0.201   8.965  0.3825 -0.5357 -0.2392
  103OSM   H17F10528   0.957   0.270   8.936  1.9888 -0.9706  2.8039
  103OSM   H17G10529   0.780   0.239   8.925 -0.0838 -0.5291  0.8301
  103OSM   C18F10530   0.884   0.059   8.901  0.1435  0.1967 -0.3831
  103OSM   H18F10531   0.896   0.075   8.792  0.7680  3.1272  0.0300
  103OSM   H18G10532   0.796  -0.004   8.927  0.7540 -0.1925  0.7950
  103OSM   H18H10533   0.972   0.001   8.937  0.3450 -0.2333 -1.5073
  104OSM      N10534   4.684   6.706  10.717  0.3680 -0.3615 -0.8981
  104OSM    C1510535   4.668   6.679  10.866  0.0237  1.0097 -0.6117
  104OSM   H15A10536   4.744   6.737  10.916  0.3386  2.4612 -2.6675
  104OSM   H15B10537   4.673   6.572  10.886 -0.8634  0.5254 -2.7145
  104OSM   H15C10538   4.567   6.708  10.892 -0.0064  1.1202 -0.8494
  104OSM    C1410539   4.725   6.853  10.687 -0.1519  0.1325  0.8253
  104OSM   H14A10540   4.829   6.866  10.712 -0.3698  2.8060  0.6538
  104OSM   H14B10541   4.664   6.929  10.735 -0.6201 -0.3396  0.9859
  104OSM   H14C10542   4.715   6.866  10.581  0.3235  0.4446  0.8123
  104OSM    C1310543   4.799   6.617  10.676 -0.0045  0.5856 -0.1159
  104OSM   H13A10544   4.802   6.618  10.568  0.8687 -1.0925 -0.1382
  104OSM   H13B10545   4.777   6.514  10.702  1.1430  0.3526 -0.0058
  104OSM   H13C10546   4.891   6.651  10.722 -0.8687 -0.0354  2.2113
  104OSM    C1210547   4.555   6.676  10.643 -0.3542 -0.6274 -0.3249
  104OSM   H12A10548   4.520   6.578  10.672  5.0178 -2.8741 -0.3692
  104OSM   H12B10549   4.571   6.677  10.536  0.4207  0.4216 -0.2055
  104OSM    C1110550   4.433   6.781  10.652  0.1558 -0.4725 -0.1623
  104OSM   H11A10551   4.354   6.763  10.577 -0.3321 -1.5561  0.5782
  104OSM   H11B10552   4.484   6.876  10.628  0.2649 -0.7359 -1.0024
  104OSM      P10553   4.257   6.690  10.815 -0.2110 -0.2813 -0.3415
  104OSM    O1310554   4.269   6.557  10.761 -0.1172  0.1841 -0.3151
  104OSM    O1410555   4.230   6.697  10.961 -0.2145 -0.0390  0.4858
  104OSM    O1110556   4.147   6.768  10.744 -0.5948  0.2523 -0.1326
  104OSM    O1210557   4.385   6.780  10.787  0.1865 -0.1528 -0.0998
  104OSM    C1S10558   4.136   6.915  10.745  0.0540  0.2006  0.2350
  104OSM    H1S10559   4.222   6.961  10.799 -0.3420  1.1277  0.1014
  104OSM    H1T10560   4.046   6.954  10.797  1.0604  0.9539  1.4902
  104OSM     NF10561   4.153   7.131  10.618 -0.0422 -0.2350  0.3639
  104OSM    HNF10562   4.078   7.187  10.585 -0.0298 -0.8598 -0.7831
  104OSM    C2S10563   4.143   6.981  10.603 -0.1188 -0.0417 -0.0266
  104OSM    H2S10564   4.235   6.940  10.556  0.5508  0.8411  0.4732
  104OSM    C3S10565   4.026   6.926  10.519 -0.0762 -0.7862 -0.2978
  104OSM    H3S10566   3.932   6.964  10.565  0.8808 -0.3586  1.3690
  104OSM     O310567   4.006   6.785  10.532  1.1403  0.3676 -0.6369
  104OSM    HO310568   4.066   6.758  10.602 -0.3647 -0.0914  0.5113
  104OSM    C4S10569   4.046   6.966  10.378  0.2067 -0.5806  0.5929
  104OSM    H4S10570   4.024   7.072  10.359 -0.0178 -0.8651 -0.8750
  104OSM    C5S10571   4.086   6.893  10.273  1.0060 -0.2250  0.0816
  104OSM    H5S10572   4.115   6.788  10.289  3.2556  0.4851  1.1410
  104OSM    C6S10573   4.120   6.926  10.131  0.2501  0.0305 -0.1996
  104OSM    H6S10574   4.225   6.899  10.106  0.2914  1.5957 -1.8984
  104OSM    H6T10575   4.110   7.034  10.107  1.7446 -0.1113 -1.6135
  104OSM    C7S10576   4.022   6.853  10.038  0.1936  0.0998 -1.3290
  104OSM    H7S10577   4.016   6.742  10.042 -0.5039  0.1727  0.6782
  104OSM    H7T10578   4.068   6.876   9.940  0.6781  1.0940 -0.8870
  104OSM    C8S10579   3.873   6.909  10.042 -0.1866  0.5901 -0.4399
  104OSM    H8S10580   3.886   7.019  10.049  0.5636  0.4249  0.8990
  104OSM    H8T10581   3.828   6.872  10.136  2.0170 -0.3571  0.2984
  104OSM    C9S10582   3.779   6.868   9.926 -0.4797 -0.1600 -0.0038
  104OSM    H9S10583   3.683   6.922   9.940  0.2224  0.9349  0.8307
  104OSM    H9T10584   3.766   6.758   9.922 -0.6258 -0.1814  0.9199
  104OSM   C10S10585   3.838   6.902   9.788 -0.7586  0.1894 -0.0916
  104OSM   H10S10586   3.935   6.850   9.772 -1.1226 -1.0185  1.3263
  104OSM   H10T10587   3.852   7.012   9.787 -0.9795  0.2972  2.1177
  104OSM   C11S10588   3.745   6.847   9.677  0.0800  0.3271  0.3999
  104OSM   H11S10589   3.645   6.896   9.685  0.3847  1.0068  0.1078
  104OSM   H11T10590   3.738   6.737   9.694  0.1698  0.4539  1.2704
  104OSM   C12S10591   3.777   6.877   9.530  0.0926 -0.9107  0.8871
  104OSM   H12S10592   3.873   6.825   9.507  0.4442  0.8734 -2.2168
  104OSM   H12T10593   3.779   6.987   9.519  0.1034 -1.1032 -1.2852
  104OSM   C13S10594   3.683   6.813   9.427  0.2367 -0.0052  0.0184
  104OSM   H13S10595   3.577   6.835   9.453  0.4732  0.3015  0.7533
  104OSM   H13T10596   3.705   6.704   9.432  3.3572  0.2492 -3.4977
  104OSM   C14S10597   3.724   6.853   9.277 -0.4672  0.3621 -0.2002
  104OSM   H14S10598   3.811   6.797   9.236  0.1255  0.8463  0.3764
  104OSM   H14T10599   3.751   6.960   9.287 -1.0042  0.4437  0.4097
  104OSM   C15S10600   3.603   6.841   9.187  1.2070 -0.4393  0.3087
  104OSM   H15S10601   3.523   6.906   9.228 -0.7852 -2.4574 -0.1905
  104OSM   H15T10602   3.566   6.736   9.186  0.3538 -0.2879 -3.6574
  104OSM   C16S10603   3.640   6.865   9.040 -0.9229  0.3778  0.2092
  104OSM   H16S10604   3.723   6.938   9.045  0.0292 -0.7333  2.0021
  104OSM   H16T10605   3.555   6.918   8.993 -0.6033 -0.8351 -1.8345
  104OSM   C17S10606   3.680   6.733   8.961 -0.4880 -0.1170 -0.0510
  104OSM   H17S10607   3.603   6.653   8.959 -2.1439  1.4354 -1.7607
  104OSM   H17T10608   3.772   6.689   9.005 -1.5427 -1.0492  1.2936
  104OSM   C18S10609   3.711   6.768   8.812 -0.0822  0.8020 -0.6821
  104OSM   H18S10610   3.773   6.859   8.818 -0.2718  0.8647  0.5441
  104OSM   H18T10611   3.615   6.793   8.761  1.9063  4.4006 -3.0012
  104OSM   H18U10612   3.762   6.684   8.761 -2.3681 -1.6740  0.8128
  104OSM    C1F10613   4.268   7.191  10.657  0.1334 -0.3401  0.1218
  104OSM     OF10614   4.353   7.127  10.708  0.2673  0.1648 -0.7746
  104OSM    C2F10615   4.276   7.333  10.634  0.2049  0.3259  0.3619
  104OSM    H2F10616   4.323   7.382  10.722  2.2269 -1.0101  0.0855
  104OSM    H2G10617   4.174   7.375  10.644  0.3053  1.1216 -1.5898
  104OSM    C3F10618   4.349   7.373  10.497 -0.0475 -0.0254 -0.0748
  104OSM    H3F10619   4.459   7.357  10.498  0.0407  0.4037  1.7796
  104OSM    H3G10620   4.331   7.483  10.488 -0.4133 -0.1685 -1.1570
  104OSM    C4F10621   4.274   7.303  10.380 -0.4710  0.7167 -0.6861
  104OSM    H4F10622   4.164   7.298  10.397 -0.2295 -0.3808  0.8023
  104OSM    H4G10623   4.308   7.199  10.360 -0.8102  0.8416 -1.9902
  104OSM    C5F10624   4.313   7.371  10.256  0.3409 -0.4843  0.0971
  104OSM    H5F10625   4.421   7.354  10.241 -0.1299 -2.0079 -2.0911
  104OSM    H5G10626   4.301   7.481  10.269 -2.3608 -0.7798  0.7103
  104OSM    C6F10627   4.234   7.319  10.133 -0.1742 -0.0303 -0.0360
  104OSM    H6F10628   4.258   7.211  10.131  3.4293  0.6692 -0.2641
  104OSM    H6G10629   4.282   7.356  10.040 -1.7095 -0.7717 -1.1586
  104OSM    C7F10630   4.079   7.342  10.123 -1.1779  0.2043 -0.1255
  104OSM    H7F10631   4.058   7.448  10.147  0.4156  0.6505 -0.5461
  104OSM    H7G10632   4.031   7.283  10.204 -3.4248  0.1587 -1.4064
  104OSM    C8F10633   4.037   7.311   9.985  0.3906 -0.1816  0.1958
  104OSM    H8F10634   4.093   7.224   9.943  1.6293  1.8101 -2.5958
  104OSM    H8G10635   4.066   7.393   9.917 -0.1757 -0.7798 -0.7889
  104OSM    C9F10636   3.892   7.277   9.968  0.3684  0.0049  0.3037
  104OSM    H9F10637   3.836   7.248  10.057 -0.2370  1.7046  0.5078
  104OSM   C10F10638   3.820   7.297   9.856  0.0740 -1.5880  1.2066
  104OSM   H10F10639   3.714   7.271   9.854  0.0177 -1.3843 -1.6303
  104OSM   C11F10640   3.866   7.355   9.725 -0.4501  0.4033  0.0571
  104OSM   H11F10641   3.977   7.354   9.720 -0.3577  2.9307  0.0792
  104OSM   H11G10642   3.829   7.458   9.704  1.0580  0.8847 -0.3727
  104OSM   C12F10643   3.825   7.266   9.601  0.0387 -0.6421  1.1527
  104OSM   H12F10644   3.719   7.278   9.573  0.4453 -0.1284 -0.2742
  104OSM   H12G10645   3.835   7.157   9.624 -1.9035 -0.4935  2.9433
  104OSM   C13F10646   3.903   7.300   9.469  0.4403 -0.1935 -0.4022
  104OSM   H13F10647   3.899   7.217   9.395  0.0069  0.3536 -0.9973
  104OSM   H13G10648   4.010   7.313   9.498  0.9558  0.3171 -2.3757
  104OSM   C14F10649   3.853   7.434   9.405  0.6808  0.3202  0.1610
  104OSM   H14F10650   3.926   7.474   9.332  0.5587  0.2541  0.0045
  104OSM   H14G10651   3.851   7.498   9.496  0.4812 -0.6218  0.8422
  104OSM   C15F10652   3.721   7.433   9.334  0.4598  0.2426 -0.3320
  104OSM   H15F10653   3.686   7.538   9.331  1.2688  0.5102 -0.5964
  104OSM   H15G10654   3.644   7.375   9.389  0.6955 -0.0623 -0.3184
  104OSM   C16F10655   3.728   7.363   9.195 -0.1758 -0.3596 -0.4800
  104OSM   H16F10656   3.771   7.263   9.217  1.0415 -0.3034 -2.3964
  104OSM   H16G10657   3.799   7.421   9.133  2.7597 -0.9995  2.0530
  104OSM   C17F10658   3.587   7.316   9.140 -0.3785  0.3801 -0.2988
  104OSM   H17F10659   3.530   7.411   9.132  2.0774  2.2096  1.9388
  104OSM   H17G10660   3.537   7.254   9.217  1.3639 -0.5880  0.1185
  104OSM   C18F10661   3.586   7.248   9.003 -0.2424 -0.0860  0.3385
  104OSM   H18F10662   3.484   7.213   8.977 -0.9142  0.8662  1.6017
  104OSM   H18G10663   3.655   7.162   9.015  0.3256  0.3618  0.3434
  104OSM   H18H10664   3.608   7.313   8.916 -1.6015 -0.8827 -0.6401
  105OSM      N10665   5.033   5.257  10.769  0.0604  0.1118  0.0686
  105OSM    C1510666   5.012   5.398  10.807 -0.1004 -0.5874  0.3312
  105OSM   H15A10667   5.035   5.457  10.720 -0.8683 -0.9105 -0.1047
  105OSM   H15B10668   5.084   5.432  10.879  0.4791  2.5587 -1.5714
  105OSM   H15C10669   4.915   5.426  10.845  0.1807  3.2088 -1.2847
  105OSM    C1410670   5.001   5.178  10.891 -0.7778  0.1642 -0.0998
  105OSM   H14A10671   4.898   5.187  10.922 -0.3577 -0.9791  1.7770
  105OSM   H14B10672   5.072   5.205  10.968 -0.7739 -1.7825  0.6288
  105OSM   H14C10673   5.037   5.080  10.863 -0.6149 -0.6170  2.5639
  105OSM    C1310674   4.931   5.217  10.670  0.1127 -0.5200 -0.2422
  105OSM   H13A10675   4.930   5.112  10.645 -1.9526 -0.2440 -1.6324
  105OSM   H13B10676   4.932   5.276  10.579 -3.3561  0.9128  0.4786
  105OSM   H13C10677   4.829   5.224  10.706 -0.1571 -0.2933 -1.0305
  105OSM    C1210678   5.178   5.235  10.726  0.7247 -0.0827 -0.4333
  105OSM   H12A10679   5.241   5.260  10.810 -0.8009  1.8555  0.2186
  105OSM   H12B10680   5.196   5.305  10.646 -1.4305  3.4123  1.8635
  105OSM    C1110681   5.220   5.098  10.688 -0.2687  1.2362  0.5858
  105OSM   H11A10682   5.329   5.101  10.668  0.0988 -1.7123  1.6418
  105OSM   H11B10683   5.171   5.064  10.594  0.8329 -0.6736  0.6447
  105OSM      P10684   5.303   4.938  10.868  0.2588 -0.3692 -1.1286
  105OSM    O1310685   5.390   5.039  10.927 -0.8774 -0.2149  0.7011
  105OSM    O1410686   5.244   4.849  10.971  0.0825 -0.4257 -0.3568
  105OSM    O1110687   5.371   4.852  10.759  0.2884  1.4050  0.3051
  105OSM    O1210688   5.194   5.009  10.793  0.5397  0.1679  0.1550
  105OSM    C1S10689   5.309   4.748  10.688 -0.6027  0.1287  0.1025
  105OSM    H1S10690   5.199   4.754  10.701 -0.5411 -0.7659  1.1820
  105OSM    H1T10691   5.344   4.649  10.726  0.0054  0.1997 -0.2545
  105OSM     NF10692   5.261   4.663  10.461  0.5986  0.4466  0.8122
  105OSM    HNF10693   5.313   4.581  10.437  1.3307  1.1218  0.0391
  105OSM    C2S10694   5.340   4.761  10.538 -0.1753 -0.6420 -0.1120
  105OSM    H2S10695   5.318   4.862  10.497  2.0813 -0.0848 -0.0961
  105OSM    C3S10696   5.491   4.741  10.513  0.2736 -0.1584  0.2139
  105OSM    H3S10697   5.515   4.634  10.531 -1.6547 -1.3573 -3.3281
  105OSM     O310698   5.577   4.815  10.594  0.2262 -0.9610 -0.1069
  105OSM    HO310699   5.535   4.861  10.667  1.3457  0.1722 -0.1493
  105OSM    C4S10700   5.509   4.773  10.367 -0.1068  0.3959  0.1678
  105OSM    H4S10701   5.499   4.690  10.297 -0.2562 -1.0706  1.8604
  105OSM    C5S10702   5.539   4.895  10.310  0.2294 -0.2345  0.3285
  105OSM    H5S10703   5.550   4.979  10.381 -0.4448 -0.1329  0.3214
  105OSM    C6S10704   5.565   4.928  10.167  0.5323 -0.1265  0.0998
  105OSM    H6S10705   5.670   4.963  10.157  0.7643 -0.8129  0.0659
  105OSM    H6T10706   5.498   5.013  10.140 -2.9434 -2.8328 -0.4565
  105OSM    C7S10707   5.555   4.803  10.078 -1.2189  0.4615  0.7507
  105OSM    H7S10708   5.447   4.777  10.073 -0.8923 -1.2855  1.7198
  105OSM    H7T10709   5.601   4.715  10.128 -0.9067  1.4877  2.3096
  105OSM    C8S10710   5.612   4.827   9.938  0.3251 -0.0842  0.0202
  105OSM    H8S10711   5.599   4.736   9.876 -2.8285  0.6572 -0.5464
  105OSM    H8T10712   5.721   4.849   9.935  0.5840 -0.9405  1.9354
  105OSM    C9S10713   5.548   4.941   9.864  0.7592 -0.4133  0.4433
  105OSM    H9S10714   5.567   5.034   9.921  0.0593  0.8814 -1.3305
  105OSM    H9T10715   5.438   4.929   9.859  0.7151  0.4608 -1.6296
  105OSM   C10S10716   5.599   4.970   9.714  0.1414  0.6834 -0.0387
  105OSM   H10S10717   5.702   4.928   9.720 -0.4355 -0.9683 -1.0879
  105OSM   H10T10718   5.598   5.079   9.694 -2.5013  0.9895  1.3076
  105OSM   C11S10719   5.520   4.892   9.609 -0.8495  0.1271 -0.0913
  105OSM   H11S10720   5.413   4.919   9.605 -0.9463 -0.4181 -1.7317
  105OSM   H11T10721   5.533   4.786   9.638  0.3002  0.4195  0.5566
  105OSM   C12S10722   5.561   4.916   9.455 -0.1832  0.7701 -0.6875
  105OSM   H12S10723   5.662   4.876   9.434 -0.3257  0.5556 -0.9750
  105OSM   H12T10724   5.559   5.026   9.440 -0.9821  0.8633  0.0172
  105OSM   C13S10725   5.457   4.844   9.370  0.1101 -0.2115 -0.2387
  105OSM   H13S10726   5.350   4.854   9.399 -0.4251 -2.9053 -1.0153
  105OSM   H13T10727   5.471   4.736   9.392 -0.7752 -0.1146  0.9213
  105OSM   C14S10728   5.479   4.877   9.225  0.3763 -0.3616 -0.8889
  105OSM   H14S10729   5.589   4.864   9.216  0.7681  1.2052  0.8683
  105OSM   H14T10730   5.449   4.983   9.205  0.3641 -0.6508 -2.5118
  105OSM   C15S10731   5.395   4.777   9.139 -0.0684  0.9408 -0.1217
  105OSM   H15S10732   5.388   4.813   9.034  1.3017 -0.5398 -0.7707
  105OSM   H15T10733   5.296   4.755   9.183  0.2759 -0.3922  0.0285
  105OSM   C16S10734   5.475   4.640   9.115 -0.2083 -0.5403 -0.5800
  105OSM   H16S10735   5.523   4.625   9.214  1.4437  0.5650 -1.1754
  105OSM   H16T10736   5.554   4.652   9.038 -0.1445  1.3059 -0.2657
  105OSM   C17S10737   5.382   4.520   9.097 -0.7560 -0.6610 -0.1460
  105OSM   H17S10738   5.300   4.540   9.169  0.4268 -0.7256  1.2656
  105OSM   H17T10739   5.447   4.437   9.131  1.9898  0.7886 -1.4876
  105OSM   C18S10740   5.346   4.487   8.949  0.0869  0.9483  0.1601
  105OSM   H18S10741   5.309   4.570   8.885 -1.6021  1.3515  1.5723
  105OSM   H18T10742   5.276   4.400   8.954  1.8152 -0.4974  0.1194
  105OSM   H18U10743   5.433   4.453   8.889 -0.6724  0.5482 -0.7499
  105OSM    C1F10744   5.127   4.664  10.434  0.3483  0.0290  0.2236
  105OSM     OF10745   5.063   4.759  10.473  0.0499 -0.3000  0.3424
  105OSM    C2F10746   5.069   4.550  10.356 -0.8644  0.3693 -0.0991
  105OSM    H2F10747   4.995   4.492  10.415 -0.2495  0.3361  0.6524
  105OSM    H2G10748   5.154   4.481  10.338  0.9823  2.2825  0.8135
  105OSM    C3F10749   5.008   4.583  10.214  0.1733 -0.7207 -0.3188
  105OSM    H3F10750   4.931   4.506  10.192 -1.0411  0.0216  1.1733
  105OSM    H3G10751   5.083   4.592  10.132  0.7082 -2.4602 -0.0641
  105OSM    C4F10752   4.930   4.717  10.206  0.0931  0.3067  0.5157
  105OSM    H4F10753   4.993   4.800  10.246 -0.6254  0.5291  1.1888
  105OSM    H4G10754   4.840   4.708  10.270  0.1663  0.5395  0.6530
  105OSM    C5F10755   4.904   4.753  10.059 -0.2526 -0.7302 -0.6818
  105OSM    H5F10756   4.989   4.778   9.992 -3.2463 -0.6683 -4.8688
  105OSM    H5G10757   4.847   4.848  10.054  3.0417  1.3437 -1.3854
  105OSM    C6F10758   4.807   4.659   9.983 -0.0996 -0.2169  0.4388
  105OSM    H6F10759   4.714   4.654  10.043 -0.4226  1.2797  0.1102
  105OSM    H6G10760   4.849   4.558   9.966  0.6722 -0.2487  2.3241
  105OSM    C7F10761   4.786   4.719   9.840  0.6110 -0.3503 -0.5186
  105OSM    H7F10762   4.866   4.688   9.769  0.3476 -0.6119 -0.7048
  105OSM    H7G10763   4.775   4.828   9.861  0.8066  0.2675 -3.1482
  105OSM    C8F10764   4.657   4.655   9.780  0.1424 -0.0200  0.3210
  105OSM    H8F10765   4.583   4.636   9.860  1.2842 -2.3980  0.9191
  105OSM    H8G10766   4.668   4.552   9.738 -1.5016  0.3974 -1.2974
  105OSM    C9F10767   4.595   4.744   9.675 -0.0868  0.1392 -0.5577
  105OSM    H9F10768   4.660   4.764   9.589  0.8589  0.6061  0.2419
  105OSM   C10F10769   4.478   4.814   9.687 -0.1400 -0.3651 -0.4297
  105OSM   H10F10770   4.454   4.888   9.609 -0.3962 -2.2594 -2.2031
  105OSM   C11F10771   4.377   4.817   9.792 -0.1326  0.0566  0.1752
  105OSM   H11F10772   4.312   4.902   9.762  1.2683  1.2715  0.5304
  105OSM   H11G10773   4.422   4.845   9.889  1.7415  1.8064 -1.1274
  105OSM   C12F10774   4.286   4.693   9.786 -0.6915  0.4492 -0.0227
  105OSM   H12F10775   4.229   4.697   9.882  1.8795 -3.9597  2.0282
  105OSM   H12G10776   4.340   4.596   9.787  0.6940  1.1901  1.5397
  105OSM   C13F10777   4.191   4.691   9.666  0.6152  0.1673  0.0835
  105OSM   H13F10778   4.251   4.663   9.577  1.0712  1.2747  0.0288
  105OSM   H13G10779   4.164   4.795   9.642 -0.9274 -0.3474 -0.5152
  105OSM   C14F10780   4.068   4.603   9.675 -0.3845  0.1693  0.1566
  105OSM   H14F10781   4.006   4.601   9.583  0.6060 -1.7047 -0.5324
  105OSM   H14G10782   4.009   4.638   9.762  1.0936  0.2932  1.1459
  105OSM   C15F10783   4.106   4.456   9.710 -0.2860  0.3752 -0.1805
  105OSM   H15F10784   4.177   4.459   9.796  0.7912 -1.0548 -0.9650
  105OSM   H15G10785   4.163   4.407   9.628 -1.3799  0.0265 -0.7529
  105OSM   C16F10786   3.986   4.368   9.754 -0.2180  0.6973 -0.2778
  105OSM   H16F10787   3.896   4.379   9.690  0.3363  0.0759 -1.2093
  105OSM   H16G10788   3.954   4.418   9.847  0.5323  0.4599  0.1162
  105OSM   C17F10789   4.020   4.217   9.753  0.6709  0.1473 -0.8446
  105OSM   H17F10790   4.098   4.190   9.827  1.2747 -0.6334 -1.7486
  105OSM   H17G10791   4.064   4.200   9.653  1.2448 -1.0355 -0.4199
  105OSM   C18F10792   3.899   4.129   9.789 -0.4770  0.1783 -0.5833
  105OSM   H18F10793   3.929   4.024   9.768 -2.9738 -0.7372  0.0385
  105OSM   H18G10794   3.814   4.143   9.718 -1.5008 -1.0216  0.3622
  105OSM   H18H10795   3.852   4.155   9.886  1.9813  2.2258  0.1584
  106OSM      N10796   5.769   3.181  10.915 -0.6927 -0.5492  0.0386
  106OSM    C1510797   5.900   3.169  10.844  0.1195 -0.5356 -0.6980
  106OSM   H15A10798   5.921   3.067  10.816 -0.2451 -0.7028 -0.3679
  106OSM   H15B10799   5.980   3.212  10.903  0.0442 -2.5664  0.9905
  106OSM   H15C10800   5.880   3.232  10.759 -1.2121  1.2968  0.8793
  106OSM    C1410801   5.801   3.172  11.059  0.0971 -0.0807  0.2806
  106OSM   H14A10802   5.702   3.174  11.102 -0.2755  1.0164 -0.5801
  106OSM   H14B10803   5.866   3.246  11.103 -0.1048 -0.3124  0.9822
  106OSM   H14C10804   5.849   3.079  11.086  1.7240 -0.3752 -3.0992
  106OSM    C1310805   5.701   3.308  10.885 -0.0089  0.2097 -0.2399
  106OSM   H13A10806   5.705   3.331  10.780  1.5627  0.8187 -0.0863
  106OSM   H13B10807   5.741   3.386  10.948  0.7528  0.1161 -0.5928
  106OSM   H13C10808   5.595   3.303  10.904  0.1791 -2.7071  0.5703
  106OSM    C1210809   5.678   3.061  10.886  0.2906  0.3533  0.1198
  106OSM   H12A10810   5.606   3.061  10.967  1.4691  1.2739  1.2222
  106OSM   H12B10811   5.746   2.977  10.890  1.2283  1.0527 -0.7332
  106OSM    C1110812   5.617   3.056  10.744 -0.2583 -0.8072  0.6723
  106OSM   H11A10813   5.582   2.954  10.714  2.4095 -1.4986 -0.3374
  106OSM   H11B10814   5.690   3.080  10.664 -1.9513 -0.3874 -0.8014
  106OSM      P10815   5.397   3.183  10.795  0.2265  0.2076 -0.5433
  106OSM    O1310816   5.403   3.108  10.923 -0.8139 -0.6158  0.2606
  106OSM    O1410817   5.369   3.329  10.806 -0.0061 -0.5349  0.6505
  106OSM    O1110818   5.285   3.117  10.713  0.2954  0.1605 -0.2223
  106OSM    O1210819   5.516   3.157  10.714 -0.2830 -0.2984  0.7767
  106OSM    C1S10820   5.240   3.165  10.587 -0.0511 -0.0342  0.1063
  106OSM    H1S10821   5.225   3.275  10.592  0.6838  0.0146  1.7432
  106OSM    H1T10822   5.140   3.118  10.573  0.0815  0.2191 -1.9371
  106OSM     NF10823   5.251   3.168  10.349  0.0359  0.2561 -0.2133
  106OSM    HNF10824   5.192   3.106  10.298  1.0778 -0.7063 -0.3024
  106OSM    C2S10825   5.321   3.114  10.466 -0.3894  0.1682  0.1199
  106OSM    H2S10826   5.419   3.168  10.472 -0.4101  0.1762  0.3827
  106OSM    C3S10827   5.338   2.959  10.459  0.1722 -0.3769  0.5759
  106OSM    H3S10828   5.235   2.919  10.456  0.0460 -0.0038 -0.5104
  106OSM     O310829   5.416   2.900  10.563  0.2896  0.0315  0.2823
  106OSM    HO310830   5.403   2.972  10.625 -3.1681  1.5707 -1.9125
  106OSM    C4S10831   5.390   2.915  10.329 -0.3122  0.3159 -0.8673
  106OSM    H4S10832   5.486   2.955  10.290  1.9306 -1.4977  2.3639
  106OSM    C5S10833   5.335   2.816  10.256  0.1076 -0.7374 -0.0765
  106OSM    H5S10834   5.239   2.765  10.275  0.2494 -0.6766  0.8494
  106OSM    C6S10835   5.390   2.789  10.118 -0.0251 -0.0964 -0.3461
  106OSM    H6S10836   5.501   2.799  10.121  0.0649 -1.0032 -0.2910
  106OSM    H6T10837   5.339   2.847  10.038 -2.5204 -1.4105  0.2077
  106OSM    C7S10838   5.359   2.640  10.097 -0.7065 -0.0810 -0.7902
  106OSM    H7S10839   5.251   2.615  10.099 -0.6389 -0.4529  1.8447
  106OSM    H7T10840   5.400   2.595  10.189 -1.6953  2.6266  1.0879
  106OSM    C8S10841   5.420   2.566   9.969 -0.0334 -0.8850 -1.1596
  106OSM    H8S10842   5.380   2.463   9.963 -1.1526 -0.6250  0.9235
  106OSM    H8T10843   5.527   2.540   9.987 -0.6488 -1.6653  2.0063
  106OSM    C9S10844   5.386   2.633   9.846  0.2357  0.9721 -0.0168
  106OSM    H9S10845   5.445   2.728   9.845  1.6342  0.2552 -3.8256
  106OSM    H9T10846   5.277   2.653   9.851  0.4300  2.3606 -0.8218
  106OSM   C10S10847   5.413   2.537   9.723 -0.1269 -0.1897 -0.3938
  106OSM   H10S10848   5.341   2.453   9.718  0.5009 -0.8728  1.3780
  106OSM   H10T10849   5.517   2.499   9.731  0.0827  0.6565  1.4820
  106OSM   C11S10850   5.399   2.609   9.587  0.0353 -0.1059  0.1479
  106OSM   H11S10851   5.454   2.705   9.587 -0.7091  0.3499 -1.4857
  106OSM   H11T10852   5.292   2.636   9.575  0.7408  2.2299 -1.5298
  106OSM   C12S10853   5.458   2.527   9.473  0.0034 -0.0662  0.7487
  106OSM   H12S10854   5.407   2.429   9.473 -0.7088  0.2308  3.1777
  106OSM   H12T10855   5.567   2.509   9.485  0.2008  1.5214  1.6586
  106OSM   C13S10856   5.458   2.607   9.341  0.0509 -0.6158  0.5732
  106OSM   H13S10857   5.503   2.706   9.362 -0.3471  0.0173 -1.3693
  106OSM   H13T10858   5.349   2.626   9.324  0.2206  0.0542  0.2144
  106OSM   C14S10859   5.528   2.535   9.221  0.3726 -0.7073 -0.8014
  106OSM   H14S10860   5.489   2.433   9.201 -1.6520 -0.1284 -0.0596
  106OSM   H14T10861   5.634   2.521   9.252 -0.0139 -0.7334  0.5458
  106OSM   C15S10862   5.536   2.612   9.088 -0.0441  0.1386 -1.2429
  106OSM   H15S10863   5.605   2.553   9.024  0.3758  1.0422 -1.6414
  106OSM   H15T10864   5.586   2.708   9.113 -0.9691  0.0304  1.3844
  106OSM   C16S10865   5.400   2.642   9.013 -0.3225  0.0938 -0.3194
  106OSM   H16S10866   5.332   2.694   9.084  0.9437 -0.3729  1.2877
  106OSM   H16T10867   5.356   2.547   8.976  0.6652 -1.0988  1.4164
  106OSM   C17S10868   5.437   2.728   8.887 -0.0798  0.6327 -0.0997
  106OSM   H17S10869   5.510   2.667   8.829  1.2878 -0.1887  2.3234
  106OSM   H17T10870   5.500   2.812   8.925  1.6039  0.4338 -2.2319
  106OSM   C18S10871   5.316   2.774   8.810 -0.9819  0.0734 -0.2838
  106OSM   H18S10872   5.356   2.829   8.721  1.4043 -0.1319  0.5909
  106OSM   H18T10873   5.251   2.844   8.867  0.3366 -0.3144  1.8083
  106OSM   H18U10874   5.251   2.691   8.775  1.8646 -2.0723 -0.8727
  106OSM    C1F10875   5.249   3.296  10.312 -0.0947  0.3563 -0.0667
  106OSM     OF10876   5.326   3.376  10.356 -1.2846  0.2774 -0.1554
  106OSM    C2F10877   5.143   3.331  10.210  0.0333  0.6428 -0.1655
  106OSM    H2F10878   5.078   3.416  10.239 -1.6107 -0.0937 -1.5324
  106OSM    H2G10879   5.078   3.242  10.204  0.8650 -0.1006  1.2002
  106OSM    C3F10880   5.215   3.365  10.077  0.6153  0.4080 -0.2782
  106OSM    H3F10881   5.266   3.270  10.051  1.5138  0.7950  0.0352
  106OSM    H3G10882   5.298   3.438  10.082 -0.0028  1.0725  0.4481
  106OSM    C4F10883   5.124   3.400   9.966 -0.4206 -0.2328  1.1436
  106OSM    H4F10884   5.074   3.496   9.992  1.4299  1.1230 -0.0420
  106OSM    H4G10885   5.056   3.315   9.947 -0.0709 -0.2445 -0.1589
  106OSM    C5F10886   5.216   3.423   9.836 -0.0652  0.2157 -0.0383
  106OSM    H5F10887   5.279   3.332   9.828 -0.8654 -0.4042  0.5724
  106OSM    H5G10888   5.280   3.507   9.871  1.3776 -0.9339  0.1754
  106OSM    C6F10889   5.138   3.451   9.705  0.5651  0.0357  1.0108
  106OSM    H6F10890   5.081   3.547   9.698 -0.4120 -0.4518  2.0004
  106OSM    H6G10891   5.059   3.373   9.710 -0.5457  1.0895  0.7213
  106OSM    C7F10892   5.225   3.445   9.582 -0.6745  0.3404 -0.8283
  106OSM    H7F10893   5.294   3.358   9.577  1.1731  1.6822  0.0627
  106OSM    H7G10894   5.278   3.543   9.576 -0.0678  0.2130  1.4472
  106OSM    C8F10895   5.135   3.440   9.451  0.5624 -0.1656 -0.1861
  106OSM    H8F10896   5.085   3.539   9.455 -0.8209 -0.8557  0.4762
  106OSM    H8G10897   5.057   3.362   9.470  1.4690 -1.4563 -1.5109
  106OSM    C9F10898   5.223   3.439   9.327 -0.0834  0.2289 -0.1134
  106OSM    H9F10899   5.321   3.388   9.321 -1.4099 -2.3810 -1.4653
  106OSM   C10F10900   5.197   3.497   9.214 -0.1871  0.0687  0.1779
  106OSM   H10F10901   5.268   3.494   9.130 -2.0720  1.7925 -1.5946
  106OSM   C11F10902   5.077   3.578   9.184  0.1306  0.7467  0.1689
  106OSM   H11F10903   5.103   3.686   9.187 -1.6688  1.2633 -0.9750
  106OSM   H11G10904   4.987   3.565   9.248 -1.4637  1.1314 -1.8855
  106OSM   C12F10905   5.019   3.553   9.048  0.1913 -0.0087 -0.0674
  106OSM   H12F10906   4.921   3.605   9.040  0.4032  0.4270  0.1081
  106OSM   H12G10907   4.992   3.446   9.046 -0.4254  0.1419 -0.0954
  106OSM   C13F10908   5.102   3.588   8.920 -0.7414 -0.3858 -0.8362
  106OSM   H13F10909   5.049   3.540   8.835 -1.8731 -1.4966  0.4553
  106OSM   H13G10910   5.203   3.544   8.932 -0.3910  1.0479  3.0081
  106OSM   C14F10911   5.134   3.737   8.886 -0.8774 -1.0678  0.4611
  106OSM   H14F10912   5.203   3.720   8.800 -1.4734 -0.7484 -0.0915
  106OSM   H14G10913   5.194   3.777   8.970 -0.6835 -0.0468 -0.1392
  106OSM   C15F10914   5.006   3.816   8.857 -0.5644 -0.2645  0.4345
  106OSM   H15F10915   5.008   3.927   8.857  2.1824 -0.2159 -1.4439
  106OSM   H15G10916   4.935   3.793   8.939  1.7356 -1.3653  2.2513
  106OSM   C16F10917   4.941   3.767   8.725  0.0198  0.3476  0.3334
  106OSM   H16F10918   4.907   3.663   8.739 -2.1437  0.8309 -0.8777
  106OSM   H16G10919   5.012   3.779   8.640 -0.6151 -0.0674 -0.2727
  106OSM   C17F10920   4.804   3.835   8.697  0.0720 -1.0101  0.0384
  106OSM   H17F10921   4.828   3.940   8.669 -1.2625 -0.7080 -0.0458
  106OSM   H17G10922   4.740   3.831   8.787 -2.5969 -0.7000 -1.7190
  106OSM   C18F10923   4.730   3.782   8.570  0.6453  0.1731  0.4562
  106OSM   H18F10924   4.790   3.808   8.480  0.0791  1.3664  0.4079
  106OSM   H18G10925   4.639   3.843   8.551 -0.1179 -0.8883  0.5915
  106OSM   H18H10926   4.697   3.676   8.565  0.1810  0.3660 -1.1671
  107OSM      N10927   4.679   1.794  10.982  0.7019  0.4413 -0.1875
  107OSM    C1510928   4.799   1.844  10.916 -0.4381 -0.6886  0.8177
  107OSM   H15A10929   4.785   1.949  10.899 -0.5749 -0.4986  1.9777
  107OSM   H15B10930   4.810   1.813  10.813  0.0346 -0.2274  0.7270
  107OSM   H15C10931   4.891   1.823  10.969  0.2989 -1.4592 -0.7116
  107OSM    C1410932   4.696   1.655  11.039 -0.8383 -0.2704  0.1438
  107OSM   H14A10933   4.727   1.583  10.965  1.3513  0.1137  0.6062
  107OSM   H14B10934   4.616   1.630  11.106  0.5584 -1.2135  1.5282
  107OSM   H14C10935   4.788   1.658  11.096  0.2672  1.2240 -1.5678
  107OSM    C1310936   4.663   1.881  11.106 -0.3510  0.2929 -0.2394
  107OSM   H13A10937   4.645   1.982  11.072 -0.3211 -0.6028 -3.2313
  107OSM   H13B10938   4.747   1.877  11.173 -1.4605  1.9868  1.3568
  107OSM   H13C10939   4.575   1.855  11.164 -0.7517  2.1920  0.0635
  107OSM    C1210940   4.558   1.808  10.889  0.5197  0.0550  0.6479
  107OSM   H12A10941   4.468   1.786  10.945 -0.1413 -0.6669 -0.6555
  107OSM   H12B10942   4.569   1.734  10.811  2.2304  1.0628 -0.0980
  107OSM    C1110943   4.528   1.944  10.829 -0.5534  0.2295 -0.3544
  107OSM   H11A10944   4.442   1.936  10.760  0.4829  0.6829 -1.7483
  107OSM   H11B10945   4.624   1.967  10.778  1.1010 -1.5302  1.7710
  107OSM      P10946   4.361   2.072  10.984  0.0916 -0.0109 -0.3386
  107OSM    O1310947   4.287   1.946  10.999 -0.4363  0.4111  0.6677
  107OSM    O1410948   4.357   2.161  11.104 -0.2961 -0.5910 -0.2838
  107OSM    O1110949   4.293   2.149  10.866  0.2724 -0.2936  0.4942
  107OSM    O1210950   4.504   2.043  10.936  0.1729 -0.5038  0.8267
  107OSM    C1S10951   4.359   2.241  10.774 -0.1442 -0.0537 -0.5588
  107OSM    H1S10952   4.455   2.279  10.815 -0.9805  0.6239  0.8269
  107OSM    H1T10953   4.294   2.330  10.765  0.7363  0.8812  1.6824
  107OSM     NF10954   4.440   2.298  10.551  0.5936 -0.7378 -0.1120
  107OSM    HNF10955   4.385   2.369  10.508  2.4348  0.8185 -0.0679
  107OSM    C2S10956   4.373   2.198  10.622  0.4175  0.3878  0.1197
  107OSM    H2S10957   4.431   2.102  10.624  1.5263  0.9521 -1.8828
  107OSM    C3S10958   4.238   2.157  10.562 -0.3481  0.3513 -0.8674
  107OSM    H3S10959   4.172   2.244  10.585  0.2334  0.4166  0.6471
  107OSM     O310960   4.174   2.045  10.621 -0.1117  0.4147  0.0457
  107OSM    HO310961   4.220   2.014  10.699  0.0877  1.1855  0.2414
  107OSM    C4S10962   4.234   2.133  10.416  0.7808  0.3376 -0.0949
  107OSM    H4S10963   4.280   2.042  10.373  0.3913  1.0153 -2.0656
  107OSM    C5S10964   4.165   2.213  10.332  0.0625  0.2542  0.6009
  107OSM    H5S10965   4.104   2.294  10.374 -0.0658  0.7250 -0.4533
  107OSM    C6S10966   4.140   2.202  10.180 -0.3407 -0.5266 -0.4060
  107OSM    H6S10967   4.037   2.218  10.141  0.3625 -0.4203 -2.3698
  107OSM    H6T10968   4.175   2.102  10.149  0.0378  0.1029 -2.1225
  107OSM    C7S10969   4.228   2.290  10.087  0.6590 -0.3859 -0.2263
  107OSM    H7S10970   4.330   2.315  10.124  0.9213 -0.8655 -0.6063
  107OSM    H7T10971   4.171   2.385  10.080  0.7999 -0.3620 -1.1692
  107OSM    C8S10972   4.217   2.259   9.936  0.3503 -0.4196  0.1743
  107OSM    H8S10973   4.242   2.353   9.883  1.0464 -1.2797 -1.0731
  107OSM    H8T10974   4.113   2.222   9.922  0.4272 -0.4884 -0.2285
  107OSM    C9S10975   4.310   2.159   9.882 -0.3001 -0.3119 -0.4368
  107OSM    H9S10976   4.277   2.055   9.902 -0.7006 -0.1715 -0.3693
  107OSM    H9T10977   4.414   2.161   9.922 -0.6598  2.5382  0.5608
  107OSM   C10S10978   4.329   2.171   9.725  0.4239  0.4552  0.4375
  107OSM   H10S10979   4.225   2.196   9.697  0.3282 -0.5809 -0.1618
  107OSM   H10T10980   4.346   2.073   9.676 -0.1487  0.4307  0.2907
  107OSM   C11S10981   4.414   2.282   9.675 -0.4338 -0.3594  0.1185
  107OSM   H11S10982   4.502   2.278   9.743  0.3071  2.0745 -0.6024
  107OSM   H11T10983   4.371   2.377   9.714 -0.5378 -0.8621  1.2811
  107OSM   C12S10984   4.447   2.279   9.529  0.8697  0.0015 -0.4358
  107OSM   H12S10985   4.349   2.292   9.480 -0.4726  1.4855  2.3885
  107OSM   H12T10986   4.492   2.184   9.492 -1.3161 -0.7759 -1.2275
  107OSM   C13S10987   4.540   2.393   9.489  0.1317 -0.2412  0.0586
  107OSM   H13S10988   4.639   2.377   9.535  0.7543 -1.7697 -1.6781
  107OSM   H13T10989   4.496   2.486   9.531 -1.5345 -1.8598  2.1423
  107OSM   C14S10990   4.549   2.402   9.344  1.4908 -1.0510  0.1778
  107OSM   H14S10991   4.592   2.505   9.341 -1.9883  0.5465  0.7628
  107OSM   H14T10992   4.448   2.415   9.302  2.9907  3.2259 -2.7390
  107OSM   C15S10993   4.633   2.295   9.276 -0.1730  0.3090  0.0084
  107OSM   H15S10994   4.588   2.197   9.303  0.4857  0.9784  4.0431
  107OSM   H15T10995   4.740   2.302   9.304  0.7034  2.3316 -3.2424
  107OSM   C16S10996   4.647   2.311   9.124  0.2680  0.2711 -0.3794
  107OSM   H16S10997   4.704   2.405   9.110 -0.2754  0.8679  1.2646
  107OSM   H16T10998   4.550   2.326   9.072 -0.0228 -2.5674 -0.8490
  107OSM   C17S10999   4.718   2.198   9.054 -0.1077  0.5950 -0.1548
  107OSM   H17S11000   4.640   2.131   9.013  0.7623 -1.6071  1.5621
  107OSM   H17T11001   4.783   2.127   9.109 -1.3016 -1.4854 -1.3083
  107OSM   C18S11002   4.821   2.236   8.937 -0.0073 -0.5667 -0.2825
  107OSM   H18S11003   4.851   2.137   8.896 -0.7360 -1.7858  1.9864
  107OSM   H18T11004   4.907   2.278   8.995  0.6483 -2.7356  0.3924
  107OSM   H18U11005   4.783   2.307   8.860 -0.9549  1.8503  2.2433
  107OSM    C1F11006   4.571   2.308  10.562 -0.1416 -0.2450 -0.2776
  107OSM     OF11007   4.624   2.232  10.642 -0.4695  0.5538 -0.5673
  107OSM    C2F11008   4.640   2.417  10.485 -0.1546 -0.3416 -0.7693
  107OSM    H2F11009   4.744   2.412  10.522 -0.8065  0.8220  1.3886
  107OSM    H2G11010   4.597   2.517  10.507  0.8819 -0.1772  0.6605
  107OSM    C3F11011   4.632   2.387  10.334  0.6492 -0.1787  0.2725
  107OSM    H3F11012   4.533   2.339  10.313  0.8046 -0.0121 -0.8836
  107OSM    H3G11013   4.698   2.299  10.316 -1.4171 -1.9321  0.7442
  107OSM    C4F11014   4.663   2.511  10.257  0.2109  0.0223 -0.5807
  107OSM    H4F11015   4.768   2.546  10.264  0.4513 -1.0300  2.7191
  107OSM    H4G11016   4.607   2.595  10.304  3.9839  1.3260  2.0921
  107OSM    C5F11017   4.607   2.500  10.107 -0.5508 -0.0318  0.4098
  107OSM    H5F11018   4.497   2.491  10.117 -0.4398 -3.5641 -0.0492
  107OSM    H5G11019   4.653   2.404  10.073 -2.0134 -1.0697  1.2838
  107OSM    C6F11020   4.656   2.609  10.012  0.1110 -0.2340  0.0443
  107OSM    H6F11021   4.765   2.627  10.024  0.4717 -1.2089 -1.4756
  107OSM    H6G11022   4.604   2.705  10.035  0.8350  0.4917 -1.2068
  107OSM    C7F11023   4.637   2.571   9.863  0.5587  0.1851 -0.5790
  107OSM    H7F11024   4.530   2.563   9.834 -0.1219  0.3262  1.6992
  107OSM    H7G11025   4.681   2.469   9.852 -1.0783 -0.4255 -1.9235
  107OSM    C8F11026   4.714   2.663   9.760 -0.0949 -0.2591 -0.5645
  107OSM    H8F11027   4.706   2.626   9.656 -1.0760  0.0984 -0.6299
  107OSM    H8G11028   4.817   2.681   9.796 -0.8239  1.1461  0.9400
  107OSM    C9F11029   4.648   2.803   9.764  0.4137 -0.3169  0.0976
  107OSM    H9F11030   4.640   2.846   9.865  1.5006 -1.5830  0.7547
  107OSM   C10F11031   4.602   2.873   9.657  0.3092 -0.1888 -0.8882
  107OSM   H10F11032   4.558   2.973   9.671  0.2958 -0.2909 -0.1683
  107OSM   C11F11033   4.625   2.835   9.515 -0.4684  0.3509 -0.3534
  107OSM   H11F11034   4.703   2.757   9.513 -0.9882 -0.2576  1.4866
  107OSM   H11G11035   4.650   2.927   9.458  0.0079  0.7681  0.5142
  107OSM   C12F11036   4.487   2.785   9.458  0.1061  0.2287 -0.1188
  107OSM   H12F11037   4.413   2.868   9.466 -0.7350 -0.5300  0.1335
  107OSM   H12G11038   4.450   2.696   9.513  1.4466 -1.3971 -1.7588
  107OSM   C13F11039   4.492   2.749   9.311 -0.7905  0.6507  0.3748
  107OSM   H13F11040   4.417   2.670   9.288  0.0792 -1.4812  4.0125
  107OSM   H13G11041   4.593   2.704   9.298 -0.9701  0.5574 -0.7848
  107OSM   C14F11042   4.481   2.865   9.220 -0.0683  0.3214  0.1396
  107OSM   H14F11043   4.543   2.951   9.253 -0.2978  1.5409 -2.3276
  107OSM   H14G11044   4.374   2.892   9.205 -1.1448 -4.2060 -1.8090
  107OSM   C15F11045   4.527   2.828   9.080 -0.2404 -0.3004 -0.2795
  107OSM   H15F11046   4.459   2.747   9.043 -1.4328  0.6035 -0.1256
  107OSM   H15G11047   4.634   2.800   9.083  0.2048  1.3987  0.4179
  107OSM   C16F11048   4.519   2.953   8.983 -0.0305 -0.7066 -0.1756
  107OSM   H16F11049   4.615   3.004   9.004  1.3953 -3.3405  0.0731
  107OSM   H16G11050   4.421   3.002   8.997 -0.7843 -1.4584 -2.3244
  107OSM   C17F11051   4.523   2.902   8.844 -0.1213 -0.1008  0.0736
  107OSM   H17F11052   4.433   2.839   8.824 -1.9708  1.8582  1.6512
  107OSM   H17G11053   4.616   2.845   8.826  1.4037  3.1693 -3.8083
  107OSM   C18F11054   4.529   3.019   8.733 -0.1537  0.3696 -0.5479
  107OSM   H18F11055   4.622   3.078   8.752  1.2598 -1.1270 -2.3108
  107OSM   H18G11056   4.436   3.078   8.744 -0.3126  0.1241 -0.5816
  107OSM   H18H11057   4.541   2.963   8.637  3.4550 -0.3241  0.1674
  108OSM      N11058   4.554   5.826  11.046  0.1895 -0.4308 -0.6646
  108OSM    C1511059   4.575   5.882  11.185  0.1460 -0.6689 -0.5370
  108OSM   H15A11060   4.598   5.811  11.263 -0.5504 -1.5828 -1.1542
  108OSM   H15B11061   4.492   5.941  11.223  0.4350 -2.4326  3.3570
  108OSM   H15C11062   4.662   5.947  11.182 -0.1921 -0.1267  0.6514
  108OSM    C1411063   4.693   5.774  11.014 -0.4835  0.3853  0.1481
  108OSM   H14A11064   4.724   5.697  11.083  2.1253  0.6354 -0.6228
  108OSM   H14B11065   4.762   5.856  11.028  1.0183 -1.1428  2.3349
  108OSM   H14C11066   4.688   5.749  10.909 -0.5988  1.5937 -0.1562
  108OSM    C1311067   4.455   5.707  11.064 -0.3649 -1.0849 -0.6977
  108OSM   H13A11068   4.492   5.630  11.131  1.5731  0.0295 -0.4174
  108OSM   H13B11069   4.440   5.665  10.966 -0.7313 -0.4241 -0.9314
  108OSM   H13C11070   4.361   5.744  11.103 -1.5329  0.0005 -4.1593
  108OSM    C1211071   4.514   5.930  10.948 -0.2729  0.0580 -0.1427
  108OSM   H12A11072   4.592   6.004  10.937  1.1282 -1.5314 -1.4114
  108OSM   H12B11073   4.428   5.988  10.981  0.6055  2.7661 -2.2555
  108OSM    C1111074   4.476   5.886  10.805  0.4420 -0.3929  0.2898
  108OSM   H11A11075   4.562   5.835  10.755 -0.3034 -0.9141 -0.4914
  108OSM   H11B11076   4.457   5.981  10.750 -1.6452  0.1920  1.9014
  108OSM      P11077   4.221   5.866  10.854  0.1612 -0.0979  0.4654
  108OSM    O1311078   4.155   5.770  10.945  0.3003 -0.6845 -0.1299
  108OSM    O1411079   4.238   6.003  10.904  0.2948  0.0784  0.0730
  108OSM    O1111080   4.144   5.888  10.716  0.0222 -0.0078 -0.3667
  108OSM    O1211081   4.359   5.808  10.798 -0.1219  0.0504 -0.3036
  108OSM    C1S11082   4.125   5.764  10.643  0.0030 -0.1368  1.2372
  108OSM    H1S11083   4.042   5.703  10.686 -2.3352 -0.3472 -3.0887
  108OSM    H1T11084   4.216   5.700  10.638  0.8174  1.0522  0.4271
  108OSM     NF11085   4.105   5.646  10.435  0.0102 -0.0488  0.1918
  108OSM    HNF11086   4.192   5.611  10.400 -0.5414  0.2140 -1.5218
  108OSM    C2S11087   4.099   5.778  10.490 -0.3642  0.0451  0.3182
  108OSM    H2S11088   3.998   5.823  10.481  0.0796  1.3720  1.5823
  108OSM    C3S11089   4.199   5.874  10.430  0.1708 -0.0595  0.4333
  108OSM    H3S11090   4.304   5.842  10.449  0.4438 -0.4009 -1.4504
  108OSM     O311091   4.192   5.999  10.486  0.4882 -0.5209 -0.0894
  108OSM    HO311092   4.140   5.989  10.566 -2.4056 -1.6067 -1.9175
  108OSM    C4S11093   4.181   5.883  10.282  0.0974 -0.2418 -0.9023
  108OSM    H4S11094   4.086   5.933  10.258  0.7418  2.1216  1.0446
  108OSM    C5S11095   4.275   5.843  10.197 -0.4603  0.1752 -0.1690
  108OSM    H5S11096   4.376   5.818  10.233  1.0603  1.9654 -2.8432
  108OSM    C6S11097   4.261   5.850  10.052 -0.3945 -0.0067  0.4315
  108OSM    H6S11098   4.363   5.838  10.008 -0.3136 -0.1577  0.6575
  108OSM    H6T11099   4.222   5.951  10.028  0.5566  0.3272  0.2259
  108OSM    C7S11100   4.173   5.743   9.986  0.6105 -1.3949  0.2944
  108OSM    H7S11101   4.070   5.742  10.029  1.4344 -1.1960  2.4073
  108OSM    H7T11102   4.211   5.641  10.010  2.8467 -1.4045 -2.8289
  108OSM    C8S11103   4.179   5.764   9.836  0.0875 -0.4669  0.4165
  108OSM    H8S11104   4.286   5.783   9.811 -0.3591  0.5142 -0.8779
  108OSM    H8T11105   4.117   5.852   9.809 -0.0737 -0.7805 -0.2641
  108OSM    C9S11106   4.147   5.640   9.746  0.4158 -0.5529 -0.1776
  108OSM    H9S11107   4.046   5.606   9.778  0.0866  0.5455 -0.0259
  108OSM    H9T11108   4.225   5.563   9.763  2.4253  1.1815 -1.0542
  108OSM   C10S11109   4.154   5.679   9.595 -0.4161  0.9254  0.1304
  108OSM   H10S11110   4.257   5.714   9.573  0.7623 -0.8805  2.3402
  108OSM   H10T11111   4.087   5.765   9.574  0.2530  1.2272 -0.8555
  108OSM   C11S11112   4.130   5.555   9.507  0.7709 -0.6616 -0.8505
  108OSM   H11S11113   4.023   5.527   9.518  0.7023 -0.1163 -0.0972
  108OSM   H11T11114   4.199   5.474   9.538 -0.1449 -2.3288 -2.8323
  108OSM   C12S11115   4.144   5.589   9.358  0.0249 -0.0153  0.0019
  108OSM   H12S11116   4.143   5.492   9.303 -1.2353 -1.0969  1.7962
  108OSM   H12T11117   4.250   5.617   9.342  0.1671  0.9526  2.2114
  108OSM   C13S11118   4.058   5.702   9.303 -0.0978  0.5624 -0.1963
  108OSM   H13S11119   4.046   5.792   9.367  0.4832  2.0881 -2.1468
  108OSM   H13T11120   3.955   5.664   9.286  0.1067 -1.5758  2.5087
  108OSM   C14S11121   4.103   5.756   9.167 -0.1689  0.1549 -0.9309
  108OSM   H14S11122   4.204   5.800   9.181 -0.4562  0.5556  0.0261
  108OSM   H14T11123   4.042   5.845   9.140 -0.6407  0.2500  0.3682
  108OSM   C15S11124   4.090   5.651   9.056 -0.5565 -0.7979 -0.1611
  108OSM   H15S11125   3.980   5.652   9.037 -0.8155 -0.3180  1.2392
  108OSM   H15T11126   4.122   5.550   9.088  2.4689 -0.0877 -0.7239
  108OSM   C16S11127   4.180   5.684   8.931 -0.7385  0.0489  0.1384
  108OSM   H16S11128   4.285   5.660   8.958 -0.8435  0.2955  0.7840
  108OSM   H16T11129   4.181   5.795   8.919 -1.5927  0.1948  1.2155
  108OSM   C17S11130   4.136   5.609   8.809  0.4639  0.7541 -0.4923
  108OSM   H17S11131   4.045   5.650   8.760 -0.1074 -0.6316 -0.6463
  108OSM   H17T11132   4.107   5.506   8.839 -2.7471  1.6963  0.0785
  108OSM   C18S11133   4.238   5.590   8.697  0.2680 -0.5073 -0.9924
  108OSM   H18S11134   4.274   5.683   8.647 -0.6323  0.3697 -0.0846
  108OSM   H18T11135   4.184   5.531   8.620 -1.4823  0.8925 -0.9199
  108OSM   H18U11136   4.324   5.536   8.740  0.7453  2.2718  1.9881
  108OSM    C1F11137   4.012   5.552  10.475  0.4832  1.0417  0.7842
  108OSM     OF11138   3.903   5.576  10.522  0.0534  0.2232  0.7398
  108OSM    C2F11139   4.045   5.408  10.456 -0.3343 -0.0874  0.4556
  108OSM    H2F11140   3.961   5.341  10.484 -0.0394 -1.0641 -0.8652
  108OSM    H2G11141   4.138   5.385  10.512 -0.0881  1.0214  0.5151
  108OSM    C3F11142   4.069   5.375  10.301  0.4101  0.2306  0.3497
  108OSM    H3F11143   4.098   5.269  10.287 -1.6307 -0.4241  0.7926
  108OSM    H3G11144   4.130   5.454  10.253 -1.2761 -0.4278 -3.1922
  108OSM    C4F11145   3.948   5.398  10.212  0.8188 -0.5643 -0.0014
  108OSM    H4F11146   3.919   5.506  10.213  1.1359 -0.4319 -1.4925
  108OSM    H4G11147   3.854   5.351  10.249 -0.4659  0.9243 -1.2086
  108OSM    C5F11148   3.982   5.363  10.059  0.0691 -0.5770 -0.7785
  108OSM    H5F11149   4.020   5.259  10.046 -1.3632 -1.0481 -1.4622
  108OSM    H5G11150   4.076   5.420  10.039  0.5816  0.4634  3.6332
  108OSM    C6F11151   3.875   5.406   9.957  0.0723  0.2216  0.6837
  108OSM    H6F11152   3.879   5.517   9.951 -0.7922  0.1979 -1.1793
  108OSM    H6G11153   3.773   5.380   9.992 -0.3345 -0.0674 -0.6494
  108OSM    C7F11154   3.899   5.355   9.812  0.2450  0.2871  0.1220
  108OSM    H7F11155   4.007   5.372   9.792 -0.1315 -0.2119 -2.7534
  108OSM    H7G11156   3.856   5.417   9.730 -0.9857 -1.2769 -0.4590
  108OSM    C8F11157   3.845   5.206   9.798 -0.1456 -0.1245 -0.0359
  108OSM    H8F11158   3.734   5.196   9.793 -0.2004  0.0846  0.6518
  108OSM    H8G11159   3.885   5.161   9.892  1.8394  2.6599  0.5861
  108OSM    C9F11160   3.912   5.131   9.684  0.0326  0.1871 -0.0379
  108OSM    H9F11161   3.991   5.059   9.708 -2.0036 -2.3664 -0.4423
  108OSM   C10F11162   3.868   5.152   9.560 -0.0771 -0.6628  0.7928
  108OSM   H10F11163   3.924   5.098   9.483 -2.0109  1.3449 -2.2560
  108OSM   C11F11164   3.756   5.243   9.502 -0.0101  0.0990 -0.5763
  108OSM   H11F11165   3.715   5.314   9.577 -1.6654 -0.4626 -0.9111
  108OSM   H11G11166   3.675   5.178   9.461 -0.6693  1.2889 -1.2178
  108OSM   C12F11167   3.808   5.331   9.386 -0.1091  0.3364  0.0269
  108OSM   H12F11168   3.886   5.399   9.428 -0.7128 -0.0300  1.8552
  108OSM   H12G11169   3.725   5.400   9.361 -1.7898 -1.2719  0.9665
  108OSM   C13F11170   3.850   5.265   9.249 -0.1569 -0.1048  0.4103
  108OSM   H13F11171   3.765   5.203   9.215  0.4263 -0.2968 -0.7886
  108OSM   H13G11172   3.936   5.197   9.271 -0.5564 -1.0211 -0.7440
  108OSM   C14F11173   3.889   5.373   9.146  0.7516  0.2716  0.2694
  108OSM   H14F11174   3.959   5.443   9.195 -1.0305  0.0065  3.4468
  108OSM   H14G11175   3.804   5.436   9.111  1.2010  1.5525  1.3849
  108OSM   C15F11176   3.956   5.314   9.014 -0.0703  0.4350  0.0991
  108OSM   H15F11177   4.049   5.274   9.062 -1.0319 -0.8383  0.9778
  108OSM   H15G11178   3.985   5.388   8.937 -0.1883  1.0871  0.6697
  108OSM   C16F11179   3.889   5.199   8.944  0.0724 -0.3226  0.4222
  108OSM   H16F11180   3.842   5.128   9.016 -0.9173 -0.2632 -0.1459
  108OSM   H16G11181   3.967   5.134   8.898  1.5015  1.3556  0.3652
  108OSM   C17F11182   3.786   5.255   8.845 -0.7953  0.2653 -1.2205
  108OSM   H17F11183   3.762   5.166   8.783  0.8302 -1.1938  0.1389
  108OSM   H17G11184   3.842   5.326   8.780  1.2464  0.2403  0.3821
  108OSM   C18F11185   3.663   5.320   8.910 -0.3128  0.8682 -0.4147
  108OSM   H18F11186   3.642   5.281   9.011 -0.2591  0.8213 -0.4212
  108OSM   H18G11187   3.579   5.295   8.842  0.2547  1.4894 -1.3772
  108OSM   H18H11188   3.667   5.430   8.926  0.7938  0.5873  1.5186
  109OSM      N11189   3.815   6.708  10.884  0.4849 -0.0916  0.2709
  109OSM    C1511190   3.905   6.598  10.829 -0.3777 -0.3036  0.1253
  109OSM   H15A11191   3.853   6.531  10.763  1.1080 -2.1442  0.7139
  109OSM   H15B11192   3.934   6.535  10.912  2.3273  0.7316  0.0567
  109OSM   H15C11193   3.989   6.645  10.780 -0.1282  0.5275  1.3020
  109OSM    C1411194   3.687   6.653  10.933  0.4270  0.6873 -0.1934
  109OSM   H14A11195   3.639   6.585  10.864  2.1537 -0.3267 -0.4380
  109OSM   H14B11196   3.613   6.731  10.933  1.0411  1.2839 -0.6915
  109OSM   H14C11197   3.689   6.611  11.032  0.5428 -0.9019 -0.8352
  109OSM    C1311198   3.885   6.786  11.000  0.3383  1.0258 -0.5070
  109OSM   H13A11199   3.829   6.874  11.027  1.4148  1.2688  1.0622
  109OSM   H13B11200   3.986   6.810  10.969  0.9305 -2.8813 -2.1644
  109OSM   H13C11201   3.880   6.716  11.082  2.3708 -0.6251 -1.7024
  109OSM    C1211202   3.794   6.808  10.766 -0.0640  0.0309 -0.1067
  109OSM   H12A11203   3.738   6.761  10.687  0.7592 -0.4529 -0.4086
  109OSM   H12B11204   3.884   6.821  10.709 -0.2447 -1.7892 -0.8825
  109OSM    C1111205   3.735   6.949  10.792  0.2946  0.8334  0.3806
  109OSM   H11A11206   3.736   7.003  10.695 -1.3838 -2.1417 -1.4465
  109OSM   H11B11207   3.805   7.001  10.861 -0.6663  0.1690  1.9059
  109OSM      P11208   3.473   6.978  10.757 -0.0235  0.1846  0.2766
  109OSM    O1311209   3.356   6.908  10.813 -0.6587  0.4423  0.4245
  109OSM    O1411210   3.463   7.123  10.736  0.5640 -0.5979 -0.9631
  109OSM    O1111211   3.504   6.903  10.618  0.4064 -0.4928  0.7146
  109OSM    O1211212   3.602   6.941  10.842 -0.0901 -0.0237 -0.3584
  109OSM    C1S11213   3.446   6.955  10.493 -0.1007 -0.0675  0.4075
  109OSM    H1S11214   3.494   7.052  10.468 -0.5791  0.3092  0.9275
  109OSM    H1T11215   3.338   6.969  10.513 -0.1977 -0.6883  0.3129
  109OSM     NF11216   3.370   6.919  10.251 -0.0406  0.1745 -0.3269
  109OSM    HNF11217   3.285   6.884  10.213  1.1314 -3.6898  0.2451
  109OSM    C2S11218   3.432   6.856  10.366  0.2659 -0.1296 -0.0127
  109OSM    H2S11219   3.531   6.820  10.331  0.5280  0.3699  0.2006
  109OSM    C3S11220   3.361   6.722  10.399 -0.1202 -0.6361 -0.2055
  109OSM    H3S11221   3.255   6.735  10.429 -0.0102 -3.3123  1.7419
  109OSM     O311222   3.413   6.663  10.515  0.1567  0.3878 -0.1864
  109OSM    HO311223   3.462   6.737  10.552 -0.0571  0.9832 -1.0713
  109OSM    C4S11224   3.369   6.622  10.284 -0.1953 -0.3759 -0.0960
  109OSM    H4S11225   3.280   6.606  10.222  0.2268 -0.2026 -0.7529
  109OSM    C5S11226   3.478   6.558  10.242  0.1430  0.4747  0.3186
  109OSM    H5S11227   3.577   6.573  10.289  0.2692  1.5375 -0.2533
  109OSM    C6S11228   3.489   6.451  10.131 -0.2270 -1.4308 -0.4510
  109OSM    H6S11229   3.560   6.376  10.173  1.5122  1.2475  1.7967
  109OSM    H6T11230   3.538   6.490  10.039 -0.6421  0.7746  0.2081
  109OSM    C7S11231   3.358   6.386  10.109 -0.5662 -0.2505 -0.0470
  109OSM    H7S11232   3.285   6.455  10.061  0.3833  0.8308  0.0256
  109OSM    H7T11233   3.326   6.351  10.209  1.2673 -0.2199  0.5857
  109OSM    C8S11234   3.357   6.262  10.020 -0.0996 -0.1762  0.5121
  109OSM    H8S11235   3.264   6.208  10.047  0.2505 -0.7389  0.6170
  109OSM    H8T11236   3.444   6.197  10.044  1.5325  1.8478  0.3005
  109OSM    C9S11237   3.349   6.290   9.874  0.0295  0.0579 -0.0392
  109OSM    H9S11238   3.439   6.339   9.831 -0.9819  1.3067 -0.8278
  109OSM    H9T11239   3.270   6.368   9.864  0.4850  0.4788 -0.3832
  109OSM   C10S11240   3.321   6.163   9.801  1.0851 -0.4586 -0.1594
  109OSM   H10S11241   3.229   6.119   9.845  0.8288  0.1040 -0.1247
  109OSM   H10T11242   3.407   6.096   9.819  1.3806  0.3134  1.4835
  109OSM   C11S11243   3.288   6.192   9.650 -0.8134 -0.2390  0.0671
  109OSM   H11S11244   3.366   6.259   9.608 -1.1688  1.1400  1.4842
  109OSM   H11T11245   3.192   6.247   9.658  0.1844  1.4660  1.1743
  109OSM   C12S11246   3.276   6.064   9.569 -0.3331  0.1409 -0.2948
  109OSM   H12S11247   3.212   5.989   9.620  0.4122 -0.2746  0.0447
  109OSM   H12T11248   3.378   6.021   9.555 -1.1183 -1.8454 -0.2088
  109OSM   C13S11249   3.230   6.088   9.423  0.3879  0.2564 -0.3800
  109OSM   H13S11250   3.151   6.167   9.423 -0.8469 -0.9294  0.6811
  109OSM   H13T11251   3.209   5.990   9.376  1.3786  0.4990 -1.3609
  109OSM   C14S11252   3.348   6.144   9.342  0.4251  0.0686  0.3911
  109OSM   H14S11253   3.439   6.079   9.343 -0.9595 -2.1286 -2.1485
  109OSM   H14T11254   3.368   6.248   9.375  1.0409  0.5945 -1.4772
  109OSM   C15S11255   3.313   6.154   9.191 -0.7468  0.5112 -0.4942
  109OSM   H15S11256   3.208   6.190   9.192 -0.0171  2.8018 -0.8818
  109OSM   H15T11257   3.304   6.053   9.144  2.0097 -1.1428  2.1391
  109OSM   C16S11258   3.398   6.261   9.111  0.1188  0.4789  1.1464
  109OSM   H16S11259   3.499   6.216   9.121 -0.7960 -1.9183  0.3295
  109OSM   H16T11260   3.392   6.365   9.150  0.5216  2.3334 -3.1405
  109OSM   C17S11261   3.349   6.272   8.961  0.2231  0.0033 -0.0809
  109OSM   H17S11262   3.343   6.177   8.905  1.4559 -0.0544 -0.1470
  109OSM   H17T11263   3.422   6.335   8.906  0.1773 -0.2984 -0.4883
  109OSM   C18S11264   3.214   6.339   8.951  0.0366 -0.4020  0.2865
  109OSM   H18S11265   3.170   6.329   8.849  0.3562 -1.5585  0.2548
  109OSM   H18T11266   3.246   6.444   8.966  1.0084 -0.4227 -1.4575
  109OSM   H18U11267   3.144   6.305   9.031 -0.0230 -0.4506  0.2137
  109OSM    C1F11268   3.426   7.028  10.195  0.3990  0.4261 -0.4975
  109OSM     OF11269   3.543   7.066  10.218 -0.4885 -0.4498  0.0219
  109OSM    C2F11270   3.332   7.109  10.104 -0.0095 -0.0385  0.0790
  109OSM    H2F11271   3.294   7.203  10.148  1.0222  0.5743 -0.2990
  109OSM    H2G11272   3.255   7.034  10.075  0.4939 -0.5733  0.1053
  109OSM    C3F11273   3.417   7.129   9.974  0.0827 -0.2044 -0.5578
  109OSM    H3F11274   3.460   7.034   9.936 -0.5545 -0.4397 -0.6946
  109OSM    H3G11275   3.503   7.196   9.997 -1.2449  1.6263 -0.6934
  109OSM    C4F11276   3.343   7.193   9.856  1.2907 -0.0008  0.4174
  109OSM    H4F11277   3.347   7.299   9.889  0.0351 -0.1405  1.0688
  109OSM    H4G11278   3.238   7.158   9.850  1.6831 -0.9796 -2.2659
  109OSM    C5F11279   3.404   7.177   9.721 -0.6402 -0.0938 -0.8213
  109OSM    H5F11280   3.416   7.068   9.702  1.6825  0.2044 -1.4357
  109OSM    H5G11281   3.504   7.225   9.725 -1.0930  0.9231 -1.2701
  109OSM    C6F11282   3.324   7.238   9.610 -0.5303 -0.7406 -0.0771
  109OSM    H6F11283   3.320   7.349   9.616  0.1846 -0.7283  0.2352
  109OSM    H6G11284   3.225   7.188   9.613 -1.2915  0.6942 -0.4208
  109OSM    C7F11285   3.376   7.201   9.475 -0.5774 -0.5969 -0.6791
  109OSM    H7F11286   3.485   7.223   9.462 -0.3746 -0.5182  0.9403
  109OSM    H7G11287   3.326   7.273   9.407  0.0524  1.2559  0.7445
  109OSM    C8F11288   3.347   7.050   9.426  0.2191  0.0957 -0.1801
  109OSM    H8F11289   3.348   6.984   9.516 -1.9306  0.0404 -0.1648
  109OSM    H8G11290   3.424   7.025   9.350  0.5313 -1.8335  0.7060
  109OSM    C9F11291   3.209   7.047   9.361  0.2417  0.1657  0.1514
  109OSM    H9F11292   3.133   7.081   9.433  0.5784  0.7359  0.2451
  109OSM   C10F11293   3.179   7.027   9.231  0.0842 -0.4162 -1.0612
  109OSM   H10F11294   3.074   7.019   9.200 -0.2071  1.2306 -0.6262
  109OSM   C11F11295   3.273   7.008   9.122 -0.2013  0.5739 -0.1906
  109OSM   H11F11296   3.324   6.910   9.138  0.2017  0.6376 -1.0127
  109OSM   H11G11297   3.345   7.091   9.138  0.5816 -0.0102 -0.5945
  109OSM   C12F11298   3.233   7.016   8.971  0.5155 -0.4046 -0.5307
  109OSM   H12F11299   3.328   7.048   8.923 -1.0782  0.1297 -3.6360
  109OSM   H12G11300   3.154   7.092   8.950 -1.6961 -2.0150  1.5127
  109OSM   C13F11301   3.195   6.884   8.902 -0.0348 -0.3722 -0.5008
  109OSM   H13F11302   3.089   6.858   8.922  0.1632 -0.2859  0.7332
  109OSM   H13G11303   3.262   6.808   8.949  0.1541 -0.4902 -0.9551
  109OSM   C14F11304   3.225   6.875   8.746 -0.0433  0.4880 -0.1875
  109OSM   H14F11305   3.291   6.958   8.711  1.6876 -0.0494  1.6243
  109OSM   H14G11306   3.128   6.885   8.692  0.6648  0.8329 -1.4383
  109OSM   C15F11307   3.289   6.742   8.694 -0.0123  0.5464 -0.1001
  109OSM   H15F11308   3.202   6.673   8.694 -0.2481  0.7707 -2.2373
  109OSM   H15G11309   3.363   6.712   8.772 -0.6306 -2.1685 -0.4470
  109OSM   C16F11310   3.340   6.758   8.546  0.1804  0.2877  0.1308
  109OSM   H16F11311   3.420   6.834   8.539 -0.2250  0.7368  0.3045
  109OSM   H16G11312   3.247   6.802   8.503 -1.5579 -2.0770  1.2711
  109OSM   C17F11313   3.372   6.627   8.484 -0.6390  0.4159 -0.6358
  109OSM   H17F11314   3.299   6.551   8.521 -0.7439  1.0500  0.5060
  109OSM   H17G11315   3.467   6.606   8.538 -1.5226  0.8489  1.1813
  109OSM   C18F11316   3.380   6.614   8.330 -0.6499 -0.1239 -0.5900
  109OSM   H18F11317   3.443   6.692   8.282  1.0431 -1.8203 -1.2345
  109OSM   H18G11318   3.278   6.624   8.286 -0.8412  0.0102 -0.1237
  109OSM   H18H11319   3.427   6.519   8.296  3.1808  1.2898  0.2627
  110OSM      N11320   5.316   6.066  11.206  0.3151 -0.2891  0.3382
  110OSM    C1511321   5.451   6.104  11.175 -0.1318 -0.0308 -0.6307
  110OSM   H15A11322   5.498   6.008  11.155 -0.9169 -0.4257 -0.6048
  110OSM   H15B11323   5.507   6.132  11.263  0.9165  0.2796 -1.3711
  110OSM   H15C11324   5.471   6.188  11.110 -0.3751  2.9481  2.8274
  110OSM    C1411325   5.310   5.937  11.287 -0.1911 -0.2456 -0.0752
  110OSM   H14A11326   5.362   5.857  11.235 -2.1985  0.1514 -2.9228
  110OSM   H14B11327   5.205   5.915  11.295 -0.3560  0.2388 -0.8066
  110OSM   H14C11328   5.359   5.942  11.384 -0.5224 -0.0604  0.0838
  110OSM    C1311329   5.243   6.179  11.279 -0.4007 -1.3851 -0.4784
  110OSM   H13A11330   5.299   6.192  11.370 -1.8548  0.2247  0.2599
  110OSM   H13B11331   5.142   6.156  11.309 -1.6159  0.6428 -2.6363
  110OSM   H13C11332   5.243   6.273  11.225 -1.6648 -1.2641 -0.2910
  110OSM    C1211333   5.248   6.042  11.071 -0.4756 -0.1052 -0.5279
  110OSM   H12A11334   5.276   6.131  11.017 -1.6957 -0.4381 -1.7546
  110OSM   H12B11335   5.143   6.057  11.093 -0.0610  2.8411 -0.2405
  110OSM    C1111336   5.293   5.930  10.975  0.2775 -0.3295 -0.5824
  110OSM   H11A11337   5.398   5.938  10.940  0.3233  0.8632 -0.2033
  110OSM   H11B11338   5.233   5.950  10.883 -1.8191 -0.3813  0.7123
  110OSM      P11339   5.131   5.722  10.986  0.0484 -0.0172 -0.1886
  110OSM    O1311340   5.137   5.584  11.036 -0.5447  0.2892 -0.4508
  110OSM    O1411341   5.013   5.805  11.025  0.1824  0.1433  0.0223
  110OSM    O1111342   5.149   5.725  10.831 -0.6508  0.1444 -0.5487
  110OSM    O1211343   5.261   5.800  11.026  0.0711  0.6881 -0.6612
  110OSM    C1S11344   5.272   5.678  10.762 -0.5121 -0.8723 -0.4898
  110OSM    H1S11345   5.279   5.567  10.770 -1.5501 -0.8494  1.5079
  110OSM    H1T11346   5.360   5.731  10.803 -1.9357  0.0541  1.5754
  110OSM     NF11347   5.370   5.644  10.535 -0.0798 -0.8084 -0.1530
  110OSM    HNF11348   5.455   5.689  10.508 -0.5961 -0.1877 -0.7951
  110OSM    C2S11349   5.264   5.709  10.611 -0.1606 -0.6428 -0.1957
  110OSM    H2S11350   5.169   5.665  10.576 -0.1070  0.1286 -1.3621
  110OSM    C3S11351   5.253   5.853  10.581  0.3697 -0.5418  0.1381
  110OSM    H3S11352   5.340   5.911  10.618 -0.4055 -0.2691  1.5753
  110OSM     O311353   5.144   5.920  10.653 -0.2768  0.1249  0.3767
  110OSM    HO311354   5.128   5.860  10.726 -3.0488 -0.1091 -0.2974
  110OSM    C4S11355   5.243   5.874  10.430  0.4585  0.1846 -0.6141
  110OSM    H4S11356   5.341   5.869  10.380  1.5372 -1.0744  1.4803
  110OSM    C5S11357   5.135   5.885  10.353  0.0262  0.1578 -0.0494
  110OSM    H5S11358   5.033   5.878  10.394  0.1258  0.2388  0.2176
  110OSM    C6S11359   5.137   5.909  10.200 -0.4606 -0.1004 -0.3147
  110OSM    H6S11360   5.225   5.963  10.156 -2.3846  1.7693 -2.1434
  110OSM    H6T11361   5.061   5.985  10.171  0.8031  1.1577 -0.4281
  110OSM    C7S11362   5.124   5.774  10.121  0.0244  0.4674  0.3224
  110OSM    H7S11363   5.027   5.726  10.145  0.9560 -1.0846  1.1193
  110OSM    H7T11364   5.206   5.716  10.169  2.2213  0.9777 -2.5361
  110OSM    C8S11365   5.156   5.781   9.971  0.2628 -0.4114 -0.1056
  110OSM    H8S11366   5.226   5.865   9.950  0.9175 -0.7233  0.7192
  110OSM    H8T11367   5.068   5.812   9.911  0.0846  0.3482  0.5251
  110OSM    C9S11368   5.214   5.647   9.928 -0.3273 -0.3294  0.6266
  110OSM    H9S11369   5.144   5.565   9.957 -2.7907  0.0464 -3.3720
  110OSM    H9T11370   5.310   5.643   9.983 -0.4412  1.7244  1.0375
  110OSM   C10S11371   5.231   5.618   9.774 -0.0457  0.1418 -0.6455
  110OSM   H10S11372   5.136   5.567   9.744  1.2238 -1.1934 -2.5891
  110OSM   H10T11373   5.308   5.540   9.763 -0.2575  0.1395 -2.3141
  110OSM   C11S11374   5.259   5.737   9.679  0.0848 -0.2157 -0.3383
  110OSM   H11S11375   5.364   5.765   9.703  0.7091  0.3281 -3.3106
  110OSM   H11T11376   5.194   5.824   9.699  1.0043  0.0999  1.5011
  110OSM   C12S11377   5.240   5.685   9.536 -0.7336  0.4202  0.0179
  110OSM   H12S11378   5.271   5.578   9.544  1.1415  0.9175 -0.0272
  110OSM   H12T11379   5.313   5.731   9.465 -1.6993  0.9047 -0.6838
  110OSM   C13S11380   5.103   5.704   9.466 -0.1931 -0.3489 -0.6815
  110OSM   H13S11381   5.027   5.685   9.544  0.7961 -0.1393  0.3514
  110OSM   H13T11382   5.076   5.622   9.397 -2.3779 -2.0768  2.0195
  110OSM   C14S11383   5.088   5.844   9.407 -0.3466 -0.6517 -0.4996
  110OSM   H14S11384   5.158   5.848   9.321  0.7462 -2.4598  0.2272
  110OSM   H14T11385   5.120   5.920   9.482  1.8144 -0.5480 -1.4575
  110OSM   C15S11386   4.948   5.867   9.353 -0.0380  0.0805  0.1832
  110OSM   H15S11387   4.865   5.867   9.428 -1.5063 -0.4268 -1.3751
  110OSM   H15T11388   4.926   5.795   9.271  0.8590  0.8755 -0.7757
  110OSM   C16S11389   4.947   6.003   9.272 -0.5370  0.0306  0.6204
  110OSM   H16S11390   4.983   6.078   9.346 -2.1540  1.7447 -0.2397
  110OSM   H16T11391   4.839   6.024   9.253 -0.7523 -1.6296 -0.0745
  110OSM   C17S11392   5.036   6.015   9.151  0.0501  0.3551  0.3901
  110OSM   H17S11393   5.141   6.011   9.188  0.3854 -0.0496 -0.5666
  110OSM   H17T11394   5.021   6.113   9.100 -2.7384 -0.9746 -1.5608
  110OSM   C18S11395   5.026   5.905   9.046  0.2018  0.5966 -0.2945
  110OSM   H18S11396   5.032   5.804   9.092 -2.3195  0.4034 -0.2369
  110OSM   H18T11397   5.099   5.918   8.963  1.5755  1.1303  0.9460
  110OSM   H18U11398   4.926   5.905   8.998  0.0461  2.5330 -0.0449
  110OSM    C1F11399   5.376   5.511  10.523  0.0884  0.0851  1.1381
  110OSM     OF11400   5.266   5.452  10.534  0.0777 -0.6763 -0.4702
  110OSM    C2F11401   5.504   5.449  10.495 -0.4742  0.0964  0.4070
  110OSM    H2F11402   5.488   5.346  10.533  1.1652 -0.3823 -0.1256
  110OSM    H2G11403   5.585   5.494  10.555  2.5466 -3.2638 -0.7871
  110OSM    C3F11404   5.539   5.429  10.345 -0.8905  0.2565 -0.5287
  110OSM    H3F11405   5.631   5.367  10.349 -2.4644 -2.2969  3.0771
  110OSM    H3G11406   5.554   5.523  10.289 -3.6931  0.2996 -1.3767
  110OSM    C4F11407   5.440   5.346  10.266 -0.3445 -0.0119  0.0196
  110OSM    H4F11408   5.350   5.411  10.262 -0.7298 -0.5792 -0.5410
  110OSM    H4G11409   5.415   5.256  10.326  0.2831  0.8636  1.6501
  110OSM    C5F11410   5.476   5.295  10.129 -0.5734  0.2406 -0.8756
  110OSM    H5F11411   5.388   5.240  10.090 -1.9327  3.1601 -2.2288
  110OSM    H5G11412   5.561   5.223  10.135 -0.3285  0.6528  1.5793
  110OSM    C6F11413   5.503   5.410  10.036  0.3571  0.3382  0.5359
  110OSM    H6F11414   5.595   5.463  10.067  0.5946 -0.1820  0.7269
  110OSM    H6G11415   5.423   5.488  10.032 -0.5094 -0.5385  0.3082
  110OSM    C7F11416   5.557   5.357   9.901  0.0925 -0.1369  0.1924
  110OSM    H7F11417   5.473   5.297   9.857  1.6693 -3.0446  0.8569
  110OSM    H7G11418   5.629   5.284   9.944 -1.7328 -0.1772  3.5255
  110OSM    C8F11419   5.622   5.456   9.803 -0.3304  0.0535 -0.4744
  110OSM    H8F11420   5.683   5.512   9.878 -0.2234 -0.8720  0.1525
  110OSM    H8G11421   5.540   5.514   9.757  1.5736  1.2321 -2.5289
  110OSM    C9F11422   5.711   5.387   9.699  0.2830 -0.2191  0.2428
  110OSM    H9F11423   5.819   5.386   9.721  0.1674 -1.4061  0.8474
  110OSM   C10F11424   5.670   5.337   9.587 -0.6116  0.4907  0.3221
  110OSM   H10F11425   5.745   5.296   9.518 -0.4411  5.0675 -2.6658
  110OSM   C11F11426   5.526   5.340   9.541 -0.3498 -0.0354 -0.7904
  110OSM   H11F11427   5.453   5.368   9.620 -0.4668 -1.4043 -0.3824
  110OSM   H11G11428   5.506   5.235   9.510  0.4656  0.0403 -1.6261
  110OSM   C12F11429   5.501   5.442   9.428  0.2212  0.0590 -0.9251
  110OSM   H12F11430   5.548   5.538   9.459 -1.9512  1.2569 -1.1334
  110OSM   H12G11431   5.395   5.472   9.418  0.4866  1.7978  0.7789
  110OSM   C13F11432   5.559   5.399   9.295  0.2314 -0.2081 -0.2233
  110OSM   H13F11433   5.504   5.308   9.262 -2.5529  0.9894  0.8548
  110OSM   H13G11434   5.665   5.373   9.319  0.7728  3.0228  1.4402
  110OSM   C14F11435   5.565   5.504   9.190 -0.0776  0.1475  0.3498
  110OSM   H14F11436   5.592   5.593   9.249 -1.3915  0.3865  0.6257
  110OSM   H14G11437   5.467   5.529   9.144 -1.2240 -2.8642  0.8882
  110OSM   C15F11438   5.665   5.490   9.070 -0.2075 -0.3271  0.0370
  110OSM   H15F11439   5.653   5.391   9.021 -1.4013 -1.5034  2.5386
  110OSM   H15G11440   5.762   5.492   9.124 -0.9620  2.4389  1.4712
  110OSM   C16F11441   5.674   5.613   8.979  0.3353 -0.1358 -0.3543
  110OSM   H16F11442   5.714   5.694   9.043  0.5000 -0.7343  0.3043
  110OSM   H16G11443   5.568   5.635   8.951  0.5530  0.3385 -0.8250
  110OSM   C17F11444   5.765   5.609   8.854  0.4200  0.0487 -0.4612
  110OSM   H17F11445   5.727   5.517   8.802 -0.1966 -0.3066  0.5863
  110OSM   H17G11446   5.867   5.585   8.892 -0.2465 -1.8447  0.2812
  110OSM   C18F11447   5.769   5.735   8.764 -0.4656  0.4769  0.3442
  110OSM   H18F11448   5.807   5.827   8.812 -0.4843  1.0173 -0.6379
  110OSM   H18G11449   5.670   5.771   8.730 -0.3433  0.6027  0.1155
  110OSM   H18H11450   5.835   5.719   8.675  0.4935 -2.1057  1.4321
  111OSM      N11451   5.625   4.025  11.063  0.2532 -0.8212  0.1794
  111OSM    C1511452   5.540   4.111  11.153  0.2183 -0.2029  0.9952
  111OSM   H15A11453   5.594   4.153  11.237 -0.2947 -0.7026  1.5948
  111OSM   H15B11454   5.459   4.051  11.192  0.8624 -1.0267  1.0971
  111OSM   H15C11455   5.496   4.191  11.096  1.0780 -0.4888 -0.0999
  111OSM    C1411456   5.750   4.092  11.019 -0.4271 -0.2634 -0.5026
  111OSM   H14A11457   5.815   4.029  10.960 -1.3257 -0.4640 -1.3142
  111OSM   H14B11458   5.804   4.124  11.107  1.6119 -0.4035 -1.6544
  111OSM   H14C11459   5.720   4.177  10.960  1.4260  2.3204  2.0448
  111OSM    C1311460   5.661   3.908  11.133  0.3384 -0.4700 -0.0798
  111OSM   H13A11461   5.706   3.843  11.060  0.0922 -0.9495  0.1900
  111OSM   H13B11462   5.576   3.853  11.171  0.3646  0.2207  1.0312
  111OSM   H13C11463   5.722   3.929  11.220 -1.9108 -0.1418  1.5092
  111OSM    C1211464   5.541   3.994  10.939 -1.0527  0.3962 -0.4003
  111OSM   H12A11465   5.509   4.085  10.892 -3.3498  0.3628  0.9844
  111OSM   H12B11466   5.449   3.947  10.972 -0.2316  1.0297  3.2619
  111OSM    C1111467   5.607   3.912  10.831  0.6781 -0.7234  0.3356
  111OSM   H11A11468   5.687   3.971  10.781 -1.2820  0.9432 -1.0106
  111OSM   H11B11469   5.527   3.903  10.755  1.6596  0.2307 -0.8574
  111OSM      P11470   5.752   3.701  10.825 -0.2374  0.3652  0.1689
  111OSM    O1311471   5.839   3.779  10.739  0.3159  0.0902  0.3690
  111OSM    O1411472   5.805   3.642  10.951  0.3182 -0.3167 -1.0097
  111OSM    O1111473   5.700   3.582  10.735  0.3891  0.2346  0.3001
  111OSM    O1211474   5.631   3.780  10.873 -0.0541  0.1506  0.0375
  111OSM    C1S11475   5.596   3.590  10.644 -0.4665 -0.5213 -0.4205
  111OSM    H1S11476   5.560   3.695  10.637 -0.7776 -0.5663  0.4155
  111OSM    H1T11477   5.510   3.526  10.672  0.0229 -0.7406  0.6212
  111OSM     NF11478   5.548   3.579  10.404  0.5034 -0.2776 -0.1637
  111OSM    HNF11479   5.497   3.501  10.367 -0.0859  0.0041  0.0354
  111OSM    C2S11480   5.648   3.548  10.498  0.6156 -0.5138  0.0929
  111OSM    H2S11481   5.735   3.616  10.487 -0.0444  0.2520 -0.5261
  111OSM    C3S11482   5.694   3.401  10.500  0.1462 -0.6052  0.6622
  111OSM    H3S11483   5.609   3.339  10.537  0.3026 -1.6960 -0.7444
  111OSM     O311484   5.803   3.369  10.592 -0.1039  0.2824  0.2227
  111OSM    HO311485   5.802   3.441  10.655 -1.5426  0.1578  0.3817
  111OSM    C4S11486   5.743   3.363  10.365 -0.1167  0.6142  0.2058
  111OSM    H4S11487   5.836   3.412  10.332  0.1203  0.4943  0.6953
  111OSM    C5S11488   5.685   3.266  10.293  0.1149 -0.4375  0.8728
  111OSM    H5S11489   5.587   3.233  10.329 -1.2893 -0.1090 -2.3151
  111OSM    C6S11490   5.729   3.228  10.153  0.1649 -0.2205  0.1340
  111OSM    H6S11491   5.770   3.125  10.144 -0.6689 -0.6402  0.8798
  111OSM    H6T11492   5.802   3.294  10.101  1.1636 -0.7744  0.8002
  111OSM    C7S11493   5.599   3.208  10.069 -0.0082 -0.2774  0.2908
  111OSM    H7S11494   5.548   3.307  10.077 -2.1703 -1.1452 -1.6699
  111OSM    H7T11495   5.543   3.126  10.119 -1.4202 -0.0088 -0.7712
  111OSM    C8S11496   5.613   3.174   9.914 -0.0109 -0.4057 -0.3694
  111OSM    H8S11497   5.704   3.112   9.897  1.2680  0.8311  1.6218
  111OSM    H8T11498   5.633   3.260   9.847 -1.1322 -0.4135 -0.7236
  111OSM    C9S11499   5.490   3.091   9.870 -0.0074 -0.3048 -0.4199
  111OSM    H9S11500   5.398   3.153   9.859 -0.0260 -0.3282 -0.3978
  111OSM    H9T11501   5.459   3.005   9.934 -0.7513 -0.8822 -1.5211
  111OSM   C10S11502   5.497   3.020   9.732  0.2958  0.4898 -0.9467
  111OSM   H10S11503   5.395   2.987   9.706 -0.2643  2.8419 -2.0064
  111OSM   H10T11504   5.565   2.932   9.731 -0.9194 -0.4589 -1.2098
  111OSM   C11S11505   5.531   3.119   9.616  0.0590 -0.3913  0.1681
  111OSM   H11S11506   5.629   3.168   9.637 -0.8750  0.4447  3.0221
  111OSM   H11T11507   5.461   3.204   9.628  1.2220  0.6196  0.0003
  111OSM   C12S11508   5.517   3.055   9.477 -0.3672  0.5937 -0.7011
  111OSM   H12S11509   5.410   3.026   9.467  0.3256 -1.9223 -1.5395
  111OSM   H12T11510   5.580   2.963   9.467  1.1485  1.5678 -0.4609
  111OSM   C13S11511   5.547   3.146   9.357 -0.1918  0.1916 -0.4178
  111OSM   H13S11512   5.651   3.135   9.321 -0.1679 -1.3353  0.0486
  111OSM   H13T11513   5.546   3.251   9.394  2.0454 -0.0131  0.3894
  111OSM   C14S11514   5.457   3.131   9.228 -0.0103  0.7039 -0.1114
  111OSM   H14S11515   5.353   3.160   9.251 -1.0924  0.1672 -3.7502
  111OSM   H14T11516   5.441   3.029   9.187 -0.1597  1.0713 -0.9809
  111OSM   C15S11517   5.498   3.226   9.117  0.6319  0.3088 -0.1798
  111OSM   H15S11518   5.601   3.195   9.087  0.9984  0.5145  0.8093
  111OSM   H15T11519   5.484   3.333   9.143 -1.2666 -0.0922  0.6341
  111OSM   C16S11520   5.410   3.228   8.988  0.6489  0.2225  0.1021
  111OSM   H16S11521   5.311   3.275   9.010  0.4490  0.8597 -1.9818
  111OSM   H16T11522   5.396   3.124   8.953 -1.7601 -0.9309  3.8928
  111OSM   C17S11523   5.479   3.309   8.877  0.4119 -0.0580  0.3823
  111OSM   H17S11524   5.575   3.253   8.866 -0.1484 -0.8240 -0.8011
  111OSM   H17T11525   5.489   3.418   8.897  2.2989 -0.4135  1.6316
  111OSM   C18S11526   5.400   3.282   8.746 -0.8557 -0.1649 -0.0659
  111OSM   H18S11527   5.404   3.172   8.733  0.4737 -0.3173  1.4166
  111OSM   H18T11528   5.435   3.329   8.651 -1.3522  2.6527  1.0487
  111OSM   H18U11529   5.295   3.318   8.755 -0.9596 -0.4133 -0.2573
  111OSM    C1F11530   5.522   3.701  10.371 -0.5053 -0.6083 -0.2817
  111OSM     OF11531   5.588   3.791  10.426 -0.0706 -0.3161 -0.1604
  111OSM    C2F11532   5.409   3.727  10.271 -0.3040  0.4150 -1.0097
  111OSM    H2F11533   5.316   3.703  10.326  1.5144  0.4337  2.3906
  111OSM    H2G11534   5.424   3.657  10.186  3.8810  1.1798 -1.1453
  111OSM    C3F11535   5.403   3.872  10.230 -0.0122  0.3275  0.4501
  111OSM    H3F11536   5.489   3.914  10.174  1.0994 -1.6013  0.6275
  111OSM    H3G11537   5.406   3.933  10.322  1.4710 -0.1605  0.7537
  111OSM    C4F11538   5.286   3.912  10.140 -0.2763 -0.3333 -0.0422
  111OSM    H4F11539   5.287   4.023  10.142 -2.1297 -0.2931  1.6951
  111OSM    H4G11540   5.189   3.873  10.178 -1.8626  3.5004  0.2668
  111OSM    C5F11541   5.311   3.856   9.992  1.1383 -0.3749 -0.7536
  111OSM    H5F11542   5.327   3.746   9.988 -4.1511 -1.5280  1.2646
  111OSM    H5G11543   5.404   3.911   9.968  1.0813  0.2539  0.3750
  111OSM    C6F11544   5.188   3.885   9.905  0.2473  0.0656 -0.3003
  111OSM    H6F11545   5.173   3.995   9.903 -2.8492 -0.2305  0.6255
  111OSM    H6G11546   5.097   3.835   9.945 -2.5458  3.1587 -2.1864
  111OSM    C7F11547   5.214   3.838   9.765  0.7355 -0.1237  0.4811
  111OSM    H7F11548   5.119   3.849   9.709  0.0755  0.5969  1.7099
  111OSM    H7G11549   5.231   3.729   9.767 -1.9169 -0.6065  0.2584
  111OSM    C8F11550   5.326   3.915   9.692  0.4754  0.3879 -0.0467
  111OSM    H8F11551   5.424   3.915   9.744  0.1384  0.9126  0.6024
  111OSM    H8G11552   5.305   4.023   9.681  4.7856  1.3605 -0.4132
  111OSM    C9F11553   5.340   3.852   9.547  0.1622 -0.6648 -0.3260
  111OSM    H9F11554   5.419   3.778   9.531  2.2008  1.5401 -0.9881
  111OSM   C10F11555   5.278   3.894   9.434 -0.8024  0.9282 -0.4324
  111OSM   H10F11556   5.308   3.840   9.343  1.1186 -0.8862  1.1800
  111OSM   C11F11557   5.178   4.005   9.415 -0.3585 -0.2145  0.2844
  111OSM   H11F11558   5.212   4.098   9.465  0.0674 -0.6770  0.8645
  111OSM   H11G11559   5.086   3.973   9.466 -1.5482  0.1893 -1.5079
  111OSM   C12F11560   5.148   4.029   9.268  0.2674  0.5534 -0.1956
  111OSM   H12F11561   5.099   3.938   9.228  0.6461 -0.7064  2.0213
  111OSM   H12G11562   5.243   4.048   9.215 -0.2433  0.2942 -1.2249
  111OSM   C13F11563   5.066   4.156   9.236 -1.3300  0.2508  0.3333
  111OSM   H13F11564   5.123   4.239   9.282 -0.5496 -1.6169  2.9608
  111OSM   H13G11565   4.967   4.144   9.287 -2.7440  1.2905 -2.0086
  111OSM   C14F11566   5.046   4.164   9.084 -0.1423  0.5930 -0.5747
  111OSM   H14F11567   4.980   4.079   9.056 -1.7497  0.8343  2.1260
  111OSM   H14G11568   5.147   4.167   9.038 -0.4124  2.5948 -1.1252
  111OSM   C15F11569   4.970   4.278   9.027  0.2990 -0.5927 -0.0452
  111OSM   H15F11570   5.013   4.373   9.065  2.2692 -0.8798 -1.3790
  111OSM   H15G11571   4.868   4.273   9.071  0.8116 -1.6005  1.0806
  111OSM   C16F11572   4.973   4.280   8.879 -0.2297  0.6252 -0.1155
  111OSM   H16F11573   4.934   4.184   8.837  0.3024  0.3144  0.1009
  111OSM   H16G11574   5.079   4.294   8.851 -0.7921  1.5885 -1.9710
  111OSM   C17F11575   4.884   4.391   8.823 -0.0138  0.0708 -0.7860
  111OSM   H17F11576   4.929   4.490   8.847 -2.5461  0.8130  1.3142
  111OSM   H17G11577   4.797   4.381   8.892  1.7767 -1.7953  1.3644
  111OSM   C18F11578   4.842   4.380   8.674  0.5849  0.2249 -0.2492
  111OSM   H18F11579   4.795   4.280   8.663  0.6023  0.1919 -0.0251
  111OSM   H18G11580   4.939   4.378   8.619 -0.2819  1.4042 -1.9200
  111OSM   H18H11581   4.771   4.459   8.640  2.5405  1.9437 -0.5309
  112OSM      N11582   1.033   6.712  11.209 -0.3223  0.6590 -0.7881
  112OSM    C1511583   1.153   6.804  11.219  0.3957 -0.7865 -0.2309
  112OSM   H15A11584   1.248   6.756  11.237  1.0764  0.9486  1.0419
  112OSM   H15B11585   1.147   6.881  11.294  0.4388  2.0378 -2.9246
  112OSM   H15C11586   1.148   6.852  11.122 -1.9284 -1.7617 -0.6693
  112OSM    C1411587   1.004   6.658  11.344  0.2942  0.3391 -0.0940
  112OSM   H14A11588   0.913   6.601  11.328 -1.3829  2.5942  0.8409
  112OSM   H14B11589   0.985   6.733  11.419  0.1427 -0.1099  0.3265
  112OSM   H14C11590   1.088   6.600  11.380  1.2945  2.5763  1.3736
  112OSM    C1311591   0.917   6.798  11.169  0.5881 -0.0833  0.1994
  112OSM   H13A11592   0.820   6.761  11.195  0.0222  2.0166  1.3126
  112OSM   H13B11593   0.930   6.816  11.063  1.1021  1.0775  0.4428
  112OSM   H13C11594   0.915   6.900  11.205 -2.7588  1.0185 -2.5361
  112OSM    C1211595   1.061   6.602  11.110 -0.1332  0.2644  0.7205
  112OSM   H12A11596   1.140   6.540  11.150 -0.2316  0.1904  0.8008
  112OSM   H12B11597   1.098   6.648  11.019  0.5681  0.1617  0.9475
  112OSM    C1111598   0.938   6.508  11.063 -0.8599 -0.6879 -0.4331
  112OSM   H11A11599   0.983   6.449  10.981  1.3366  0.9660 -0.5027
  112OSM   H11B11600   0.858   6.566  11.013  0.3168  1.0716 -0.3598
  112OSM      P11601   0.925   6.278  11.176 -0.1832  0.5370 -0.3014
  112OSM    O1311602   1.071   6.267  11.161  0.3707  0.1010 -0.0154
  112OSM    O1411603   0.867   6.226  11.310  0.2324 -0.2617 -0.3589
  112OSM    O1111604   0.855   6.194  11.055  0.6522 -0.0744 -0.1563
  112OSM    O1211605   0.881   6.429  11.169 -0.0552  0.2965  0.4544
  112OSM    C1S11606   0.736   6.230  10.989  0.5151 -0.0524 -0.2314
  112OSM    H1S11607   0.706   6.334  11.012 -0.0885  0.0106 -1.2156
  112OSM    H1T11608   0.654   6.162  11.020 -0.4654  2.4045  3.1241
  112OSM     NF11609   0.618   6.256  10.774 -0.6088 -0.1912  0.2723
  112OSM    HNF11610   0.566   6.172  10.759  0.3630 -0.8610  0.5331
  112OSM    C2S11611   0.746   6.223  10.835 -0.2801 -0.5305  0.5020
  112OSM    H2S11612   0.815   6.304  10.803 -1.5155  0.2495 -0.2503
  112OSM    C3S11613   0.791   6.076  10.794  0.0600 -0.3887 -0.0972
  112OSM    H3S11614   0.714   6.010  10.839 -0.7496  1.8727  2.0356
  112OSM     O311615   0.913   6.029  10.844  0.3044  0.1377 -0.2247
  112OSM    HO311616   0.918   6.081  10.925 -0.7635 -1.1682  0.7214
  112OSM    C4S11617   0.805   6.057  10.647 -0.0342  0.2977  0.4344
  112OSM    H4S11618   0.897   6.095  10.602 -0.1941 -0.4003 -0.5143
  112OSM    C5S11619   0.721   5.979  10.567  0.0417 -1.0555  0.0600
  112OSM    H5S11620   0.636   5.934  10.620 -2.3534  2.3102 -0.5758
  112OSM    C6S11621   0.738   5.949  10.422  0.7052  0.0363 -0.8634
  112OSM    H6S11622   0.738   5.839  10.406  0.7864 -0.3055  1.2659
  112OSM    H6T11623   0.842   5.978  10.394  1.0123 -1.6639 -1.5724
  112OSM    C7S11624   0.627   6.017  10.338 -0.0145  0.5643 -0.1614
  112OSM    H7S11625   0.619   6.124  10.369  0.3967  0.9616 -1.3523
  112OSM    H7T11626   0.530   5.970  10.366  0.7788 -0.7375  0.4971
  112OSM    C8S11627   0.642   6.000  10.194  0.0091  0.0294 -0.6166
  112OSM    H8S11628   0.735   6.049  10.158  0.4243  2.6197  3.3080
  112OSM    H8T11629   0.550   6.039  10.145 -0.2117  0.0971 -0.1598
  112OSM    C9S11630   0.625   5.850  10.156  0.4795 -0.7671 -0.0579
  112OSM    H9S11631   0.551   5.796  10.218 -0.9866 -0.4152 -1.4418
  112OSM    H9T11632   0.719   5.795  10.179  1.6175 -0.0509 -2.6519
  112OSM   C10S11633   0.593   5.819  10.010  0.1304 -0.1476  0.1257
  112OSM   H10S11634   0.576   5.709  10.014  1.1802 -0.2819  2.2680
  112OSM   H10T11635   0.681   5.844   9.946  1.1204 -0.5530  1.2830
  112OSM   C11S11636   0.466   5.893   9.961 -0.3443 -0.7287 -0.9430
  112OSM   H11S11637   0.498   6.000   9.954 -0.0410 -0.7697 -0.2098
  112OSM   H11T11638   0.392   5.880  10.042 -0.2773 -0.7123 -0.8793
  112OSM   C12S11639   0.398   5.837   9.830  0.2748 -0.4408  0.1919
  112OSM   H12S11640   0.315   5.908   9.808 -0.3847 -0.7041  1.6553
  112OSM   H12T11641   0.351   5.738   9.849 -0.0689 -0.6604 -1.6539
  112OSM   C13S11642   0.489   5.828   9.706  0.3467  0.0235 -0.1514
  112OSM   H13S11643   0.411   5.813   9.628  0.3498 -0.5889 -0.0406
  112OSM   H13T11644   0.562   5.747   9.726  0.9310  0.9087  1.5297
  112OSM   C14S11645   0.557   5.953   9.665  0.0565  0.3157  0.4081
  112OSM   H14S11646   0.642   5.974   9.733  0.1453 -2.7961  1.4100
  112OSM   H14T11647   0.485   6.038   9.667 -1.2489 -0.7528  0.4383
  112OSM   C15S11648   0.612   5.921   9.523 -0.1798  0.1829  0.0294
  112OSM   H15S11649   0.532   5.928   9.446 -1.5383  1.1849  1.4960
  112OSM   H15T11650   0.660   5.821   9.518 -1.6040 -0.7103  2.4869
  112OSM   C16S11651   0.718   6.026   9.479 -1.0271 -0.1936  0.5376
  112OSM   H16S11652   0.679   6.124   9.513  0.0365  0.4862 -0.1300
  112OSM   H16T11653   0.708   6.021   9.368  0.3092 -0.7967  0.4305
  112OSM   C17S11654   0.861   5.997   9.533  0.7040 -0.3452 -0.2541
  112OSM   H17S11655   0.887   5.901   9.484 -0.8463  0.4312 -2.7779
  112OSM   H17T11656   0.862   5.996   9.644  0.9386  2.8080 -0.1372
  112OSM   C18S11657   0.958   6.100   9.489 -0.1058  0.4053 -0.3575
  112OSM   H18S11658   1.057   6.068   9.529 -0.0823  1.2508  0.2726
  112OSM   H18T11659   0.936   6.200   9.531 -3.8266 -1.0770  1.6595
  112OSM   H18U11660   0.971   6.117   9.379  1.2517  5.5965  0.3278
  112OSM    C1F11661   0.564   6.376  10.769  0.2471 -0.2635 -0.1079
  112OSM     OF11662   0.629   6.468  10.814 -0.0649  0.3760 -0.3308
  112OSM    C2F11663   0.425   6.387  10.719 -0.3057 -0.1506  0.1723
  112OSM    H2F11664   0.364   6.395  10.811 -0.6484 -2.6055  0.2281
  112OSM    H2G11665   0.402   6.289  10.673 -2.1848 -0.5368  1.8187
  112OSM    C3F11666   0.394   6.513  10.636  0.2728  0.6410 -0.3474
  112OSM    H3F11667   0.405   6.599  10.707  1.5982 -0.6202  1.0354
  112OSM    H3G11668   0.289   6.524  10.599  0.3787  0.0868 -0.8087
  112OSM    C4F11669   0.475   6.531  10.510  0.5192  0.2671  0.7115
  112OSM    H4F11670   0.583   6.537  10.534  0.7900 -0.4095 -0.2820
  112OSM    H4G11671   0.450   6.625  10.457  1.3488 -0.5345 -1.2021
  112OSM    C5F11672   0.455   6.419  10.413 -1.0759 -0.2609  0.4425
  112OSM    H5F11673   0.346   6.398  10.410 -1.3024  0.3116  2.7775
  112OSM    H5G11674   0.500   6.319  10.431 -0.1179 -0.6859 -3.3834
  112OSM    C6F11675   0.506   6.446  10.267 -0.2379 -0.6228 -0.4427
  112OSM    H6F11676   0.609   6.404  10.261 -0.1937 -0.4109 -1.1797
  112OSM    H6G11677   0.521   6.554  10.249 -0.2354 -0.7424 -1.1950
  112OSM    C7F11678   0.420   6.371  10.164  0.0483  0.0389  0.7973
  112OSM    H7F11679   0.336   6.439  10.141  1.3796  1.3607 -0.3845
  112OSM    H7G11680   0.373   6.286  10.218 -1.5432  1.4876  1.7618
  112OSM    C8F11681   0.487   6.318  10.032 -0.0554 -1.2603 -0.4454
  112OSM    H8F11682   0.423   6.244   9.979  0.1082 -1.4757 -0.3408
  112OSM    H8G11683   0.578   6.259  10.055 -0.9500 -1.7671  2.1988
  112OSM    C9F11684   0.531   6.433   9.950 -0.3096  0.5778  0.4499
  112OSM    H9F11685   0.579   6.516  10.005 -2.4544  1.7817  0.6059
  112OSM   C10F11686   0.500   6.450   9.825  0.2103 -0.1387  0.4162
  112OSM   H10F11687   0.541   6.535   9.768 -0.4260 -1.6224 -2.4620
  112OSM   C11F11688   0.410   6.363   9.733  0.1070  0.3450  0.2623
  112OSM   H11F11689   0.313   6.414   9.717 -0.6865 -0.6043  1.7876
  112OSM   H11G11690   0.405   6.262   9.779 -0.8960  1.5653  3.0434
  112OSM   C12F11691   0.477   6.360   9.600  0.4766  0.2789  0.8284
  112OSM   H12F11692   0.570   6.301   9.610 -0.4257 -1.5261 -0.8025
  112OSM   H12G11693   0.512   6.456   9.556  0.0089 -0.8270 -2.1751
  112OSM   C13F11694   0.389   6.297   9.495  0.0393 -0.0402 -0.3168
  112OSM   H13F11695   0.329   6.211   9.532 -0.4962  0.2729 -0.4521
  112OSM   H13G11696   0.459   6.261   9.417  0.7612 -1.1537  0.8007
  112OSM   C14F11697   0.290   6.393   9.424  0.1493 -0.2071 -0.5649
  112OSM   H14F11698   0.339   6.489   9.398  2.6850 -1.3696 -0.3913
  112OSM   H14G11699   0.199   6.397   9.487 -0.2824 -0.0683 -1.1796
  112OSM   C15F11700   0.245   6.329   9.293 -0.5944 -0.3558  0.0430
  112OSM   H15F11701   0.258   6.222   9.319  0.3454  0.4606  3.2963
  112OSM   H15G11702   0.320   6.341   9.212 -0.8875  0.9404 -0.0641
  112OSM   C16F11703   0.105   6.355   9.243 -0.1474  0.1069 -0.1574
  112OSM   H16F11704   0.095   6.463   9.219  1.4306  0.1185 -0.9495
  112OSM   H16G11705   0.039   6.325   9.327  0.5867 -2.1194 -0.3039
  112OSM   C17F11706   0.069   6.273   9.116  0.6180 -0.4807  0.1991
  112OSM   H17F11707   0.086   6.168   9.148  0.6559 -0.3254  0.6957
  112OSM   H17G11708   0.140   6.300   9.035 -0.5942  0.2577 -0.6485
  112OSM   C18F11709  -0.076   6.287   9.074 -0.6818 -0.1214  0.1007
  112OSM   H18F11710  -0.108   6.220   8.990 -0.9993  0.6625 -0.4130
  112OSM   H18G11711  -0.094   6.391   9.040  5.1601  0.5469 -2.0816
  112OSM   H18H11712  -0.139   6.245   9.155 -0.5149  0.8912  0.7680
  113OSM      N11713   2.768   3.818  10.856 -0.7665  0.1607  0.4861
  113OSM    C1511714   2.793   3.682  10.919  0.1579  0.4403 -0.3170
  113OSM   H15A11715   2.899   3.668  10.934 -0.0407 -1.9812 -0.7763
  113OSM   H15B11716   2.753   3.605  10.856  1.0546  0.4278 -0.8949
  113OSM   H15C11717   2.734   3.673  11.009 -1.1784 -0.9683 -1.2919
  113OSM    C1411718   2.809   3.923  10.955 -0.5068 -0.1855 -0.3387
  113OSM   H14A11719   2.916   3.934  10.965 -0.5605  0.8288 -0.7851
  113OSM   H14B11720   2.771   3.899  11.053  0.4283  0.6695  0.2571
  113OSM   H14C11721   2.769   4.019  10.925  0.4159  0.1256 -0.5977
  113OSM    C1311722   2.863   3.824  10.746 -0.1605 -0.4897  0.0999
  113OSM   H13A11723   2.838   3.770  10.656  1.2354 -0.4785 -0.3204
  113OSM   H13B11724   2.962   3.790  10.774 -0.8716 -1.7967  1.1393
  113OSM   H13C11725   2.881   3.928  10.725  3.1113 -1.0723 -0.5755
  113OSM    C1211726   2.628   3.826  10.805 -0.9088 -0.3522  0.4234
  113OSM   H12A11727   2.571   3.830  10.897  1.0405 -1.9985  1.8069
  113OSM   H12B11728   2.593   3.737  10.755 -2.0998 -0.4813  1.4222
  113OSM    C1111729   2.587   3.964  10.736 -0.2522 -0.2419  0.2065
  113OSM   H11A11730   2.508   3.939  10.663  0.0473  0.1648 -0.2644
  113OSM   H11B11731   2.676   3.990  10.675  0.2542 -1.2511  0.4804
  113OSM      P11732   2.400   4.035  10.898  0.0450 -0.1285  0.1336
  113OSM    O1311733   2.392   3.894  10.928 -0.2888 -0.0609  0.5877
  113OSM    O1411734   2.382   4.127  11.010  0.6605 -0.2702 -0.4576
  113OSM    O1111735   2.311   4.083  10.776  0.3317 -0.1565  0.2837
  113OSM    O1211736   2.548   4.052  10.839  0.3382 -0.6455 -0.8702
  113OSM    C1S11737   2.331   4.217  10.725  0.5160 -0.0766  0.6513
  113OSM    H1S11738   2.440   4.236  10.723  0.7394 -1.2464  0.6659
  113OSM    H1T11739   2.277   4.290  10.789 -2.7494 -1.7011 -0.0423
  113OSM     NF11740   2.324   4.352  10.515  0.0946  0.3097 -0.5000
  113OSM    HNF11741   2.264   4.432  10.511 -0.6093 -0.1752 -0.0623
  113OSM    C2S11742   2.279   4.231  10.583 -0.1550  0.0617  0.7919
  113OSM    H2S11743   2.310   4.144  10.520 -1.5028  0.7904 -0.9806
  113OSM    C3S11744   2.121   4.202  10.589  0.3694 -0.0515 -0.0500
  113OSM    H3S11745   2.065   4.276  10.650 -1.1397 -1.5238  0.4063
  113OSM     O311746   2.088   4.075  10.636 -0.0276 -0.3482  1.1415
  113OSM    HO311747   2.165   4.051  10.688  0.4101  0.9432  1.1096
  113OSM    C4S11748   2.081   4.217  10.448  0.5476 -0.3184  0.2535
  113OSM    H4S11749   2.104   4.123  10.395 -0.8143 -1.0095  0.8337
  113OSM    C5S11750   1.994   4.295  10.388 -0.7158 -0.3810 -0.1359
  113OSM    H5S11751   1.940   4.369  10.450 -0.8638 -0.7242  0.1498
  113OSM    C6S11752   1.952   4.297  10.239  0.1160 -0.4954 -0.2543
  113OSM    H6S11753   1.845   4.323  10.230  0.1164 -0.7944 -1.1558
  113OSM    H6T11754   1.961   4.205  10.177  0.1336  2.2138 -4.6379
  113OSM    C7S11755   2.043   4.391  10.151 -0.1519 -0.3895 -0.3933
  113OSM    H7S11756   2.147   4.353  10.158  0.3874  1.0194 -0.6074
  113OSM    H7T11757   2.050   4.492  10.197  0.9171  0.4188 -2.2349
  113OSM    C8S11758   1.993   4.425  10.014 -0.3569 -0.3336  0.2189
  113OSM    H8S11759   1.891   4.466  10.003  0.1089  0.4885 -1.4993
  113OSM    H8T11760   2.006   4.336   9.949 -0.2223 -1.5055  1.8157
  113OSM    C9S11761   2.086   4.530   9.949 -0.3089  0.1510  0.2437
  113OSM    H9S11762   2.192   4.504   9.967  0.4966  0.1436 -3.6662
  113OSM    H9T11763   2.067   4.633   9.986 -2.3398  0.2022 -0.7965
  113OSM   C10S11764   2.079   4.542   9.797 -0.2884  0.1715  0.2836
  113OSM   H10S11765   2.104   4.444   9.751  0.8528  0.3318  0.5324
  113OSM   H10T11766   2.151   4.617   9.759  0.7972 -1.0211 -0.1067
  113OSM   C11S11767   1.940   4.588   9.746  0.0562  0.1578 -0.9298
  113OSM   H11S11768   1.912   4.693   9.768 -0.7099  0.0215 -1.2123
  113OSM   H11T11769   1.859   4.526   9.789 -0.9182  1.4121 -0.8901
  113OSM   C12S11770   1.930   4.565   9.589 -0.3137 -0.4377  0.4485
  113OSM   H12S11771   1.824   4.578   9.559 -0.1190  0.5245  0.1243
  113OSM   H12T11772   1.956   4.460   9.565 -0.4317 -0.5096  0.6336
  113OSM   C13S11773   2.021   4.664   9.517 -0.5572  0.0788 -0.1784
  113OSM   H13S11774   2.126   4.643   9.546 -0.4788  0.4259 -0.2001
  113OSM   H13T11775   1.999   4.772   9.536  1.4625  0.4008  0.5411
  113OSM   C14S11776   1.999   4.651   9.367  0.3533  0.0675  0.1077
  113OSM   H14S11777   1.892   4.643   9.338 -0.4589 -0.4315  2.9987
  113OSM   H14T11778   2.046   4.553   9.344 -1.1665 -0.1096 -2.7869
  113OSM   C15S11779   2.062   4.752   9.267  0.3529  0.7471  0.1786
  113OSM   H15S11780   2.173   4.748   9.268  0.5420  3.6103 -1.0121
  113OSM   H15T11781   2.044   4.857   9.299  1.9032  1.1989 -0.3364
  113OSM   C16S11782   2.011   4.726   9.120 -0.0337 -0.3101 -0.5270
  113OSM   H16S11783   1.904   4.752   9.107 -0.3974 -0.5186  1.6760
  113OSM   H16T11784   2.028   4.619   9.095  1.0376  0.1459 -1.8915
  113OSM   C17S11785   2.091   4.803   9.016  0.1255  0.2453 -0.0793
  113OSM   H17S11786   2.199   4.777   9.025 -0.5491 -2.1201  2.2225
  113OSM   H17T11787   2.072   4.911   9.035 -2.6088  0.1264 -1.5842
  113OSM   C18S11788   2.055   4.773   8.873  0.3615  0.3952 -0.1140
  113OSM   H18S11789   1.944   4.772   8.869  0.3620  1.3165 -3.2747
  113OSM   H18T11790   2.105   4.686   8.826  0.6309  0.0819  0.7406
  113OSM   H18U11791   2.100   4.848   8.804  0.1351 -0.2356 -0.9699
  113OSM    C1F11792   2.444   4.371  10.477 -0.3403 -0.3631  0.0576
  113OSM     OF11793   2.527   4.282  10.490 -0.3511  0.8804 -0.0824
  113OSM    C2F11794   2.479   4.506  10.427 -0.2165  0.3024 -0.3173
  113OSM    H2F11795   2.514   4.557  10.519 -0.7624 -0.1836  0.1715
  113OSM    H2G11796   2.388   4.561  10.395 -1.3251 -0.0427  2.0064
  113OSM    C3F11797   2.574   4.510  10.308  0.4487  0.5297 -0.3205
  113OSM    H3F11798   2.656   4.445  10.343  0.6641  1.9739  2.1318
  113OSM    H3G11799   2.616   4.612  10.294  2.4625 -0.2670 -0.4022
  113OSM    C4F11800   2.516   4.466  10.168  0.0833 -0.1982  0.4704
  113OSM    H4F11801   2.419   4.517  10.149  1.3903  1.1688 -3.6451
  113OSM    H4G11802   2.493   4.358  10.171 -1.7986  0.1700  1.1069
  113OSM    C5F11803   2.604   4.500  10.049  0.2070  0.4624  0.0177
  113OSM    H5F11804   2.712   4.501  10.074  0.0320  2.8356  0.9880
  113OSM    H5G11805   2.596   4.608  10.026  0.1197  0.3691 -0.4053
  113OSM    C6F11806   2.571   4.431   9.917 -0.4209  0.7534  0.5355
  113OSM    H6F11807   2.463   4.410   9.906 -0.8619  3.0829 -0.1465
  113OSM    H6G11808   2.629   4.337   9.914 -1.3135  0.1173  2.1169
  113OSM    C7F11809   2.595   4.530   9.801 -0.2797 -0.5385  0.4594
  113OSM    H7F11810   2.703   4.555   9.811  0.0779 -0.9737 -1.8416
  113OSM    H7G11811   2.534   4.622   9.812  1.3451  0.8964 -1.6580
  113OSM    C8F11812   2.586   4.466   9.666  0.4047 -0.8521  0.3490
  113OSM    H8F11813   2.638   4.368   9.673  0.7476 -0.6720  0.3746
  113OSM    H8G11814   2.638   4.531   9.592  0.8360 -0.4650  0.9814
  113OSM    C9F11815   2.447   4.425   9.610  0.1352 -0.1676  0.1724
  113OSM    H9F11816   2.401   4.343   9.667  0.9905  0.7511  2.3261
  113OSM   C10F11817   2.375   4.485   9.514  0.0272 -0.1555  0.3656
  113OSM   H10F11818   2.275   4.447   9.489  0.1997 -0.8702  0.7225
  113OSM   C11F11819   2.396   4.607   9.429 -0.7368 -0.3227  0.0150
  113OSM   H11F11820   2.495   4.647   9.458 -1.1479 -1.3599  3.2601
  113OSM   H11G11821   2.317   4.685   9.422 -1.3726 -0.9813 -0.3129
  113OSM   C12F11822   2.405   4.565   9.285 -0.3992 -0.1831 -0.6088
  113OSM   H12F11823   2.308   4.555   9.231 -1.1128  1.8468  0.1746
  113OSM   H12G11824   2.465   4.472   9.283 -3.4568 -2.3385 -0.3900
  113OSM   C13F11825   2.479   4.674   9.208 -0.5535  0.8819  0.1671
  113OSM   H13F11826   2.552   4.723   9.275  0.1866  1.1206 -0.7951
  113OSM   H13G11827   2.407   4.753   9.175  0.0414  1.1553 -0.4961
  113OSM   C14F11828   2.556   4.617   9.093 -0.0923 -0.7078  0.1150
  113OSM   H14F11829   2.489   4.537   9.057 -0.1695  0.4029 -2.3877
  113OSM   H14G11830   2.651   4.568   9.124  1.0800  1.2966 -0.0742
  113OSM   C15F11831   2.587   4.725   8.993  0.1522  0.5401 -0.2170
  113OSM   H15F11832   2.521   4.814   8.999 -1.4253 -0.5157 -1.2028
  113OSM   H15G11833   2.559   4.671   8.900 -0.4389  1.1852 -0.4292
  113OSM   C16F11834   2.734   4.778   9.009  0.0401  0.3747 -0.0078
  113OSM   H16F11835   2.805   4.695   8.989 -0.6881 -0.5813  1.2509
  113OSM   H16G11836   2.739   4.823   9.110 -0.4756  1.1603 -0.3169
  113OSM   C17F11837   2.746   4.899   8.919  0.0724  0.3456  0.9524
  113OSM   H17F11838   2.660   4.968   8.911 -0.0889 -0.0132 -0.9850
  113OSM   H17G11839   2.750   4.853   8.818 -2.2063  0.3307  0.8195
  113OSM   C18F11840   2.862   4.986   8.957 -0.4207  0.3512  0.3530
  113OSM   H18F11841   2.959   4.939   8.929 -0.0782  0.4289  1.3831
  113OSM   H18G11842   2.878   5.008   9.064  0.4068 -0.8527  0.4961
  113OSM   H18H11843   2.874   5.080   8.899  1.8840  0.5284  1.0065
  114OSM      N11844   5.869   1.030  11.057  0.1561 -0.1266  0.6526
  114OSM    C1511845   5.973   0.975  10.957 -0.4386  0.8488 -0.3640
  114OSM   H15A11846   6.073   0.992  10.992 -1.0888  2.8304  0.6646
  114OSM   H15B11847   5.960   1.013  10.857  2.1001  0.8888 -0.7529
  114OSM   H15C11848   5.954   0.868  10.957 -1.2024  0.9642 -1.4741
  114OSM    C1411849   5.878   0.988  11.196 -0.3402 -0.1994 -0.1937
  114OSM   H14A11850   5.842   1.071  11.256  2.8824  1.1809  0.0369
  114OSM   H14B11851   5.983   0.977  11.217 -0.6689 -0.7597  1.2712
  114OSM   H14C11852   5.833   0.891  11.208 -3.1151  0.9294 -0.6632
  114OSM    C1311853   5.882   1.176  11.060  0.6183 -0.2721  0.1382
  114OSM   H13A11854   5.878   1.210  10.958 -0.8428  2.4802  1.0119
  114OSM   H13B11855   5.975   1.203  11.108  0.9130 -0.6691 -0.2044
  114OSM   H13C11856   5.800   1.205  11.123  0.5014 -0.1293 -0.0776
  114OSM    C1211857   5.733   0.994  10.998 -0.4027  0.6519  0.0317
  114OSM   H12A11858   5.744   0.892  10.963  0.3546  1.5358 -2.5557
  114OSM   H12B11859   5.724   1.047  10.904  0.0384 -1.9093 -1.5604
  114OSM    C1111860   5.607   1.014  11.084 -0.0076  0.1058 -0.3226
  114OSM   H11A11861   5.622   0.979  11.188 -0.1981 -1.0015 -0.6552
  114OSM   H11B11862   5.524   0.956  11.038 -0.7732  0.9066  0.0319
  114OSM      P11863   5.486   1.213  10.980 -0.1092 -0.4998 -0.2895
  114OSM    O1311864   5.346   1.169  10.993  0.3376 -0.3095  0.5380
  114OSM    O1411865   5.503   1.360  10.983 -0.0246 -0.1923  0.3971
  114OSM    O1111866   5.545   1.156  10.840 -0.2277  0.4321  0.4386
  114OSM    O1211867   5.564   1.149  11.094 -0.6275 -0.1138 -0.4716
  114OSM    C1S11868   5.454   1.081  10.754 -0.0141  0.0723 -0.7874
  114OSM    H1S11869   5.360   1.137  10.734  1.6082  2.7242 -1.4592
  114OSM    H1T11870   5.418   0.984  10.793 -1.5950  1.0217  0.2431
  114OSM     NF11871   5.415   0.975  10.536  0.0329 -0.3932  0.0923
  114OSM    HNF11872   5.427   0.876  10.542  0.0066 -0.3774  0.4077
  114OSM    C2S11873   5.510   1.052  10.614  0.1310  0.1043 -0.5289
  114OSM    H2S11874   5.516   1.153  10.568  0.1155  0.6100  0.5382
  114OSM    C3S11875   5.654   0.987  10.618 -0.2002  0.3182  0.3300
  114OSM    H3S11876   5.644   0.882  10.655 -0.2915  0.6253  1.2112
  114OSM     O311877   5.739   1.055  10.712 -0.3549 -0.5771 -0.3930
  114OSM    HO311878   5.681   1.117  10.755 -1.3009  0.0917 -2.4906
  114OSM    C4S11879   5.719   0.990  10.471 -0.2080 -0.6587 -0.3575
  114OSM    H4S11880   5.720   0.892  10.422  1.7832 -0.9554  0.2223
  114OSM    C5S11881   5.747   1.100  10.400 -0.2687 -0.2348 -0.6795
  114OSM    H5S11882   5.727   1.200  10.441  1.9142  0.7211 -1.7814
  114OSM    C6S11883   5.802   1.104  10.257  0.5297  0.3403 -0.4752
  114OSM    H6S11884   5.904   1.147  10.264  0.6646 -0.0551  0.0626
  114OSM    H6T11885   5.738   1.170  10.195 -1.0650 -1.7853 -1.1982
  114OSM    C7S11886   5.827   0.975  10.176 -0.4660 -0.5793 -0.1390
  114OSM    H7S11887   5.748   0.897  10.171  0.7795 -1.8513 -0.6612
  114OSM    H7T11888   5.917   0.925  10.216 -0.5750  0.3745  1.3745
  114OSM    C8S11889   5.853   1.015  10.027 -0.0859 -0.1633 -0.4436
  114OSM    H8S11890   5.948   1.073  10.027  0.1011 -0.1536  3.7292
  114OSM    H8T11891   5.764   1.078  10.007 -0.6991 -0.3128  1.5583
  114OSM    C9S11892   5.859   0.899   9.937 -0.1353  0.6815 -0.6322
  114OSM    H9S11893   5.772   0.830   9.934  0.0340  0.3362  1.2159
  114OSM    H9T11894   5.949   0.833   9.946  0.6157  1.6660 -0.7824
  114OSM   C10S11895   5.860   0.952   9.794  0.0308  0.2396 -0.4279
  114OSM   H10S11896   5.963   0.980   9.762  0.1225  0.5383  0.1261
  114OSM   H10T11897   5.794   1.041   9.784  0.1297  0.1685 -2.0645
  114OSM   C11S11898   5.819   0.842   9.698  0.4333 -0.4656 -0.9008
  114OSM   H11S11899   5.719   0.814   9.737  1.9570 -0.1972  3.9100
  114OSM   H11T11900   5.884   0.754   9.720 -1.5204 -1.8276 -0.3299
  114OSM   C12S11901   5.825   0.872   9.553 -0.0614 -0.4885  0.9592
  114OSM   H12S11902   5.920   0.920   9.521 -0.0102 -1.9154 -1.3126
  114OSM   H12T11903   5.748   0.950   9.537 -2.1738 -2.6038  0.2390
  114OSM   C13S11904   5.791   0.752   9.461  0.0862  0.0062  0.2415
  114OSM   H13S11905   5.742   0.787   9.368  3.7109  0.3635 -1.7157
  114OSM   H13T11906   5.719   0.695   9.523 -0.2168 -0.6877 -0.7138
  114OSM   C14S11907   5.905   0.654   9.418 -0.9038  0.0764  0.4514
  114OSM   H14S11908   5.971   0.627   9.503 -0.8080 -0.0422  0.3402
  114OSM   H14T11909   5.969   0.717   9.353  2.0881 -1.6163  1.5843
  114OSM   C15S11910   5.848   0.518   9.360 -0.5933 -0.1293 -0.8539
  114OSM   H15S11911   5.751   0.540   9.311 -0.0484  1.0660 -1.4578
  114OSM   H15T11912   5.833   0.466   9.457 -0.1132  2.2499  0.5812
  114OSM   C16S11913   5.933   0.429   9.268  0.4983  1.0276  0.2229
  114OSM   H16S11914   5.930   0.474   9.167 -1.5529 -1.5208 -0.9547
  114OSM   H16T11915   5.902   0.323   9.264 -1.0962  1.5143 -1.2876
  114OSM   C17S11916   6.075   0.421   9.309 -0.0790  0.1953  0.3491
  114OSM   H17S11917   6.087   0.371   9.407  3.1759  1.3668  0.6758
  114OSM   H17T11918   6.108   0.527   9.317 -0.0532  0.1682  0.5917
  114OSM   C18S11919   6.159   0.342   9.208 -0.2535  0.5299  0.1362
  114OSM   H18S11920   6.268   0.363   9.217  0.5190 -2.4786 -0.8806
  114OSM   H18T11921   6.126   0.376   9.108 -2.2947 -3.9941 -1.0136
  114OSM   H18U11922   6.156   0.231   9.219  2.7824  0.3783  0.1786
  114OSM    C1F11923   5.295   1.010  10.484 -0.6214 -1.0234 -0.1022
  114OSM     OF11924   5.267   1.132  10.506  0.5228  0.2158  0.0778
  114OSM    C2F11925   5.213   0.911  10.412 -0.4450  0.6100  0.2612
  114OSM    H2F11926   5.153   0.863  10.493 -0.6563  2.0236  0.9729
  114OSM    H2G11927   5.281   0.832  10.373 -2.3288 -0.9454 -0.0629
  114OSM    C3F11928   5.138   0.983  10.292 -0.6718 -0.1543 -0.3490
  114OSM    H3F11929   5.208   0.979  10.206 -0.6523  1.3317 -0.4322
  114OSM    H3G11930   5.102   1.087  10.306 -3.4552 -1.3463  2.4637
  114OSM    C4F11931   5.008   0.905  10.245  0.0949  0.3851  0.3522
  114OSM    H4F11932   4.931   0.903  10.325 -0.1841  0.5477  0.0936
  114OSM    H4G11933   5.042   0.804  10.217  0.6110  0.5258  0.4715
  114OSM    C5F11934   4.956   0.972  10.115 -0.2263 -0.0053  0.1908
  114OSM    H5F11935   5.039   0.982  10.041  0.7060 -0.7753  1.1006
  114OSM    H5G11936   4.934   1.075  10.149  1.0944  0.2082  0.4445
  114OSM    C6F11937   4.839   0.906  10.036 -0.1676  1.2903 -0.0298
  114OSM    H6F11938   4.764   0.885  10.115  0.7375 -0.2721  0.4546
  114OSM    H6G11939   4.867   0.802  10.009 -2.7291  0.5876 -0.2559
  114OSM    C7F11940   4.797   0.979   9.913 -1.6334 -0.2087 -0.6983
  114OSM    H7F11941   4.886   0.995   9.849  0.1674 -0.6739  1.5592
  114OSM    H7G11942   4.775   1.085   9.937  3.1238  0.5793  1.2338
  114OSM    C8F11943   4.674   0.912   9.843 -0.2897  0.0646 -0.3519
  114OSM    H8F11944   4.628   0.982   9.771 -0.7698  0.1585  0.0398
  114OSM    H8G11945   4.600   0.898   9.925  0.6954  0.7008  0.6978
  114OSM    C9F11946   4.703   0.781   9.778 -0.0572 -0.6484  0.1137
  114OSM    H9F11947   4.798   0.738   9.813 -0.7027 -1.4545  0.9216
  114OSM   C10F11948   4.626   0.719   9.683 -0.2918  0.3939  0.0869
  114OSM   H10F11949   4.672   0.636   9.627  0.2964 -1.1914  2.7172
  114OSM   C11F11950   4.501   0.771   9.623 -0.5280  0.7674 -0.6396
  114OSM   H11F11951   4.457   0.840   9.698 -1.2293 -1.3897  1.0290
  114OSM   H11G11952   4.439   0.679   9.617  0.6340 -0.3319  2.3959
  114OSM   C12F11953   4.523   0.861   9.492 -0.4979  0.7033 -0.1489
  114OSM   H12F11954   4.595   0.942   9.517  0.6184 -0.4266  0.4173
  114OSM   H12G11955   4.423   0.904   9.467 -1.3855 -1.1296  0.0608
  114OSM   C13F11956   4.567   0.775   9.374 -0.7278  0.7394  0.1434
  114OSM   H13F11957   4.484   0.704   9.353 -0.1644  0.4024 -1.0279
  114OSM   H13G11958   4.660   0.721   9.399 -0.1457  1.4660 -0.3947
  114OSM   C14F11959   4.585   0.854   9.240  0.7046  0.8371 -0.1433
  114OSM   H14F11960   4.687   0.898   9.240  1.6648 -1.2875 -0.8164
  114OSM   H14G11961   4.517   0.942   9.239 -1.6945 -0.7790  2.7978
  114OSM   C15F11962   4.558   0.770   9.116  0.1015 -0.2847 -0.0237
  114OSM   H15F11963   4.455   0.729   9.119  0.0915 -0.2128  1.2831
  114OSM   H15G11964   4.632   0.688   9.123 -0.0978 -0.3658  1.3563
  114OSM   C16F11965   4.569   0.852   8.990  0.3709 -0.3043 -0.3470
  114OSM   H16F11966   4.501   0.939   8.992  3.1832  2.2309 -2.8533
  114OSM   H16G11967   4.538   0.785   8.907 -3.4853  1.3169 -0.4354
  114OSM   C17F11968   4.712   0.915   8.970 -0.4988 -0.0220 -0.0058
  114OSM   H17F11969   4.790   0.836   8.969 -0.9835 -0.5681  1.8201
  114OSM   H17G11970   4.734   0.972   9.063 -0.5957 -1.4991  0.9505
  114OSM   C18F11971   4.706   1.007   8.845  0.2408 -0.2839  0.1566
  114OSM   H18F11972   4.792   1.077   8.835 -0.3948  0.6549  0.9760
  114OSM   H18G11973   4.618   1.073   8.835  0.3429  0.2769  2.3820
  114OSM   H18H11974   4.712   0.949   8.750 -1.1396 -0.1654 -0.0248
  115OSM      N11975   1.407   4.888  11.262 -0.6389  0.4269  0.1104
  115OSM    C1511976   1.553   4.846  11.285  0.2921 -0.5160  0.0278
  115OSM   H15A11977   1.557   4.792  11.379  0.5096 -0.6257 -0.0457
  115OSM   H15B11978   1.613   4.936  11.289  2.6266 -2.0029  0.6602
  115OSM   H15C11979   1.589   4.781  11.207 -2.0137  1.3730 -2.8402
  115OSM    C1411980   1.316   4.775  11.258  0.0723 -0.0309  0.3884
  115OSM   H14A11981   1.324   4.709  11.344  1.8159  0.8774  0.9689
  115OSM   H14B11982   1.340   4.710  11.175  1.7613  1.8895 -0.7156
  115OSM   H14C11983   1.212   4.801  11.246 -0.2296 -0.9314  0.9414
  115OSM    C1311984   1.359   4.971  11.372 -0.7722  0.1927 -0.2180
  115OSM   H13A11985   1.403   5.070  11.370  2.0258 -0.9957 -1.9125
  115OSM   H13B11986   1.401   4.926  11.461 -0.9987 -1.9195 -1.1264
  115OSM   H13C11987   1.252   4.979  11.386 -0.5646  3.0798  0.3444
  115OSM    C1211988   1.401   4.968  11.130 -0.6846  0.2496  0.2252
  115OSM   H12A11989   1.489   5.031  11.126  0.8479 -1.7584 -0.0231
  115OSM   H12B11990   1.312   5.026  11.119 -1.0910 -0.5868 -1.1103
  115OSM    C1111991   1.392   4.877  10.999  0.3664 -0.1560 -0.4611
  115OSM   H11A11992   1.386   4.947  10.913  1.0709  2.1869  1.2852
  115OSM   H11B11993   1.300   4.816  11.006  0.8904 -1.1647 -1.8925
  115OSM      P11994   1.528   4.674  10.891  0.1096  0.7513 -0.0162
  115OSM    O1311995   1.666   4.634  10.867  0.0793 -0.4208  0.0440
  115OSM    O1411996   1.443   4.572  10.943  0.5630  0.0573  0.3539
  115OSM    O1111997   1.467   4.729  10.754  0.6133  0.3888 -0.2368
  115OSM    O1211998   1.512   4.802  10.978  0.1073 -0.2788 -0.6316
  115OSM    C1S11999   1.540   4.815  10.666  0.0798 -0.1811 -0.2689
  115OSM    H1S12000   1.623   4.753  10.625 -0.4769 -0.2225 -1.3525
  115OSM    H1T12001   1.579   4.899  10.728 -3.7226  0.8481  0.9917
  115OSM     NF12002   1.527   4.944  10.449  0.9198  0.1294 -0.2654
  115OSM    HNF12003   1.500   5.039  10.432  2.0808  0.9779  2.2476
  115OSM    C2S12004   1.448   4.869  10.546  0.6566 -0.0569 -0.8737
  115OSM    H2S12005   1.407   4.782  10.490  0.0340  0.5081 -1.3154
  115OSM    C3S12006   1.321   4.943  10.594  0.2164 -0.3857 -0.3288
  115OSM    H3S12007   1.355   5.032  10.652 -1.0675 -0.3526  0.4013
  115OSM     O312008   1.236   4.869  10.686  0.1980 -0.0877  0.8406
  115OSM    HO312009   1.294   4.796  10.707 -0.1842 -0.2751  1.2374
  115OSM    C4S12010   1.248   4.987  10.476  0.1247  0.2891  0.0103
  115OSM    H4S12011   1.254   5.097  10.470  2.9213  0.3729  2.2898
  115OSM    C5S12012   1.182   4.910  10.381  0.3941  0.2040 -0.4247
  115OSM    H5S12013   1.175   4.804  10.411 -2.3433  0.8846  1.7475
  115OSM    C6S12014   1.111   4.964  10.257 -0.1031 -0.4719 -0.3729
  115OSM    H6S12015   1.001   4.948  10.256 -0.1790 -0.2981 -3.3710
  115OSM    H6T12016   1.146   4.912  10.166  1.9746  0.6710 -0.2872
  115OSM    C7S12017   1.132   5.115  10.223 -0.2283  1.1292 -1.0976
  115OSM    H7S12018   1.241   5.134  10.219  0.6895 -2.2161  2.1154
  115OSM    H7T12019   1.095   5.178  10.307 -0.2851  0.8111 -0.8810
  115OSM    C8S12020   1.052   5.155  10.100  0.3872  0.3448  0.0687
  115OSM    H8S12021   1.052   5.266  10.099 -1.5833  0.4082  1.3142
  115OSM    H8T12022   0.945   5.128  10.119 -0.4880  0.3899 -3.7605
  115OSM    C9S12023   1.094   5.094   9.966 -0.1218  0.0263 -0.5609
  115OSM    H9S12024   1.071   4.987   9.982 -1.9353  0.6972  1.9436
  115OSM    H9T12025   1.204   5.109   9.959 -0.1658 -0.0789 -1.6355
  115OSM   C10S12026   1.014   5.123   9.842 -0.2529  0.1590 -0.4096
  115OSM   H10S12027   1.043   5.225   9.807 -1.4170  0.7713  0.3094
  115OSM   H10T12028   0.905   5.138   9.861 -0.7444 -0.8104 -2.2792
  115OSM   C11S12029   1.057   5.024   9.731  0.7682  0.6897  0.4482
  115OSM   H11S12030   1.017   4.924   9.753  3.0494 -0.3647  0.1465
  115OSM   H11T12031   1.168   5.022   9.744  0.7600 -1.3886  0.4686
  115OSM   C12S12032   1.023   5.068   9.582  0.2261  0.4197 -0.1926
  115OSM   H12S12033   1.070   5.160   9.541  0.3350  1.0001  1.1748
  115OSM   H12T12034   0.915   5.093   9.585  0.2138  0.3371  0.1018
  115OSM   C13S12035   1.042   4.961   9.467 -0.8934 -0.5985  0.1338
  115OSM   H13S12036   1.032   4.863   9.518  0.1526  0.7046  3.0806
  115OSM   H13T12037   1.148   4.965   9.432 -2.2162  0.5708 -4.4231
  115OSM   C14S12038   0.957   4.990   9.342 -0.6078  0.1845  0.1499
  115OSM   H14S12039   0.957   5.101   9.337  0.2019  0.3900  2.9489
  115OSM   H14T12040   0.855   4.949   9.358  0.1605 -1.2925  1.6271
  115OSM   C15S12041   1.017   4.943   9.209 -0.5415 -0.5417  0.2387
  115OSM   H15S12042   1.077   4.851   9.228  0.5220 -0.6842 -3.1818
  115OSM   H15T12043   1.090   5.019   9.174  0.7885 -1.9156 -0.0890
  115OSM   C16S12044   0.932   4.913   9.091 -0.0449  0.0138 -0.9860
  115OSM   H16S12045   0.857   4.995   9.080  0.4870  0.6370 -0.1420
  115OSM   H16T12046   0.877   4.821   9.122  0.8954 -0.1985  0.1252
  115OSM   C17S12047   0.999   4.874   8.962  0.1554 -0.1914 -0.1261
  115OSM   H17S12048   1.065   4.785   8.972 -0.5315 -0.6257  0.6770
  115OSM   H17T12049   1.060   4.954   8.916 -0.0419 -1.2760 -2.4051
  115OSM   C18S12050   0.895   4.837   8.853 -0.3361 -0.0081 -0.3246
  115OSM   H18S12051   0.832   4.922   8.819 -2.5337 -1.4580 -0.1138
  115OSM   H18T12052   0.818   4.763   8.885 -0.8778 -0.2038 -2.0023
  115OSM   H18U12053   0.958   4.803   8.769 -1.9417 -0.4399 -1.4061
  115OSM    C1F12054   1.625   4.896  10.375 -0.0045 -0.1634 -0.1398
  115OSM     OF12055   1.662   4.785  10.387  0.4137  0.1494  0.1518
  115OSM    C2F12056   1.687   4.981  10.274 -0.4672  1.0441  0.3847
  115OSM    H2F12057   1.707   5.079  10.323 -1.3715  0.9486  0.9689
  115OSM    H2G12058   1.615   5.007  10.193 -1.1104  0.7109  0.8385
  115OSM    C3F12059   1.809   4.925  10.207  0.1391  0.5979  0.3456
  115OSM    H3F12060   1.800   4.815  10.197 -4.6460  0.6762  1.4637
  115OSM    H3G12061   1.900   4.953  10.265  0.1678 -0.9534  1.0924
  115OSM    C4F12062   1.833   4.974  10.067 -0.4047  0.3621  0.3456
  115OSM    H4F12063   1.872   5.078  10.074  0.7683 -0.0263 -0.1960
  115OSM    H4G12064   1.744   4.972  10.000 -1.3393  1.3668  1.5104
  115OSM    C5F12065   1.942   4.891   9.992  0.0185  0.5450 -0.4893
  115OSM    H5F12066   1.896   4.799   9.952  0.4344 -0.4959  1.3593
  115OSM    H5G12067   2.019   4.853  10.062 -0.5595 -4.0121 -2.0343
  115OSM    C6F12068   1.997   4.961   9.862 -0.3693  0.1448 -0.1896
  115OSM    H6F12069   2.008   5.070   9.879 -3.0401  0.4093  0.3958
  115OSM    H6G12070   1.927   4.943   9.777  2.1627 -1.5611 -2.0554
  115OSM    C7F12071   2.138   4.899   9.824  0.7585  0.1231 -1.4479
  115OSM    H7F12072   2.108   4.832   9.740 -1.3430 -0.2813 -0.4499
  115OSM    H7G12073   2.182   4.838   9.906  1.1828  3.8640  1.3459
  115OSM    C8F12074   2.226   5.005   9.767  0.0688  0.8913 -0.7968
  115OSM    H8F12075   2.248   5.073   9.851 -0.3718 -0.9727  0.9018
  115OSM    H8G12076   2.171   5.073   9.698 -1.8007  1.3141  1.0283
  115OSM    C9F12077   2.357   4.935   9.722  0.0574  0.1248 -0.2363
  115OSM    H9F12078   2.398   4.868   9.799 -1.8786 -0.6664  0.1539
  115OSM   C10F12079   2.426   4.964   9.612 -0.1938  0.1767 -0.1957
  115OSM   H10F12080   2.532   4.934   9.602  0.3248  1.5783  0.7703
  115OSM   C11F12081   2.392   5.068   9.511  0.1587 -0.1617  0.2364
  115OSM   H11F12082   2.457   5.156   9.528 -0.0408 -0.2399  1.5646
  115OSM   H11G12083   2.290   5.110   9.529 -0.6009 -2.3098  1.3250
  115OSM   C12F12084   2.391   4.996   9.373  0.7920 -0.1936  0.1054
  115OSM   H12F12085   2.304   4.926   9.377 -0.3962  1.2618  0.6488
  115OSM   H12G12086   2.481   4.953   9.324  0.5710 -1.9913  1.1761
  115OSM   C13F12087   2.350   5.100   9.265  0.5226  0.3356 -0.7017
  115OSM   H13F12088   2.423   5.183   9.278  0.2838  0.7059 -1.6725
  115OSM   H13G12089   2.248   5.142   9.277  1.4138  2.1099  1.2670
  115OSM   C14F12090   2.354   5.036   9.124  0.2303 -0.8452  0.5511
  115OSM   H14F12091   2.292   4.944   9.127  0.1712 -0.7978  0.7286
  115OSM   H14G12092   2.459   5.007   9.102  0.4249 -0.0062  0.3367
  115OSM   C15F12093   2.296   5.137   9.020 -0.4100  0.0127 -0.1146
  115OSM   H15F12094   2.347   5.236   9.032 -1.4295  0.5604 -0.2063
  115OSM   H15G12095   2.186   5.147   9.033 -0.3840 -0.8009  0.7981
  115OSM   C16F12096   2.339   5.079   8.885  0.3908 -0.0092 -0.2022
  115OSM   H16F12097   2.319   4.969   8.883 -2.0408  0.3680 -0.2081
  115OSM   H16G12098   2.447   5.094   8.864  0.4823 -1.2536 -0.6969
  115OSM   C17F12099   2.263   5.143   8.760  0.5287  1.0429  0.4172
  115OSM   H17F12100   2.170   5.084   8.742  2.6912 -2.4074 -0.4238
  115OSM   H17G12101   2.335   5.113   8.681  1.9127 -0.2854  2.0840
  115OSM   C18F12102   2.239   5.293   8.758  0.6266 -0.2659  0.4428
  115OSM   H18F12103   2.162   5.327   8.830  1.7795  1.6719  0.8455
  115OSM   H18G12104   2.209   5.322   8.655  0.5826 -0.6571  0.3430
  115OSM   H18H12105   2.332   5.347   8.785  0.2878 -0.2593  1.6415
  116OSM      N12106   3.843   3.032  11.274  0.4525  0.1235 -0.1124
  116OSM    C1512107   3.987   3.053  11.303  0.3688  0.0743 -0.1717
  116OSM   H15A12108   4.036   3.057  11.206  2.1331  0.0727  0.6885
  116OSM   H15B12109   4.031   2.966  11.349 -2.6848 -0.1435  2.7044
  116OSM   H15C12110   4.003   3.138  11.368  0.0441 -0.8627  1.1718
  116OSM    C1412111   3.777   2.954  11.382 -0.3969  0.1858  0.8079
  116OSM   H14A12112   3.669   2.957  11.370 -0.2208 -0.9519 -1.7620
  116OSM   H14B12113   3.794   3.002  11.477  1.8088  0.9738  0.0659
  116OSM   H14C12114   3.821   2.857  11.400  0.7132  0.5042 -0.0826
  116OSM    C1312115   3.772   3.168  11.271 -0.2937  0.3974 -0.3399
  116OSM   H13A12116   3.679   3.144  11.222 -0.4375  2.8188 -1.3875
  116OSM   H13B12117   3.816   3.244  11.208  0.7344  0.9011  0.9219
  116OSM   H13C12118   3.767   3.217  11.367  2.2812  0.7208 -0.2947
  116OSM    C1212119   3.812   2.961  11.136  0.2132  0.1121 -0.3809
  116OSM   H12A12120   3.705   2.955  11.120  0.3019 -2.0359 -0.4794
  116OSM   H12B12121   3.836   2.856  11.145 -0.7677 -0.1115 -0.3165
  116OSM    C1112122   3.883   3.019  11.013 -0.0658 -0.2158 -0.9183
  116OSM   H11A12123   3.880   3.130  11.010 -0.2721 -0.2108 -0.6150
  116OSM   H11B12124   3.829   2.971  10.929 -0.0796 -2.6643  0.4089
  116OSM      P12125   4.079   2.833  10.995  0.1338  0.4537  0.0807
  116OSM    O1312126   4.204   2.819  11.069  0.5685 -0.5393  0.3097
  116OSM    O1412127   3.982   2.730  11.021  0.2254  0.7134 -0.5030
  116OSM    O1112128   4.098   2.834  10.832 -0.2578  0.2708 -0.2475
  116OSM    O1212129   4.017   2.974  11.021 -0.2808  0.0324 -0.0395
  116OSM    C1S12130   4.151   2.945  10.762  0.3109  0.0445 -0.8760
  116OSM    H1S12131   4.258   2.921  10.744  0.6796  2.2066 -1.7773
  116OSM    H1T12132   4.139   3.038  10.821 -0.4618 -1.0527  0.7798
  116OSM     NF12133   4.167   3.045  10.523  0.2615 -0.3635 -0.5912
  116OSM    HNF12134   4.133   3.137  10.506  3.1226  1.4065  2.1226
  116OSM    C2S12135   4.092   2.957  10.615 -0.1163  0.6278  0.2822
  116OSM    H2S12136   4.095   2.851  10.582  1.6539  0.4190  0.9928
  116OSM    C3S12137   3.943   3.000  10.627  0.4751  0.1240 -0.1639
  116OSM    H3S12138   3.934   3.104  10.667  0.6411  0.2155 -0.3603
  116OSM     O312139   3.862   2.895  10.684 -0.0715 -0.2322  0.1646
  116OSM    HO312140   3.917   2.841  10.741  1.0986  2.2690  1.5805
  116OSM    C4S12141   3.893   3.025  10.486  0.1228 -0.3847 -0.0911
  116OSM    H4S12142   3.871   2.942  10.417  0.8840  0.4939 -1.4293
  116OSM    C5S12143   3.854   3.150  10.436  0.9964 -0.3628 -0.7043
  116OSM    H5S12144   3.854   3.242  10.495 -1.7051 -0.4303 -0.4738
  116OSM    C6S12145   3.806   3.170  10.292 -0.5588 -0.3525  0.2081
  116OSM    H6S12146   3.872   3.245  10.244  1.2668 -1.3159  1.0952
  116OSM    H6T12147   3.700   3.203  10.295 -0.1077  1.2954 -0.8629
  116OSM    C7S12148   3.821   3.049  10.201  0.5306 -0.0628 -0.1836
  116OSM    H7S12149   3.771   2.963  10.250  0.8426 -1.6609 -2.4542
  116OSM    H7T12150   3.927   3.019  10.190  1.2667  2.0115  0.8543
  116OSM    C8S12151   3.764   3.071  10.054 -0.7743 -0.5691 -0.1078
  116OSM    H8S12152   3.821   3.155  10.008 -0.7052 -0.8032 -0.4522
  116OSM    H8T12153   3.657   3.101  10.057 -0.4002  0.9560 -0.8131
  116OSM    C9S12154   3.787   2.950   9.964 -0.5537 -0.0869  0.2811
  116OSM    H9S12155   3.686   2.909   9.944 -0.6841  0.9842 -1.4450
  116OSM    H9T12156   3.856   2.878  10.014  1.1301  1.8510  0.8803
  116OSM   C10S12157   3.856   2.981   9.828  0.0278 -0.6663  0.4424
  116OSM   H10S12158   3.842   2.883   9.777  0.8632 -2.2548  3.0434
  116OSM   H10T12159   3.963   3.009   9.841  0.0282  0.5252 -1.7320
  116OSM   C11S12160   3.765   3.072   9.743 -0.9687  0.0415  0.1485
  116OSM   H11S12161   3.779   3.176   9.779  0.2560 -0.7345  2.0835
  116OSM   H11T12162   3.662   3.035   9.763 -0.8197 -0.5588 -0.1816
  116OSM   C12S12163   3.788   3.065   9.593 -0.4084  0.1331  0.8200
  116OSM   H12S12164   3.891   3.106   9.582 -0.5738  0.4520  0.4185
  116OSM   H12T12165   3.711   3.127   9.544 -0.0732 -1.0750 -1.3883
  116OSM   C13S12166   3.780   2.921   9.533 -0.6657  1.0046  0.6248
  116OSM   H13S12167   3.686   2.887   9.581 -0.6191  0.3836  0.2836
  116OSM   H13T12168   3.856   2.850   9.571  0.3443  1.2634 -0.8309
  116OSM   C14S12169   3.778   2.900   9.383  0.4865 -0.1798  0.7329
  116OSM   H14S12170   3.809   2.795   9.363  2.0400  0.7462 -2.2734
  116OSM   H14T12171   3.848   2.971   9.334 -0.2640 -0.6187 -1.0418
  116OSM   C15S12172   3.640   2.919   9.324  0.1265  0.5719 -0.4692
  116OSM   H15S12173   3.597   3.017   9.354  0.0047 -0.0525  1.5389
  116OSM   H15T12174   3.573   2.843   9.368 -1.0359  1.7913 -0.0737
  116OSM   C16S12175   3.634   2.909   9.170 -0.4245 -0.0778  0.4192
  116OSM   H16S12176   3.712   2.979   9.131  1.5107 -0.6395  2.9792
  116OSM   H16T12177   3.536   2.948   9.136  0.5777  1.7425 -0.5793
  116OSM   C17S12178   3.661   2.768   9.107 -0.3895  0.0014 -0.9072
  116OSM   H17S12179   3.575   2.711   9.147  0.3629 -0.5588 -0.0325
  116OSM   H17T12180   3.754   2.720   9.145 -1.4823  0.6127  2.9502
  116OSM   C18S12181   3.658   2.773   8.950  0.1479  0.5747  0.2990
  116OSM   H18S12182   3.553   2.794   8.923  0.0025  1.8418  1.7188
  116OSM   H18T12183   3.705   2.680   8.909 -0.5673  0.5276 -0.4227
  116OSM   H18U12184   3.721   2.859   8.919 -0.7723  1.5902  1.1942
  116OSM    C1F12185   4.293   3.023  10.502  0.2544  0.0405 -0.2564
  116OSM     OF12186   4.352   2.917  10.527  0.0660  0.3633 -0.1959
  116OSM    C2F12187   4.373   3.125  10.426  0.3064 -0.2425  0.1915
  116OSM    H2F12188   4.378   3.230  10.462  1.2333 -0.3228  0.3166
  116OSM    H2G12189   4.322   3.117  10.327  0.9246 -2.2637 -0.0157
  116OSM    C3F12190   4.516   3.082  10.409  0.2293 -0.0847 -0.2922
  116OSM    H3F12191   4.535   2.978  10.374 -1.2582 -0.8894  1.1192
  116OSM    H3G12192   4.580   3.100  10.498 -0.9762  2.6535  0.1262
  116OSM    C4F12193   4.580   3.163  10.304 -0.2561  0.3160  0.1845
  116OSM    H4F12194   4.688   3.164  10.330 -0.6525 -0.0875  1.9546
  116OSM    H4G12195   4.545   3.269  10.302  0.6942  0.6374 -0.0131
  116OSM    C5F12196   4.578   3.103  10.155  0.6497 -0.4147  0.6614
  116OSM    H5F12197   4.473   3.099  10.120  1.0272 -0.1245 -0.5238
  116OSM    H5G12198   4.626   3.003  10.162  0.4122 -0.7105 -1.3621
  116OSM    C6F12199   4.642   3.192  10.049 -0.0783  0.2820 -0.1036
  116OSM    H6F12200   4.739   3.212  10.098 -1.5618  1.1995  2.7153
  116OSM    H6G12201   4.579   3.283  10.047 -1.7912 -0.8514 -1.0475
  116OSM    C7F12202   4.644   3.131   9.909 -0.8907 -0.6598 -0.4346
  116OSM    H7F12203   4.539   3.121   9.873 -0.8383  0.6497 -0.9850
  116OSM    H7G12204   4.685   3.028   9.920  0.2646 -0.2214 -0.5458
  116OSM    C8F12205   4.725   3.222   9.812 -0.1225 -0.1723  0.4832
  116OSM    H8F12206   4.764   3.150   9.737  1.9687  0.0341  1.3126
  116OSM    H8G12207   4.814   3.266   9.863 -0.7982  0.5466  1.0766
  116OSM    C9F12208   4.651   3.340   9.748  0.8141  0.2585 -0.4215
  116OSM    H9F12209   4.624   3.416   9.823  0.5750 -0.9326  0.7382
  116OSM   C10F12210   4.610   3.353   9.619 -0.9077 -0.4363 -1.0851
  116OSM   H10F12211   4.567   3.452   9.595  0.4133  0.9127  1.5756
  116OSM   C11F12212   4.622   3.250   9.512  0.4155 -0.8262  0.0687
  116OSM   H11F12213   4.552   3.168   9.540 -0.3873 -1.1728 -2.6710
  116OSM   H11G12214   4.725   3.208   9.513  0.5238 -0.7281 -2.1137
  116OSM   C12F12215   4.588   3.303   9.370  0.0614  0.7175 -0.2928
  116OSM   H12F12216   4.489   3.348   9.394  0.4993  0.0441  3.2218
  116OSM   H12G12217   4.575   3.214   9.305  0.6763  0.3390  0.0959
  116OSM   C13F12218   4.670   3.409   9.305  0.1164 -0.6984 -0.1625
  116OSM   H13F12219   4.774   3.370   9.293 -0.3524 -1.8455 -0.6940
  116OSM   H13G12220   4.665   3.497   9.372 -1.3689 -1.1021  0.2804
  116OSM   C14F12221   4.620   3.460   9.171 -0.4425 -0.2173  0.4316
  116OSM   H14F12222   4.680   3.549   9.140 -0.4364 -1.2503 -2.8740
  116OSM   H14G12223   4.516   3.496   9.186 -0.1842  0.1596  1.4209
  116OSM   C15F12224   4.606   3.358   9.055 -0.0629  0.0598  0.3968
  116OSM   H15F12225   4.547   3.264   9.059 -1.3449  0.8359  0.6132
  116OSM   H15G12226   4.711   3.339   9.025 -0.7556 -1.6253 -1.1849
  116OSM   C16F12227   4.559   3.430   8.930 -0.1501  0.2669  0.6126
  116OSM   H16F12228   4.571   3.540   8.939 -2.0329  0.3893  1.9609
  116OSM   H16G12229   4.451   3.412   8.913  0.0844 -0.7087  0.0665
  116OSM   C17F12230   4.628   3.360   8.812  0.1953  0.8433  1.3437
  116OSM   H17F12231   4.601   3.253   8.827  2.3489 -0.3751 -2.1185
  116OSM   H17G12232   4.739   3.363   8.811  0.3924  1.5121 -4.0627
  116OSM   C18F12233   4.584   3.419   8.679  0.3157 -0.2657  0.2532
  116OSM   H18F12234   4.614   3.524   8.659 -0.2869  0.0626  1.0337
  116OSM   H18G12235   4.476   3.416   8.656  0.6343  0.2923 -1.5559
  116OSM   H18H12236   4.629   3.350   8.604  1.0249 -0.5484  0.9247
  117OSM      N12237   1.387   3.536  10.795 -0.4314  0.6057  0.6499
  117OSM    C1512238   1.329   3.410  10.852 -1.0106  0.4976 -0.2712
  117OSM   H15A12239   1.331   3.330  10.779  0.3481  0.3794 -0.1144
  117OSM   H15B12240   1.224   3.407  10.880 -1.9482  1.2975 -3.3042
  117OSM   H15C12241   1.378   3.373  10.940 -2.4619 -2.9942 -0.7563
  117OSM    C1412242   1.358   3.642  10.898  0.3486 -0.2615 -0.0975
  117OSM   H14A12243   1.402   3.606  10.990 -1.2954 -1.8190  0.1323
  117OSM   H14B12244   1.251   3.649  10.914  0.1220 -0.5274 -1.3201
  117OSM   H14C12245   1.406   3.733  10.866  0.1785 -0.7792 -2.0127
  117OSM    C1312246   1.533   3.515  10.787 -0.4689  0.1782  0.4893
  117OSM   H13A12247   1.578   3.598  10.735 -1.6351  1.3053  1.2247
  117OSM   H13B12248   1.557   3.422  10.737  0.1831  0.1794  0.7905
  117OSM   H13C12249   1.577   3.504  10.885  0.1601 -2.7748 -0.0020
  117OSM    C1212250   1.319   3.572  10.665 -0.0301 -0.4541 -0.1802
  117OSM   H12A12251   1.369   3.525  10.582 -0.6517 -1.3077 -0.0839
  117OSM   H12B12252   1.326   3.680  10.663 -0.4654 -0.3989  0.6980
  117OSM    C1112253   1.174   3.540  10.653  0.2229  0.2069 -0.0917
  117OSM   H11A12254   1.143   3.434  10.657  0.5814  0.0696 -0.7903
  117OSM   H11B12255   1.137   3.578  10.555 -1.6219 -0.0801  0.4700
  117OSM      P12256   0.978   3.560  10.829  0.4057 -0.1135  0.5113
  117OSM    O1312257   1.017   3.427  10.869 -0.0809  0.2635  0.1104
  117OSM    O1412258   0.941   3.662  10.927 -0.0690  0.4641 -0.9160
  117OSM    O1112259   0.859   3.552  10.728  0.3131  0.2694  0.1834
  117OSM    O1212260   1.100   3.627  10.744 -0.0533  0.4220  0.7390
  117OSM    C1S12261   0.835   3.656  10.629  0.5556 -0.4253 -0.3681
  117OSM    H1S12262   0.881   3.754  10.656  0.3585 -0.3877 -0.1635
  117OSM    H1T12263   0.726   3.679  10.635  0.3796 -1.3454  0.1269
  117OSM     NF12264   0.826   3.737  10.394 -1.2836  0.4955  0.4035
  117OSM    HNF12265   0.735   3.751  10.356 -1.1246 -1.5554 -0.8438
  117OSM    C2S12266   0.852   3.618  10.479  0.8428  0.0343  0.2957
  117OSM    H2S12267   0.957   3.586  10.460 -0.0644 -1.6211 -2.5401
  117OSM    C3S12268   0.748   3.497  10.457  0.3382 -0.4992  0.4816
  117OSM    H3S12269   0.648   3.547  10.458 -0.2856 -1.7153  0.5933
  117OSM     O312270   0.759   3.393  10.547  0.0351 -0.3654 -0.5558
  117OSM    HO312271   0.815   3.432  10.614  0.0958  0.1786 -0.9156
  117OSM    C4S12272   0.773   3.443  10.323 -0.3943 -0.7739 -0.3620
  117OSM    H4S12273   0.689   3.463  10.254 -0.1904  1.7218  0.0004
  117OSM    C5S12274   0.872   3.356  10.285 -0.0336 -0.5780 -0.8536
  117OSM    H5S12275   0.941   3.322  10.363 -1.6841  1.0691  1.4565
  117OSM    C6S12276   0.880   3.297  10.148 -0.3452 -0.0814  0.3522
  117OSM    H6S12277   0.982   3.255  10.133  0.7251  1.8800  1.6546
  117OSM    H6T12278   0.864   3.382  10.078 -1.1438 -0.1907  0.3929
  117OSM    C7S12279   0.759   3.204  10.128 -0.5381  0.2240  0.2763
  117OSM    H7S12280   0.664   3.261  10.131  0.4358  1.9965 -0.8777
  117OSM    H7T12281   0.762   3.126  10.207 -2.9878 -1.8485 -1.5041
  117OSM    C8S12282   0.775   3.132   9.993  0.2215 -0.4956  0.3501
  117OSM    H8S12283   0.723   3.034   9.987  0.1585 -0.4063 -0.7672
  117OSM    H8T12284   0.883   3.117   9.977  1.4971  4.9160  1.7924
  117OSM    C9S12285   0.724   3.221   9.880 -0.5800 -0.3914  0.7235
  117OSM    H9S12286   0.775   3.316   9.854 -1.2994 -0.6456 -1.8499
  117OSM    H9T12287   0.621   3.251   9.908 -1.1964 -2.3864  0.7145
  117OSM   C10S12288   0.716   3.132   9.754  0.3126  0.5511 -0.4076
  117OSM   H10S12289   0.659   3.039   9.775  2.4543 -0.7390  0.0069
  117OSM   H10T12290   0.820   3.101   9.728  0.5870  0.7181  0.4575
  117OSM   C11S12291   0.650   3.191   9.632 -0.0327 -0.1673 -0.0942
  117OSM   H11S12292   0.668   3.301   9.633  0.3825 -0.2341 -0.1416
  117OSM   H11T12293   0.539   3.181   9.627 -0.2339  0.7232  1.7410
  117OSM   C12S12294   0.723   3.154   9.502  0.0683 -0.3706 -1.1251
  117OSM   H12S12295   0.697   3.048   9.483 -0.2858 -0.6910  0.9131
  117OSM   H12T12296   0.833   3.160   9.510  0.1440 -1.1247 -1.5461
  117OSM   C13S12297   0.680   3.231   9.380  0.2684 -0.2292  0.1321
  117OSM   H13S12298   0.707   3.339   9.371  0.5490 -0.4638 -2.2742
  117OSM   H13T12299   0.570   3.221   9.375 -0.0353  2.0853  0.7601
  117OSM   C14S12300   0.738   3.171   9.258  0.1596  1.0259  0.4495
  117OSM   H14S12301   0.733   3.060   9.252 -0.6782  1.0355  0.7721
  117OSM   H14T12302   0.848   3.185   9.251  0.2664 -0.1544 -0.6137
  117OSM   C15S12303   0.679   3.226   9.125  0.3267 -0.3588 -1.3259
  117OSM   H15S12304   0.695   3.336   9.128  1.9332 -0.5002 -2.8229
  117OSM   H15T12305   0.571   3.204   9.118  0.3947 -1.2006 -0.1223
  117OSM   C16S12306   0.751   3.164   9.006  0.0002 -0.1765  0.0681
  117OSM   H16S12307   0.690   3.072   8.992  1.3651 -1.0696 -0.2418
  117OSM   H16T12308   0.852   3.132   9.038  0.5160  3.0162  2.0113
  117OSM   C17S12309   0.769   3.237   8.879 -0.3168 -0.1036  0.2380
  117OSM   H17S12310   0.805   3.168   8.800  1.1019  1.5737 -0.6368
  117OSM   H17T12311   0.858   3.301   8.891  0.3347 -0.5720 -1.7178
  117OSM   C18S12312   0.649   3.299   8.816 -0.1397  0.3332  0.2644
  117OSM   H18S12313   0.612   3.381   8.881  1.0833  0.7559  0.4507
  117OSM   H18T12314   0.574   3.219   8.793  1.9700 -2.5721  2.6992
  117OSM   H18U12315   0.667   3.357   8.723 -0.6224  1.9999  1.1855
  117OSM    C1F12316   0.921   3.834  10.390 -0.0590  0.6019  0.5889
  117OSM     OF12317   1.039   3.798  10.417 -0.2904  0.5561  0.5330
  117OSM    C2F12318   0.881   3.979  10.371 -0.1716  1.2307  0.0907
  117OSM    H2F12319   0.877   4.021  10.474 -2.4632  0.1974  0.4709
  117OSM    H2G12320   0.783   3.987  10.319  0.2390  0.7490 -0.7814
  117OSM    C3F12321   0.980   4.044  10.280 -0.1847  0.4355  0.5307
  117OSM    H3F12322   1.011   3.968  10.206 -0.2979  0.7446  0.1647
  117OSM    H3G12323   1.069   4.075  10.339  0.1018  0.6217 -0.0014
  117OSM    C4F12324   0.931   4.163  10.205 -0.2955 -0.4442  0.7924
  117OSM    H4F12325   0.928   4.253  10.270  0.7856  0.4770 -0.3837
  117OSM    H4G12326   0.838   4.158  10.144 -0.2052  0.7012  0.5457
  117OSM    C5F12327   1.032   4.214  10.090 -0.8957  0.3195  0.5218
  117OSM    H5F12328   1.134   4.210  10.134 -1.6197  1.8002  2.4847
  117OSM    H5G12329   1.013   4.322  10.074 -2.3882  0.1796  1.1343
  117OSM    C6F12330   1.024   4.138   9.966 -0.4722  0.6209  0.5331
  117OSM    H6F12331   0.929   4.152   9.910 -0.3720 -0.9053 -0.0421
  117OSM    H6G12332   1.035   4.030   9.986  0.5919  0.6812  0.3322
  117OSM    C7F12333   1.126   4.188   9.863 -0.1593  0.2048 -0.6278
  117OSM    H7F12334   1.226   4.196   9.911 -1.2593 -1.3859  2.1954
  117OSM    H7G12335   1.083   4.286   9.834 -0.6925 -0.4442 -2.1000
  117OSM    C8F12336   1.151   4.103   9.740 -0.1525  0.6582 -0.1177
  117OSM    H8F12337   1.205   4.011   9.772  0.5914  1.5200  1.1794
  117OSM    H8G12338   1.216   4.169   9.679 -2.3663  1.0545 -2.2049
  117OSM    C9F12339   1.031   4.059   9.654 -0.6354  0.5580 -0.1010
  117OSM    H9F12340   0.970   3.984   9.707  0.0614 -0.0593 -0.1701
  117OSM   C10F12341   1.010   4.083   9.525 -0.5627 -0.8689  0.7242
  117OSM   H10F12342   0.915   4.061   9.473  0.1052 -1.7144 -0.2025
  117OSM   C11F12343   1.106   4.170   9.448 -0.4847 -0.0347 -0.1607
  117OSM   H11F12344   1.169   4.253   9.487 -1.4052  2.5192 -3.5759
  117OSM   H11G12345   1.044   4.230   9.379  1.7909 -0.1561 -2.4611
  117OSM   C12F12346   1.191   4.090   9.343 -0.1811 -0.1902  0.1647
  117OSM   H12F12347   1.134   4.006   9.298  2.1427 -0.4971 -2.4760
  117OSM   H12G12348   1.272   4.039   9.400  0.5132 -1.0556 -1.5355
  117OSM   C13F12349   1.261   4.175   9.229  0.3757 -0.1609 -0.4356
  117OSM   H13F12350   1.300   4.267   9.279 -1.3918  0.1766  0.4120
  117OSM   H13G12351   1.189   4.207   9.151 -2.3163 -0.5542  1.7040
  117OSM   C14F12352   1.373   4.095   9.164  0.3530 -0.3785  0.0560
  117OSM   H14F12353   1.333   3.997   9.129  0.0110 -0.2453  0.0683
  117OSM   H14G12354   1.440   4.073   9.249  0.3239  1.3351  0.5536
  117OSM   C15F12355   1.448   4.174   9.055  0.0401 -0.2740  0.2752
  117OSM   H15F12356   1.532   4.108   9.025  0.7686  1.5037 -1.9354
  117OSM   H15G12357   1.491   4.271   9.087 -0.9797  0.6029 -0.9128
  117OSM   C16F12358   1.380   4.177   8.922 -0.4103 -0.3681  0.5378
  117OSM   H16F12359   1.441   4.244   8.857 -0.8934  1.7875  2.1797
  117OSM   H16G12360   1.274   4.212   8.931 -0.2167 -0.3639  3.8426
  117OSM   C17F12361   1.368   4.040   8.856 -0.9443  0.7627 -0.2281
  117OSM   H17F12362   1.291   3.970   8.896 -0.8266 -0.0020 -1.2938
  117OSM   H17G12363   1.462   3.986   8.881 -0.7255  1.7301  1.1872
  117OSM   C18F12364   1.345   4.043   8.705  0.0880  0.6767  0.5593
  117OSM   H18F12365   1.413   4.108   8.645 -2.2257  3.0862  0.3835
  117OSM   H18G12366   1.241   4.079   8.696  0.0251  0.3053 -0.3514
  117OSM   H18H12367   1.355   3.938   8.668  0.5912  0.6818  0.6668
  118OSM      N12368   3.691   5.053  11.157 -0.2289 -0.0016  0.3303
  118OSM    C1512369   3.759   4.935  11.214  0.0595  0.6351 -0.3526
  118OSM   H15A12370   3.718   4.843  11.175  0.7311  0.4696 -0.6849
  118OSM   H15B12371   3.740   4.932  11.320 -2.1481 -0.7765 -0.7100
  118OSM   H15C12372   3.866   4.936  11.202  0.0493 -0.4438 -0.5883
  118OSM    C1412373   3.547   5.011  11.137 -0.5830  0.0138  0.2690
  118OSM   H14A12374   3.497   5.090  11.082  0.4573  0.9271  0.5981
  118OSM   H14B12375   3.493   4.999  11.230 -0.5558 -1.8580  0.0831
  118OSM   H14C12376   3.540   4.912  11.094  0.4338  0.1310 -0.1911
  118OSM    C1312377   3.700   5.178  11.247  0.6263  0.2936 -0.1202
  118OSM   H13A12378   3.635   5.256  11.210  2.3740  2.0591  0.3795
  118OSM   H13B12379   3.803   5.210  11.253  1.1512 -1.0839 -1.2134
  118OSM   H13C12380   3.660   5.144  11.342  0.1241 -1.3566 -0.8698
  118OSM    C1212381   3.762   5.094  11.025 -0.1402  0.1620 -0.0020
  118OSM   H12A12382   3.868   5.081  11.041  0.4292  1.0365 -2.4928
  118OSM   H12B12383   3.756   5.202  11.022  2.9816  0.4916  1.1841
  118OSM    C1112384   3.720   5.027  10.897  0.0966 -0.4120  0.0944
  118OSM   H11A12385   3.761   5.073  10.804  1.3305  0.2139  0.9209
  118OSM   H11B12386   3.613   5.049  10.876  0.5258 -0.3128 -2.2814
  118OSM      P12387   3.898   4.829  10.908 -0.1913 -0.2261  0.2222
  118OSM    O1312388   4.001   4.942  10.922  0.1102 -0.3014 -0.2835
  118OSM    O1412389   3.908   4.717  11.003  0.5671 -0.6221 -0.1887
  118OSM    O1112390   3.908   4.784  10.756  0.4136  0.2334  0.1992
  118OSM    O1212391   3.744   4.884  10.916  0.2235  0.2870 -0.4898
  118OSM    C1S12392   3.789   4.790  10.677 -0.2620 -0.3567  0.1847
  118OSM    H1S12393   3.766   4.897  10.659 -1.4174 -0.9140 -2.0196
  118OSM    H1T12394   3.701   4.741  10.724 -2.0533 -0.0468 -2.6104
  118OSM     NF12395   3.729   4.783  10.439  0.0197 -0.4526 -0.1377
  118OSM    HNF12396   3.647   4.732  10.414 -0.0140  0.2866 -1.6775
  118OSM    C2S12397   3.819   4.726  10.536  0.2061  0.8594 -0.2861
  118OSM    H2S12398   3.923   4.755  10.511  0.7499 -0.5423  0.2571
  118OSM    C3S12399   3.820   4.572  10.560  0.7902  0.4654 -0.1640
  118OSM    H3S12400   3.715   4.537  10.571  0.8366  0.3391 -0.1126
  118OSM     O312401   3.889   4.525  10.672 -0.3459 -0.1682 -0.1061
  118OSM    HO312402   3.937   4.599  10.710  2.1415 -1.2854 -0.8162
  118OSM    C4S12403   3.875   4.504  10.428 -0.3206 -0.1002  0.6902
  118OSM    H4S12404   3.970   4.550  10.395 -0.2214 -0.4299  0.5125
  118OSM    C5S12405   3.807   4.408  10.365  0.8303  0.2624  0.2029
  118OSM    H5S12406   3.718   4.364  10.412 -0.8608  0.5970 -2.5240
  118OSM    C6S12407   3.837   4.350  10.234  0.1002  0.6892 -0.3894
  118OSM    H6S12408   3.940   4.373  10.200  0.7577  0.4936  1.3630
  118OSM    H6T12409   3.766   4.379  10.154 -1.3498 -1.8008 -0.1465
  118OSM    C7S12410   3.849   4.197  10.248 -0.2792 -0.0991  0.3256
  118OSM    H7S12411   3.913   4.155  10.328 -0.7446 -1.9049 -0.2000
  118OSM    H7T12412   3.895   4.155  10.156  0.7232 -1.3388  1.3581
  118OSM    C8S12413   3.705   4.142  10.264  0.1211 -0.3910 -0.4287
  118OSM    H8S12414   3.653   4.203  10.187  1.1477  0.6948 -0.2996
  118OSM    H8T12415   3.654   4.162  10.360  0.7027 -2.2115  0.3033
  118OSM    C9S12416   3.694   3.994  10.221  0.6430  0.1306  0.3425
  118OSM    H9S12417   3.732   3.925  10.299 -1.0383 -0.3763  0.7350
  118OSM    H9T12418   3.753   3.980  10.127 -1.3640 -0.0459 -0.9478
  118OSM   C10S12419   3.548   3.953  10.199 -0.0500 -0.1358  0.0260
  118OSM   H10S12420   3.487   4.009  10.273 -1.6539 -1.0813 -0.5376
  118OSM   H10T12421   3.536   3.844  10.215 -0.2342 -0.2247 -0.6719
  118OSM   C11S12422   3.495   4.000  10.066  0.3274  0.6384  0.2042
  118OSM   H11S12423   3.526   4.107  10.061  0.9929  0.4863  0.8931
  118OSM   H11T12424   3.385   4.004  10.072  0.3312 -0.5131  1.4199
  118OSM   C12S12425   3.534   3.916   9.944  0.4197 -0.2608 -0.0812
  118OSM   H12S12426   3.518   3.807   9.960 -0.4219 -0.6665 -3.0811
  118OSM   H12T12427   3.640   3.934   9.917  0.6664 -0.9663  0.3797
  118OSM   C13S12428   3.441   3.967   9.831 -0.3473 -0.3012  0.1682
  118OSM   H13S12429   3.463   4.074   9.813 -1.8126 -0.0087 -0.0387
  118OSM   H13T12430   3.335   3.954   9.861  0.2137  1.3733  3.2774
  118OSM   C14S12431   3.468   3.907   9.692  0.0732 -0.3236 -0.4165
  118OSM   H14S12432   3.398   3.955   9.620 -0.7029  1.3362  1.3380
  118OSM   H14T12433   3.444   3.798   9.691 -1.7024  0.0164  0.4631
  118OSM   C15S12434   3.612   3.927   9.651 -0.2916 -0.1553 -0.3555
  118OSM   H15S12435   3.681   3.871   9.716 -0.9886 -1.2816 -0.5619
  118OSM   H15T12436   3.645   4.033   9.659  0.3923 -0.4038  0.1564
  118OSM   C16S12437   3.634   3.885   9.508  0.2345  0.7766 -0.4904
  118OSM   H16S12438   3.572   3.944   9.438  0.4839  0.3185 -1.1157
  118OSM   H16T12439   3.604   3.778   9.505 -1.5936  1.1626  1.2982
  118OSM   C17S12440   3.786   3.908   9.485  0.4450 -0.8343  0.3208
  118OSM   H17S12441   3.839   3.829   9.543  0.9575 -0.3116  0.5799
  118OSM   H17T12442   3.823   3.997   9.540  1.1983 -0.3888 -0.8682
  118OSM   C18S12443   3.846   3.903   9.341 -0.8853  0.1240  0.2142
  118OSM   H18S12444   3.834   3.795   9.317  0.1220  0.0270  0.1282
  118OSM   H18T12445   3.956   3.914   9.341 -1.0692  2.6038 -0.3377
  118OSM   H18U12446   3.797   3.969   9.265  0.6023 -0.0683 -0.9606
  118OSM    C1F12447   3.749   4.912  10.396 -0.5324 -0.0444  0.6222
  118OSM     OF12448   3.832   4.987  10.448  0.0067 -0.1043 -0.2642
  118OSM    C2F12449   3.671   4.952  10.272  0.1672  0.2486 -0.0517
  118OSM    H2F12450   3.682   5.061  10.259 -0.3492  0.4278  0.9271
  118OSM    H2G12451   3.568   4.912  10.277  0.0350 -0.0250 -2.9828
  118OSM    C3F12452   3.727   4.892  10.148 -0.7233 -0.3625  0.4598
  118OSM    H3F12453   3.740   4.781  10.150 -3.1504 -0.7695 -1.2192
  118OSM    H3G12454   3.817   4.948  10.116 -2.6467  1.9081 -1.3805
  118OSM    C4F12455   3.633   4.906  10.026 -0.3421  0.1420  0.2380
  118OSM    H4F12456   3.611   5.012  10.001  0.2928 -0.6459 -4.4596
  118OSM    H4G12457   3.541   4.856  10.064 -0.0191  0.9995  2.2802
  118OSM    C5F12458   3.691   4.833   9.903  0.9178  0.0335  0.2583
  118OSM    H5F12459   3.706   4.726   9.930 -0.5708 -0.2808 -0.0801
  118OSM    H5G12460   3.785   4.882   9.869  1.7319 -1.9091 -0.4307
  118OSM    C6F12461   3.590   4.840   9.786  0.1097  0.1754 -0.4873
  118OSM    H6F12462   3.570   4.948   9.768 -0.4307 -0.0846 -1.5416
  118OSM    H6G12463   3.493   4.800   9.822  0.3949  0.1757  0.2813
  118OSM    C7F12464   3.658   4.781   9.665  0.0838 -0.0921 -0.4252
  118OSM    H7F12465   3.684   4.676   9.690 -1.3375 -0.6944 -1.3346
  118OSM    H7G12466   3.752   4.839   9.650  0.9454 -1.2042  0.4827
  118OSM    C8F12467   3.573   4.778   9.539  0.2211  0.2767  0.4416
  118OSM    H8F12468   3.509   4.869   9.545 -1.2236 -0.5045 -1.8212
  118OSM    H8G12469   3.489   4.704   9.536  2.1185 -2.0219  1.0847
  118OSM    C9F12470   3.657   4.764   9.414  0.3913  0.6947 -1.0387
  118OSM    H9F12471   3.720   4.674   9.418  0.7249  0.9183  3.1593
  118OSM   C10F12472   3.657   4.840   9.300 -0.5973  0.7820  0.4626
  118OSM   H10F12473   3.735   4.817   9.226 -2.1431 -1.2189 -0.6340
  118OSM   C11F12474   3.559   4.948   9.270 -0.2106 -0.5082 -0.2496
  118OSM   H11F12475   3.608   5.048   9.262 -0.3238 -0.4353 -0.0279
  118OSM   H11G12476   3.481   4.955   9.349  0.0667  0.7163 -0.0675
  118OSM   C12F12477   3.472   4.927   9.144  0.2433 -0.1615 -0.2176
  118OSM   H12F12478   3.368   4.967   9.154  0.3785 -0.0196  0.6427
  118OSM   H12G12479   3.459   4.818   9.127 -2.2970 -0.0282  0.4698
  118OSM   C13F12480   3.527   4.994   9.016  0.2860  0.2741  0.1458
  118OSM   H13F12481   3.634   5.013   9.039  0.6608  1.0977 -1.9919
  118OSM   H13G12482   3.493   5.100   9.012 -0.1479  0.1400  0.3129
  118OSM   C14F12483   3.508   4.916   8.888  0.2755 -0.3534 -0.1597
  118OSM   H14F12484   3.567   4.822   8.897 -1.5580 -1.5250  0.1762
  118OSM   H14G12485   3.555   4.960   8.797 -1.5060 -2.2212 -2.1011
  118OSM   C15F12486   3.362   4.878   8.862 -0.1098 -0.4447  0.0976
  118OSM   H15F12487   3.294   4.966   8.864 -0.7118 -0.8537 -1.0595
  118OSM   H15G12488   3.318   4.804   8.932 -0.3883  0.4604  0.8974
  118OSM   C16F12489   3.352   4.810   8.724  0.0354  0.4093  0.3614
  118OSM   H16F12490   3.384   4.705   8.736 -1.8634 -0.1821  0.5702
  118OSM   H16G12491   3.420   4.866   8.656  0.1814 -0.6526 -0.3845
  118OSM   C17F12492   3.209   4.816   8.672  0.4200  0.1863 -0.0605
  118OSM   H17F12493   3.223   4.785   8.566  3.3019 -0.5011  0.4267
  118OSM   H17G12494   3.181   4.923   8.678 -0.4223 -0.0720  1.0165
  118OSM   C18F12495   3.111   4.727   8.742 -0.4691 -0.7075  0.4300
  118OSM   H18F12496   3.013   4.724   8.690  0.0109 -0.9199 -0.4836
  118OSM   H18G12497   3.100   4.768   8.845  1.4904  2.1160 -0.3651
  118OSM   H18H12498   3.161   4.628   8.749  0.4321 -0.2080  1.3031
  119OSM      N12499   1.940   4.235  11.134  0.6088  0.2729  0.0417
  119OSM    C1512500   1.795   4.248  11.076  0.0364 -0.6565 -0.3561
  119OSM   H15A12501   1.745   4.153  11.076  0.4351 -0.8682 -0.1856
  119OSM   H15B12502   1.792   4.295  10.979 -0.1439 -1.8063 -0.9197
  119OSM   H15C12503   1.731   4.305  11.141 -1.3064 -2.1508 -0.3182
  119OSM    C1412504   1.984   4.370  11.163 -0.1773 -0.6868 -0.0827
  119OSM   H14A12505   1.976   4.436  11.077  1.8200 -1.0309 -0.5876
  119OSM   H14B12506   2.087   4.376  11.194  0.2011 -0.3005 -1.3340
  119OSM   H14C12507   1.913   4.407  11.235 -0.1673 -0.8300  0.0003
  119OSM    C1312508   1.932   4.160  11.259 -0.3576 -0.5541 -0.3029
  119OSM   H13A12509   2.027   4.139  11.306 -0.2879  1.2486  0.4525
  119OSM   H13B12510   1.867   4.075  11.242 -0.8798 -0.2209 -0.0093
  119OSM   H13C12511   1.874   4.218  11.330 -2.0166  1.0160 -2.7928
  119OSM    C1212512   2.039   4.169  11.030  0.3703  0.1595  0.3532
  119OSM   H12A12513   2.135   4.160  11.078  1.2842 -0.8517 -1.5784
  119OSM   H12B12514   2.043   4.246  10.954 -0.2859  1.1031  1.2418
  119OSM    C1112515   1.993   4.040  10.961  0.2633  0.6494  0.6257
  119OSM   H11A12516   2.079   4.003  10.901 -1.5943 -2.2397 -0.4169
  119OSM   H11B12517   1.913   4.067  10.890  0.9435 -2.9748 -1.7307
  119OSM      P12518   1.815   3.859  11.026 -0.3668  0.0196  0.3152
  119OSM    O1312519   1.784   3.758  11.131 -0.1114 -0.5457  0.1349
  119OSM    O1412520   1.708   3.956  10.986  0.4894 -0.6924 -0.3987
  119OSM    O1112521   1.872   3.783  10.901 -0.3578 -0.0602  0.1836
  119OSM    O1212522   1.946   3.948  11.065  0.0580 -0.6491 -0.0314
  119OSM    C1S12523   1.781   3.749  10.795  0.5581  0.4102 -0.2881
  119OSM    H1S12524   1.677   3.780  10.816  0.7506  0.4585  0.6184
  119OSM    H1T12525   1.773   3.639  10.784  0.6215  0.5144 -1.6401
  119OSM     NF12526   1.701   3.799  10.573 -0.2961  0.2748 -0.0530
  119OSM    HNF12527   1.712   3.736  10.496 -1.8521 -0.0971 -0.0227
  119OSM    C2S12528   1.813   3.814  10.662 -0.5454  0.6728  0.3853
  119OSM    H2S12529   1.834   3.923  10.666 -2.2256  1.0585 -0.3796
  119OSM    C3S12530   1.942   3.754  10.594  0.0405 -0.0749 -0.0931
  119OSM    H3S12531   1.931   3.644  10.596 -2.2707  0.1059  1.3565
  119OSM     O312532   2.062   3.765  10.672 -0.1878 -0.1010 -0.1552
  119OSM    HO312533   2.029   3.801  10.755 -0.1680  3.1604 -1.3881
  119OSM    C4S12534   1.972   3.807  10.453 -0.3801  0.9787 -0.0735
  119OSM    H4S12535   2.007   3.910  10.440 -0.1016  1.0100  0.8577
  119OSM    C5S12536   1.953   3.732  10.347 -0.8693  0.2818  1.1861
  119OSM    H5S12537   1.902   3.635  10.356 -0.9266 -0.2078 -2.5659
  119OSM    C6S12538   1.979   3.781  10.201 -0.0619  0.3053  0.3252
  119OSM    H6S12539   2.083   3.752  10.173 -0.5159 -1.5001  0.4223
  119OSM    H6T12540   1.978   3.892  10.208  0.8222  0.5320 -2.0106
  119OSM    C7S12541   1.880   3.728  10.092 -0.7505 -0.0299  0.1146
  119OSM    H7S12542   1.773   3.739  10.119 -0.8248 -0.8848  0.1856
  119OSM    H7T12543   1.911   3.624  10.068  0.5660  0.6877 -1.5347
  119OSM    C8S12544   1.905   3.805   9.957 -0.6459  0.5295  0.0817
  119OSM    H8S12545   2.011   3.781   9.936 -1.0720 -0.0102 -1.5775
  119OSM    H8T12546   1.897   3.916   9.964  0.5198  0.5428  2.1682
  119OSM    C9S12547   1.821   3.747   9.842  0.3998 -0.2620 -0.7270
  119OSM    H9S12548   1.714   3.773   9.859 -0.3961 -1.1288 -3.8002
  119OSM    H9T12549   1.837   3.641   9.815 -2.4018 -0.4402 -2.0114
  119OSM   C10S12550   1.840   3.828   9.710 -0.5231 -0.0338 -0.0011
  119OSM   H10S12551   1.947   3.825   9.679 -1.1567  0.8005 -2.5071
  119OSM   H10T12552   1.819   3.935   9.733  2.3389  0.9560 -1.4322
  119OSM   C11S12553   1.766   3.760   9.594 -0.5388 -0.8462 -0.3392
  119OSM   H11S12554   1.660   3.741   9.620 -0.8009  1.8100  0.8442
  119OSM   H11T12555   1.810   3.660   9.571 -2.9240 -1.8760 -0.7273
  119OSM   C12S12556   1.770   3.847   9.473 -0.1471 -0.0147 -0.2905
  119OSM   H12S12557   1.877   3.878   9.465 -0.9858  3.3694  0.3018
  119OSM   H12T12558   1.713   3.940   9.490 -0.6201  0.1208 -2.3826
  119OSM   C13S12559   1.725   3.784   9.336 -0.0424  0.2308 -0.1405
  119OSM   H13S12560   1.617   3.758   9.348 -0.6594  1.2691 -2.9125
  119OSM   H13T12561   1.776   3.687   9.319 -0.9587 -0.0761 -1.2388
  119OSM   C14S12562   1.736   3.882   9.219  0.2980  0.6176 -0.0585
  119OSM   H14S12563   1.844   3.905   9.204  1.2319 -3.0168  0.2931
  119OSM   H14T12564   1.685   3.972   9.258 -1.4742 -0.9397  1.3513
  119OSM   C15S12565   1.679   3.823   9.088 -0.6417 -0.0882  0.2737
  119OSM   H15S12566   1.658   3.909   9.021 -3.0351  0.3672  1.4776
  119OSM   H15T12567   1.578   3.783   9.111 -0.2168 -0.3389  1.8252
  119OSM   C16S12568   1.774   3.726   9.007  0.3417 -0.5007  0.6049
  119OSM   H16S12569   1.786   3.635   9.071 -1.0666 -0.0617  1.5492
  119OSM   H16T12570   1.877   3.763   8.989  0.6130 -2.2212 -1.8290
  119OSM   C17S12571   1.719   3.681   8.874 -0.6182 -0.4982 -0.1481
  119OSM   H17S12572   1.687   3.774   8.822 -1.8465  0.6501  2.4996
  119OSM   H17T12573   1.625   3.628   8.898  0.3391 -2.3601 -0.2793
  119OSM   C18S12574   1.812   3.588   8.786  0.0562  0.1642 -0.4399
  119OSM   H18S12575   1.758   3.530   8.709 -2.3976  1.7953 -0.0809
  119OSM   H18T12576   1.869   3.513   8.845  0.1125 -0.9452 -1.8614
  119OSM   H18U12577   1.887   3.648   8.731 -0.6217  0.9961 -0.4796
  119OSM    C1F12578   1.586   3.864  10.586 -0.0756  0.2176  1.1560
  119OSM     OF12579   1.574   3.948  10.674 -0.3793 -0.0330  0.0782
  119OSM    C2F12580   1.484   3.843  10.486 -0.1610  0.0274  0.0783
  119OSM    H2F12581   1.401   3.796  10.543  0.8128 -0.1911  1.3609
  119OSM    H2G12582   1.516   3.781  10.400 -2.0069  2.0573 -2.2118
  119OSM    C3F12583   1.413   3.972  10.421  0.4320  0.1097  0.5706
  119OSM    H3F12584   1.372   4.036  10.502 -0.6256  0.7769 -0.4629
  119OSM    H3G12585   1.330   3.937  10.356  1.6342  2.1701 -2.3011
  119OSM    C4F12586   1.513   4.063  10.341 -0.0301 -0.0110  0.1932
  119OSM    H4F12587   1.615   4.076  10.383 -0.6848  0.8294  1.5986
  119OSM    H4G12588   1.467   4.164  10.335  1.0260  0.4493 -0.7310
  119OSM    C5F12589   1.535   4.025  10.192  0.1096  0.8320  0.2946
  119OSM    H5F12590   1.436   4.018  10.142 -0.3768 -0.6274  1.3934
  119OSM    H5G12591   1.579   3.924  10.202  0.3321  1.0662  2.1227
  119OSM    C6F12592   1.631   4.119  10.112 -0.5564 -0.5490 -0.4734
  119OSM    H6F12593   1.733   4.104  10.154 -0.2474  0.2247 -0.9339
  119OSM    H6G12594   1.601   4.224  10.130 -0.6521 -0.6768  0.1205
  119OSM    C7F12595   1.630   4.097   9.964  0.3280 -0.2971 -0.2244
  119OSM    H7F12596   1.532   4.103   9.911  0.7789 -0.7001 -1.1293
  119OSM    H7G12597   1.663   3.993   9.941  1.3404  0.4057 -2.2304
  119OSM    C8F12598   1.729   4.190   9.888  0.5457  0.2993  0.0228
  119OSM    H8F12599   1.766   4.144   9.794 -0.9670  0.9627 -0.9280
  119OSM    H8G12600   1.819   4.205   9.952 -0.7272 -0.5223  2.1118
  119OSM    C9F12601   1.666   4.326   9.858 -0.4699 -0.1023  0.3803
  119OSM    H9F12602   1.690   4.417   9.915  1.0368  0.3273 -0.8468
  119OSM   C10F12603   1.595   4.335   9.746  0.0830  0.4302  0.2601
  119OSM   H10F12604   1.559   4.434   9.714 -1.6418 -0.2821 -0.1638
  119OSM   C11F12605   1.555   4.224   9.650 -0.9328  0.2199  0.5762
  119OSM   H11F12606   1.445   4.222   9.633 -0.8440  0.6050 -0.0592
  119OSM   H11G12607   1.586   4.123   9.686  2.7466  1.0382  0.1573
  119OSM   C12F12608   1.620   4.232   9.511  0.2110 -0.1841 -0.3391
  119OSM   H12F12609   1.592   4.137   9.460  0.0786  0.7747 -2.1415
  119OSM   H12G12610   1.731   4.228   9.521  0.1524 -0.0600  0.3585
  119OSM   C13F12611   1.587   4.354   9.430 -0.1290  0.5323  0.3108
  119OSM   H13F12612   1.620   4.446   9.484 -0.2539  2.2800 -2.3951
  119OSM   H13G12613   1.477   4.362   9.414  0.2266  1.9151 -1.7760
  119OSM   C14F12614   1.659   4.351   9.294  0.6284 -0.0833 -0.2471
  119OSM   H14F12615   1.623   4.255   9.251 -1.2626  0.2141  0.5518
  119OSM   H14G12616   1.766   4.327   9.312  0.9410  0.4522 -1.2828
  119OSM   C15F12617   1.625   4.471   9.216 -0.6890  0.1449  0.5922
  119OSM   H15F12618   1.642   4.556   9.287  2.6124 -0.0046  0.1137
  119OSM   H15G12619   1.519   4.488   9.187 -0.1812 -1.2319 -2.3394
  119OSM   C16F12620   1.724   4.500   9.098  0.6254 -0.3618 -0.1912
  119OSM   H16F12621   1.831   4.485   9.123  1.1324  1.8386 -0.8004
  119OSM   H16G12622   1.710   4.610   9.089 -3.2411 -0.4538  2.4166
  119OSM   C17F12623   1.692   4.418   8.972 -0.1476  0.1945  0.1910
  119OSM   H17F12624   1.584   4.419   8.945  0.3937 -0.5047 -2.2849
  119OSM   H17G12625   1.723   4.313   8.989  0.7450  0.4928  0.5047
  119OSM   C18F12626   1.773   4.484   8.860  0.0843 -0.1210 -0.0292
  119OSM   H18F12627   1.732   4.448   8.762 -1.1256 -2.7165  1.3242
  119OSM   H18G12628   1.882   4.462   8.864 -0.0479 -0.9919 -0.8014
  119OSM   H18H12629   1.761   4.594   8.861 -1.4236 -0.2722  0.4852
  120OSM      N12630   3.402   1.338  10.717 -0.6789  0.0987  0.8213
  120OSM    C1512631   3.501   1.412  10.808  0.2478  0.2429  0.2348
  120OSM   H15A12632   3.502   1.519  10.797 -2.1743  0.3088  0.2283
  120OSM   H15B12633   3.599   1.368  10.797 -0.2872 -0.7352 -0.8118
  120OSM   H15C12634   3.479   1.387  10.911  2.0212 -0.7957  0.3994
  120OSM    C1412635   3.398   1.199  10.772 -0.2894  0.0725  0.6011
  120OSM   H14A12636   3.330   1.137  10.716 -2.5809  3.9966 -1.3645
  120OSM   H14B12637   3.378   1.200  10.879  0.5855 -0.5080  0.7789
  120OSM   H14C12638   3.498   1.161  10.757 -0.5007 -0.2502 -0.0243
  120OSM    C1312639   3.274   1.416  10.708  0.4926  0.4991 -0.0457
  120OSM   H13A12640   3.283   1.513  10.661  1.2170  0.6646  0.4200
  120OSM   H13B12641   3.236   1.433  10.808  1.0921 -0.7461  0.4177
  120OSM   H13C12642   3.199   1.357  10.658  1.1978 -0.5870  0.1518
  120OSM    C1212643   3.460   1.331  10.573 -0.3396 -0.6655 -1.0403
  120OSM   H12A12644   3.476   1.433  10.543 -0.2933 -0.4174 -0.2117
  120OSM   H12B12645   3.383   1.299  10.504 -1.7895  1.8450 -0.6980
  120OSM    C1112646   3.592   1.257  10.550  0.1724 -0.1766  0.4489
  120OSM   H11A12647   3.610   1.270  10.441  1.2704  0.3324  0.6682
  120OSM   H11B12648   3.564   1.150  10.563  0.3428 -0.4551 -1.2432
  120OSM      P12649   3.837   1.198  10.606  0.1646  0.2507 -0.0595
  120OSM    O1312650   3.940   1.230  10.698 -0.0204 -0.3917 -0.4285
  120OSM    O1412651   3.792   1.055  10.609 -0.2814 -0.3867  0.0824
  120OSM    O1112652   3.875   1.245  10.460 -0.3934 -0.3409  0.1771
  120OSM    O1212653   3.713   1.293  10.622 -0.0412 -0.2720  0.2759
  120OSM    C1S12654   3.894   1.382  10.443  0.2831 -0.1992  0.4600
  120OSM    H1S12655   3.974   1.418  10.512  0.5890  0.4166 -0.2093
  120OSM    H1T12656   3.799   1.436  10.461 -1.0333 -1.4788 -2.0390
  120OSM     NF12657   3.963   1.559  10.299  0.2868  0.5394 -0.0580
  120OSM    HNF12658   3.891   1.620  10.267 -0.7942 -0.5643  0.1614
  120OSM    C2S12659   3.930   1.418  10.300  0.0050  0.6320  0.6241
  120OSM    H2S12660   4.022   1.367  10.264 -0.3036  0.3006  0.2937
  120OSM    C3S12661   3.821   1.371  10.193  0.2496  0.1366 -0.2790
  120OSM    H3S12662   3.723   1.419  10.214  2.1493  4.4658 -0.3279
  120OSM     O312663   3.797   1.231  10.200 -0.0904  0.5479 -0.1654
  120OSM    HO312664   3.848   1.207  10.277 -0.5925 -3.0373 -0.7790
  120OSM    C4S12665   3.866   1.420  10.052 -0.7804  0.0395 -0.5243
  120OSM    H4S12666   3.835   1.523  10.026  1.4422  0.1605 -3.0943
  120OSM    C5S12667   3.919   1.355   9.946 -0.4335 -0.0471 -0.3334
  120OSM    H5S12668   3.952   1.251   9.963  0.8422  0.3377 -0.3928
  120OSM    C6S12669   3.945   1.415   9.810  0.2492  0.1445 -0.4154
  120OSM    H6S12670   3.930   1.329   9.742 -0.7589  0.2198 -0.3026
  120OSM    H6T12671   4.055   1.433   9.800  0.0183  0.7795 -2.1407
  120OSM    C7S12672   3.854   1.524   9.763  0.0854 -0.4507  0.7385
  120OSM    H7S12673   3.872   1.624   9.808 -2.1509  0.5146 -0.3853
  120OSM    H7T12674   3.749   1.499   9.789 -0.7107 -0.0857 -1.8256
  120OSM    C8S12675   3.883   1.556   9.609 -0.4736 -0.6779  0.5525
  120OSM    H8S12676   3.993   1.556   9.599 -0.5451 -3.0839 -1.1396
  120OSM    H8T12677   3.843   1.657   9.584 -0.2883 -0.9941 -1.1712
  120OSM    C9S12678   3.838   1.440   9.512  0.2053  1.0845  0.5049
  120OSM    H9S12679   3.752   1.383   9.554  1.7737 -1.7692  0.1519
  120OSM    H9T12680   3.912   1.356   9.507 -0.3877  0.5281  0.8937
  120OSM   C10S12681   3.812   1.492   9.372  0.5252  0.1617 -0.2763
  120OSM   H10S12682   3.733   1.570   9.382 -1.9040 -2.0278 -1.1519
  120OSM   H10T12683   3.758   1.413   9.316 -0.2976 -0.5544  1.4271
  120OSM   C11S12684   3.927   1.541   9.290 -0.1302  0.5080  1.0266
  120OSM   H11S12685   4.008   1.589   9.348  2.5829 -2.5523  0.0437
  120OSM   H11T12686   3.889   1.619   9.220  3.7108  1.4827 -0.1805
  120OSM   C12S12687   3.981   1.428   9.200  0.3726  0.6485 -0.6951
  120OSM   H12S12688   3.897   1.373   9.154 -0.2483 -1.2892  2.4076
  120OSM   H12T12689   4.045   1.353   9.251 -1.1649  0.3296  0.8744
  120OSM   C13S12690   4.072   1.484   9.090  0.3634 -0.3002  0.4998
  120OSM   H13S12691   4.128   1.401   9.041  0.5537 -0.5307  1.1023
  120OSM   H13T12692   4.151   1.539   9.145  2.1766 -2.1832 -0.0789
  120OSM   C14S12693   4.006   1.551   8.967  0.4251  0.0047 -0.7343
  120OSM   H14S12694   3.922   1.612   9.008  0.8695 -1.0117  1.9214
  120OSM   H14T12695   3.962   1.475   8.899  0.1896 -1.7133  1.2318
  120OSM   C15S12696   4.106   1.638   8.891  0.1210  0.0631 -0.5221
  120OSM   H15S12697   4.179   1.573   8.839  0.7589  0.5662 -0.2784
  120OSM   H15T12698   4.178   1.709   8.938  2.0759 -1.7240 -0.6870
  120OSM   C16S12699   4.030   1.723   8.783  0.1473 -0.7510 -0.7922
  120OSM   H16S12700   3.981   1.806   8.838  2.4465  0.0845  0.1108
  120OSM   H16T12701   3.954   1.653   8.741 -1.4501 -0.6278  1.6797
  120OSM   C17S12702   4.113   1.788   8.673  0.5730  0.3243  0.6949
  120OSM   H17S12703   4.199   1.845   8.715 -0.9134  3.9973 -0.8807
  120OSM   H17T12704   4.062   1.867   8.614  0.2804 -0.5573 -0.2657
  120OSM   C18S12705   4.168   1.693   8.555  0.0169 -0.8764 -0.1483
  120OSM   H18S12706   4.209   1.756   8.473 -0.7184 -0.1019  0.0650
  120OSM   H18T12707   4.087   1.631   8.512 -2.7894  2.8283 -0.7185
  120OSM   H18U12708   4.260   1.640   8.585  0.1526 -0.3344  0.4123
  120OSM    C1F12709   4.084   1.605  10.343  0.5552 -0.0886  0.8964
  120OSM     OF12710   4.170   1.530  10.372  0.1616 -0.0590 -0.2647
  120OSM    C2F12711   4.108   1.753  10.324  0.1683  0.5048 -0.0568
  120OSM    H2F12712   4.162   1.787  10.415 -1.3683 -0.1102  1.1360
  120OSM    H2G12713   4.013   1.810  10.312  0.0586  0.4176  0.3864
  120OSM    C3F12714   4.203   1.770  10.204  0.0156 -0.3620  0.6494
  120OSM    H3F12715   4.303   1.726  10.227 -1.0127 -2.9091  0.5409
  120OSM    H3G12716   4.211   1.880  10.190  0.0899 -0.5580 -1.0901
  120OSM    C4F12717   4.156   1.722  10.069 -0.1527  0.1187 -0.5926
  120OSM    H4F12718   4.063   1.776  10.041  0.2208  1.4252  0.5201
  120OSM    H4G12719   4.126   1.616  10.064 -1.8859  0.5762 -0.5837
  120OSM    C5F12720   4.271   1.733   9.958  0.2331  0.2102 -0.7145
  120OSM    H5F12721   4.341   1.647   9.970  0.3458  0.1849 -1.4828
  120OSM    H5G12722   4.326   1.829   9.965 -0.5903  0.5648  1.9842
  120OSM    C6F12723   4.221   1.731   9.810 -0.5314  0.4472 -0.5803
  120OSM    H6F12724   4.137   1.803   9.797 -1.3836 -0.7708 -2.3220
  120OSM    H6G12725   4.185   1.629   9.782  0.7140  0.1532 -1.2049
  120OSM    C7F12726   4.328   1.751   9.688  0.6293 -0.1609 -0.7584
  120OSM    H7F12727   4.419   1.688   9.683  1.5372  1.0121  0.5769
  120OSM    H7G12728   4.365   1.855   9.702 -0.9287  0.5149 -1.4277
  120OSM    C8F12729   4.260   1.741   9.549  0.5616  0.0768 -0.0293
  120OSM    H8F12730   4.155   1.773   9.559  0.4487 -0.3618  0.1961
  120OSM    H8G12731   4.255   1.637   9.511  0.1468 -0.3466  1.1659
  120OSM    C9F12732   4.350   1.806   9.445  0.7746 -0.7549 -0.0036
  120OSM    H9F12733   4.455   1.773   9.444  1.7544  2.0121  1.2646
  120OSM   C10F12734   4.309   1.897   9.358 -0.5347  0.2515  0.7125
  120OSM   H10F12735   4.368   1.923   9.269 -1.9356 -1.3661 -0.7613
  120OSM   C11F12736   4.164   1.944   9.349  0.6517  0.2189  0.4288
  120OSM   H11F12737   4.107   1.935   9.444  0.3421 -0.6410  0.1702
  120OSM   H11G12738   4.108   1.877   9.280 -0.6808  0.3779  1.3167
  120OSM   C12F12739   4.139   2.086   9.303  0.3189 -0.1561 -0.1187
  120OSM   H12F12740   4.185   2.154   9.378  0.3460 -1.4474  1.1013
  120OSM   H12G12741   4.030   2.109   9.310  0.8450  2.3901  0.6859
  120OSM   C13F12742   4.184   2.116   9.157 -0.1302 -0.0434  0.1570
  120OSM   H13F12743   4.123   2.051   9.090 -0.3594 -1.3817  1.5974
  120OSM   H13G12744   4.288   2.081   9.144  0.1381  0.6371  0.4257
  120OSM   C14F12745   4.161   2.265   9.125 -0.7742 -0.1575  0.8227
  120OSM   H14F12746   4.186   2.327   9.214  0.2400  1.2193 -0.3708
  120OSM   H14G12747   4.054   2.287   9.102 -0.8825  0.6875  2.0010
  120OSM   C15F12748   4.251   2.303   9.012 -0.2414  0.7242 -0.2803
  120OSM   H15F12749   4.219   2.252   8.918  1.4819  0.5678 -0.8137
  120OSM   H15G12750   4.354   2.264   9.024 -0.8478 -0.3524  2.0580
  120OSM   C16F12751   4.257   2.452   9.001  0.7562  0.6302  0.1715
  120OSM   H16F12752   4.280   2.494   9.101 -0.7932 -0.0357  0.8296
  120OSM   H16G12753   4.153   2.481   8.975  1.1241  0.1944 -2.0300
  120OSM   C17F12754   4.350   2.524   8.903  0.7339 -0.7273 -0.8397
  120OSM   H17F12755   4.457   2.507   8.927  0.6055 -2.5363 -1.4647
  120OSM   H17G12756   4.316   2.630   8.912 -0.1858 -1.1975  3.2947
  120OSM   C18F12757   4.332   2.470   8.759  0.1755  0.3509  0.0537
  120OSM   H18F12758   4.249   2.520   8.705  1.7324  1.3038 -1.5734
  120OSM   H18G12759   4.326   2.359   8.757  1.9501  0.2404 -0.9506
  120OSM   H18H12760   4.429   2.492   8.710  1.9177 -1.7175  2.3076
  121OSM      N12761   0.839   2.386  10.511 -0.5944 -0.0794 -0.0766
  121OSM    C1512762   0.931   2.381  10.632  0.6080 -0.0448 -0.2726
  121OSM   H15A12763   0.897   2.306  10.702 -0.6771  0.3302 -0.4658
  121OSM   H15B12764   0.930   2.482  10.669 -2.9058  2.2003 -5.2520
  121OSM   H15C12765   1.024   2.342  10.595  0.1680 -1.4344  0.0002
  121OSM    C1412766   0.900   2.480  10.419 -0.2987  0.5381  0.7342
  121OSM   H14A12767   0.926   2.574  10.466  1.3750 -0.3798  1.6866
  121OSM   H14B12768   0.828   2.505  10.342  1.2991 -1.9486 -1.7484
  121OSM   H14C12769   0.980   2.431  10.365  0.4420  1.6594  0.7829
  121OSM    C1312770   0.829   2.245  10.462 -0.2719  0.0411 -0.6978
  121OSM   H13A12771   0.920   2.207  10.419 -0.0309  1.6888 -1.7662
  121OSM   H13B12772   0.744   2.238  10.395 -0.2697  3.2529 -1.2263
  121OSM   H13C12773   0.813   2.177  10.545 -0.5114  0.2871 -0.5366
  121OSM    C1212774   0.704   2.433  10.566 -0.4411 -0.3653 -0.4819
  121OSM   H12A12775   0.624   2.436  10.493  0.4652 -0.5893 -1.5055
  121OSM   H12B12776   0.720   2.536  10.594 -0.8255  0.0111 -1.5951
  121OSM    C1112777   0.649   2.379  10.703  0.2972  0.4823 -0.8815
  121OSM   H11A12778   0.652   2.268  10.712 -0.9047  0.5430  0.8808
  121OSM   H11B12779   0.545   2.413  10.682  0.0769  0.4436  0.1284
  121OSM      P12780   0.670   2.580  10.869  0.1251 -0.2321 -0.2952
  121OSM    O1312781   0.548   2.568  10.948  0.8497 -0.3501  0.0397
  121OSM    O1412782   0.785   2.638  10.949  0.1300  0.1929  0.7528
  121OSM    O1112783   0.640   2.664  10.737  0.1015 -0.8750  0.5866
  121OSM    O1212784   0.710   2.438  10.820  0.0556  0.1918  0.1807
  121OSM    C1S12785   0.719   2.771  10.688 -0.0107 -0.2644  0.0560
  121OSM    H1S12786   0.826   2.741  10.686  0.6019  1.7162  0.4093
  121OSM    H1T12787   0.716   2.858  10.757  0.5929 -1.1771  1.2668
  121OSM     NF12788   0.763   2.930  10.493 -0.0985 -0.4267  0.1411
  121OSM    HNF12789   0.733   3.023  10.512  1.1543  0.0213  0.0580
  121OSM    C2S12790   0.679   2.823  10.544 -0.7886 -0.3755  0.6876
  121OSM    H2S12791   0.696   2.735  10.478  1.3378  0.8707 -0.5314
  121OSM    C3S12792   0.530   2.866  10.550 -0.1014  0.3410  0.0314
  121OSM    H3S12793   0.523   2.950  10.623 -0.3759  1.4850 -1.2588
  121OSM     O312794   0.428   2.764  10.582  0.2352 -0.3306  0.2162
  121OSM    HO312795   0.471   2.689  10.625 -0.1852 -1.8259 -1.8016
  121OSM    C4S12796   0.493   2.933  10.422  0.5282  0.2615 -0.1353
  121OSM    H4S12797   0.535   2.875  10.338  3.1913  0.0999  1.2116
  121OSM    C5S12798   0.450   3.064  10.392 -1.1487  0.1868  0.1577
  121OSM    H5S12799   0.446   3.138  10.473 -0.4638  0.1591  0.2263
  121OSM    C6S12800   0.427   3.120  10.255  1.0949  0.3169  0.0651
  121OSM    H6S12801   0.505   3.193  10.227  1.5948 -0.1912  0.1182
  121OSM    H6T12802   0.330   3.174  10.261 -0.1409 -1.7639 -0.1430
  121OSM    C7S12803   0.406   3.021  10.128 -0.4662 -0.4229 -0.2085
  121OSM    H7S12804   0.343   2.936  10.163  1.2021 -0.8869  1.9236
  121OSM    H7T12805   0.494   2.958  10.103 -0.0898  0.0124  0.0206
  121OSM    C8S12806   0.366   3.099  10.002  0.6683  0.3664 -0.3988
  121OSM    H8S12807   0.441   3.176   9.976  0.4412  0.5866 -0.4076
  121OSM    H8T12808   0.279   3.156  10.043  0.0712 -1.6931  1.4309
  121OSM    C9S12809   0.327   3.007   9.881  0.3680  0.2766  0.5182
  121OSM    H9S12810   0.251   2.937   9.921 -0.5987 -0.1620 -1.8729
  121OSM    H9T12811   0.422   2.959   9.849  0.4069  0.0213  1.0153
  121OSM   C10S12812   0.261   3.080   9.759 -0.3679 -0.0224 -0.1194
  121OSM   H10S12813   0.339   3.152   9.725 -1.9965  0.9380 -2.0057
  121OSM   H10T12814   0.174   3.141   9.792 -0.1364 -0.7349  1.9586
  121OSM   C11S12815   0.219   2.981   9.644 -0.6555 -0.9430 -0.7595
  121OSM   H11S12816   0.131   2.930   9.688  0.5218 -2.4517 -0.0623
  121OSM   H11T12817   0.297   2.902   9.648  1.4377  1.0615  0.5448
  121OSM   C12S12818   0.192   3.033   9.505 -0.4364  0.0798  0.0163
  121OSM   H12S12819   0.283   3.079   9.460 -0.5425  0.4561  0.1804
  121OSM   H12T12820   0.120   3.117   9.506 -1.2006 -0.5548  1.6672
  121OSM   C13S12821   0.136   2.931   9.410  0.2004  0.8916  0.0238
  121OSM   H13S12822   0.049   2.875   9.450  1.1150 -0.1524  0.6192
  121OSM   H13T12823   0.211   2.859   9.372  0.8421  1.5100  0.0877
  121OSM   C14S12824   0.085   2.984   9.270 -0.7161 -0.9506  0.1083
  121OSM   H14S12825   0.029   3.075   9.299  0.5738 -0.0661 -0.1248
  121OSM   H14T12826   0.010   2.918   9.220  0.5916 -2.0880 -0.4254
  121OSM   C15S12827   0.206   3.018   9.177 -0.5714  0.3702 -0.0706
  121OSM   H15S12828   0.281   3.082   9.229  1.8689 -0.0242 -2.8746
  121OSM   H15T12829   0.166   3.077   9.092  1.3874  2.3371  0.2717
  121OSM   C16S12830   0.276   2.900   9.107  0.0789  0.5407 -0.0524
  121OSM   H16S12831   0.193   2.836   9.070 -1.2164  1.4626  1.1170
  121OSM   H16T12832   0.328   2.837   9.181  0.6176  1.4096  0.3238
  121OSM   C17S12833   0.370   2.951   8.997 -0.2879 -0.0024 -0.0005
  121OSM   H17S12834   0.441   3.020   9.047 -1.7616  1.8195 -0.3097
  121OSM   H17T12835   0.317   3.010   8.919  0.5656 -0.9788 -1.3746
  121OSM   C18S12836   0.453   2.840   8.939 -0.0818 -0.8053  0.1774
  121OSM   H18S12837   0.525   2.887   8.869  0.1166  1.1988  1.6473
  121OSM   H18T12838   0.395   2.765   8.882  1.2999 -1.2298 -0.7129
  121OSM   H18U12839   0.499   2.786   9.024 -1.1595 -0.6221  0.9012
  121OSM    C1F12840   0.890   2.915  10.465  0.2577 -0.0064  0.1835
  121OSM     OF12841   0.931   2.800  10.460  0.6898 -0.1447 -0.4389
  121OSM    C2F12842   0.988   3.027  10.447 -0.3428  0.2212  0.5159
  121OSM    H2F12843   1.048   3.039  10.540 -2.8786 -0.2213  2.3514
  121OSM    H2G12844   0.932   3.120  10.427 -4.0256 -2.0029 -0.5171
  121OSM    C3F12845   1.072   2.993  10.319  0.5357  0.4573 -0.1768
  121OSM    H3F12846   1.015   2.959  10.230 -0.8314 -0.7979  1.1075
  121OSM    H3G12847   1.122   2.903  10.359  0.5938 -0.3566 -2.0066
  121OSM    C4F12848   1.188   3.090  10.292 -0.2038 -0.3939 -0.1528
  121OSM    H4F12849   1.236   3.102  10.392  1.3619  2.0933 -1.1014
  121OSM    H4G12850   1.144   3.187  10.261 -1.1587 -0.4488  0.9950
  121OSM    C5F12851   1.290   3.037  10.192 -0.0363  0.4070  0.3019
  121OSM    H5F12852   1.309   2.932  10.225  0.4530  0.8267  1.4356
  121OSM    H5G12853   1.376   3.107  10.197  0.6133 -0.1699 -1.8430
  121OSM    C6F12854   1.246   3.039  10.044 -0.1227 -0.4336 -0.1141
  121OSM    H6F12855   1.237   3.146  10.015  2.0691  0.2963  1.6656
  121OSM    H6G12856   1.153   2.977  10.043  0.0206 -0.7309  1.7095
  121OSM    C7F12857   1.346   2.962   9.957 -0.0645 -0.8865 -0.3089
  121OSM    H7F12858   1.340   2.856   9.989 -0.2469 -1.4467 -2.0866
  121OSM    H7G12859   1.446   3.008   9.975  0.5978 -2.0056 -1.0242
  121OSM    C8F12860   1.323   2.970   9.806  0.0394 -0.7395 -0.1709
  121OSM    H8F12861   1.227   2.917   9.790  1.1777 -2.6489 -1.0953
  121OSM    H8G12862   1.404   2.920   9.749  0.8806  1.3269 -0.8655
  121OSM    C9F12863   1.328   3.122   9.771 -0.3200  0.7995  0.6261
  121OSM    H9F12864   1.417   3.169   9.815 -0.6935  1.3215  0.8278
  121OSM   C10F12865   1.249   3.189   9.693 -0.4037 -0.1212  0.7972
  121OSM   H10F12866   1.280   3.291   9.665  2.6364 -1.7048 -2.4273
  121OSM   C11F12867   1.124   3.142   9.631  0.0014 -0.4279  0.3593
  121OSM   H11F12868   1.038   3.206   9.660 -0.1157 -0.1730 -0.5123
  121OSM   H11G12869   1.100   3.041   9.668  3.0634 -1.2923  0.2313
  121OSM   C12F12870   1.137   3.151   9.472 -0.1722 -0.4438  0.0577
  121OSM   H12F12871   1.173   3.255   9.455  0.6568 -0.2840  2.3625
  121OSM   H12G12872   1.034   3.148   9.431 -1.2780  0.4647  2.5481
  121OSM   C13F12873   1.222   3.039   9.417  0.7186  0.2534  0.5037
  121OSM   H13F12874   1.171   2.948   9.456 -1.0683  1.1883  0.4530
  121OSM   H13G12875   1.319   3.043   9.471  0.0865 -2.6466  2.0682
  121OSM   C14F12876   1.249   3.043   9.265  0.2150 -0.8037 -0.1225
  121OSM   H14F12877   1.315   2.957   9.243 -0.5329 -1.3123 -0.4473
  121OSM   H14G12878   1.324   3.117   9.229  2.1904 -2.9458 -0.6192
  121OSM   C15F12879   1.124   3.025   9.178  0.0403 -0.5746  0.6002
  121OSM   H15F12880   1.070   3.122   9.175  1.5813  0.3945  2.2689
  121OSM   H15G12881   1.060   2.955   9.237 -1.1023  1.8745  2.4316
  121OSM   C16F12882   1.135   2.971   9.035 -0.5824  0.3699  0.5032
  121OSM   H16F12883   1.042   2.995   8.979 -1.7247 -1.3743  1.5574
  121OSM   H16G12884   1.142   2.861   9.035 -0.0533  0.3817 -0.9277
  121OSM   C17F12885   1.248   3.042   8.955  0.3935  0.1847 -0.0017
  121OSM   H17F12886   1.334   3.034   9.024  2.4704 -0.4431 -2.5258
  121OSM   H17G12887   1.229   3.151   8.951  0.5969  0.2757  1.0983
  121OSM   C18F12888   1.291   2.982   8.822  0.0763  0.6003  0.2474
  121OSM   H18F12889   1.371   3.039   8.771 -0.2281  0.0527 -0.8771
  121OSM   H18G12890   1.214   2.987   8.742 -1.3372  0.2036  1.5323
  121OSM   H18H12891   1.318   2.875   8.834  0.1776  0.0211 -3.9215
  122OSM      N12892   0.695   1.827  11.110 -0.0555 -0.0222 -0.4597
  122OSM    C1512893   0.628   1.694  11.153  0.7792  0.2332 -0.7381
  122OSM   H15A12894   0.545   1.686  11.084 -0.7899  0.0507  1.1058
  122OSM   H15B12895   0.591   1.687  11.254  3.8759  0.6786  0.5479
  122OSM   H15C12896   0.702   1.615  11.143  2.1527  1.0725  1.7584
  122OSM    C1412897   0.609   1.948  11.144  0.8121  0.0040  1.1431
  122OSM   H14A12898   0.540   1.967  11.063 -0.4860 -0.4268  2.1167
  122OSM   H14B12899   0.670   2.036  11.156  0.6451  0.4606 -0.9348
  122OSM   H14C12900   0.555   1.934  11.236 -0.2144 -2.6218  0.2402
  122OSM    C1312901   0.817   1.846  11.197  0.5383  0.7313  0.7427
  122OSM   H13A12902   0.788   1.857  11.300  2.1592 -0.1141  1.3197
  122OSM   H13B12903   0.881   1.929  11.171  1.8206  0.1739  1.9566
  122OSM   H13C12904   0.883   1.761  11.201  0.3008  0.3609 -1.5545
  122OSM    C1212905   0.731   1.822  10.963  0.1014 -0.0050  0.3834
  122OSM   H12A12906   0.809   1.751  10.942  0.0513  0.5637 -1.9926
  122OSM   H12B12907   0.771   1.919  10.938 -0.5965  0.2000  0.0250
  122OSM    C1112908   0.628   1.800  10.855 -0.2268 -0.4364  0.3989
  122OSM   H11A12909   0.557   1.723  10.893 -0.7635  0.6834  1.7508
  122OSM   H11B12910   0.679   1.762  10.764  0.2073 -0.1358  0.5129
  122OSM      P12911   0.418   1.952  10.800  0.1217  0.4392 -0.2884
  122OSM    O1312912   0.341   1.847  10.869  0.3064 -0.2120 -0.4351
  122OSM    O1412913   0.379   2.091  10.832  0.4226 -0.4808  0.8875
  122OSM    O1112914   0.394   1.934  10.642 -0.6055 -0.1795 -0.3868
  122OSM    O1212915   0.573   1.929  10.830 -0.1867 -0.4262  0.1285
  122OSM    C1S12916   0.480   1.879  10.545 -0.2514 -0.1197  0.9579
  122OSM    H1S12917   0.459   1.770  10.532  2.3081 -0.4081 -2.2137
  122OSM    H1T12918   0.588   1.899  10.562  0.0456 -1.5434  0.9086
  122OSM     NF12919   0.538   1.871  10.312  0.5255 -0.1552  0.0232
  122OSM    HNF12920   0.613   1.930  10.282 -0.8779  1.5949 -0.2193
  122OSM    C2S12921   0.458   1.945  10.409 -0.1084  0.2361  0.2402
  122OSM    H2S12922   0.353   1.918  10.386 -0.3271  1.4714 -0.2688
  122OSM    C3S12923   0.489   2.099  10.411 -0.4243  0.7834  0.3353
  122OSM    H3S12924   0.600   2.103  10.397 -0.0235 -3.0291  1.3194
  122OSM     O312925   0.455   2.184  10.524 -0.4750  1.0723 -0.4980
  122OSM    HO312926   0.411   2.114  10.574 -0.8687  2.8869  1.8595
  122OSM    C4S12927   0.434   2.151  10.281  0.0260  0.0665  0.4950
  122OSM    H4S12928   0.509   2.151  10.201  0.2423 -1.3226  0.6766
  122OSM    C5S12929   0.325   2.223  10.270 -1.1009 -0.3635  0.2878
  122OSM    H5S12930   0.263   2.254  10.355 -0.3137 -0.0087  0.7476
  122OSM    C6S12931   0.273   2.286  10.145  0.0258 -0.3358 -0.6363
  122OSM    H6S12932   0.326   2.381  10.123  0.2807 -0.8727 -2.6074
  122OSM    H6T12933   0.164   2.306  10.148 -0.0070 -0.5660 -0.2974
  122OSM    C7S12934   0.276   2.205  10.014 -0.3168 -0.9413  0.2413
  122OSM    H7S12935   0.182   2.146  10.012 -0.6192 -0.4681  0.3289
  122OSM    H7T12936   0.369   2.144  10.013  0.0512 -0.4168  1.4557
  122OSM    C8S12937   0.287   2.298   9.893 -0.8694  0.4538  0.1018
  122OSM    H8S12938   0.390   2.323   9.860 -1.5094 -0.1179 -2.5321
  122OSM    H8T12939   0.223   2.388   9.900 -2.1201 -0.4892  2.0050
  122OSM    C9S12940   0.244   2.223   9.766 -0.0225  0.0190  0.7301
  122OSM    H9S12941   0.134   2.213   9.758  0.1636 -0.5713 -2.3076
  122OSM    H9T12942   0.294   2.124   9.759 -0.4413 -0.1127 -1.0158
  122OSM   C10S12943   0.290   2.297   9.639  0.3679  0.4119  0.6602
  122OSM   H10S12944   0.393   2.259   9.618  0.2332 -0.0592  0.8261
  122OSM   H10T12945   0.299   2.405   9.659  0.0255  0.4601  0.5494
  122OSM   C11S12946   0.202   2.269   9.517 -0.4445  0.4184 -0.4840
  122OSM   H11S12947   0.102   2.311   9.538 -0.1970 -0.6129  3.7635
  122OSM   H11T12948   0.203   2.159   9.502  3.0503  0.2671 -0.0626
  122OSM   C12S12949   0.264   2.331   9.385 -0.0037  0.1967 -0.2881
  122OSM   H12S12950   0.373   2.319   9.372 -0.0396  0.4561 -0.8668
  122OSM   H12T12951   0.248   2.436   9.415  0.5022 -0.4767  2.6542
  122OSM   C13S12952   0.193   2.304   9.251  0.1630 -0.0994 -1.0835
  122OSM   H13S12953   0.085   2.324   9.265  0.5313  1.0992  0.2931
  122OSM   H13T12954   0.196   2.198   9.218 -0.5648 -1.1392  1.8380
  122OSM   C14S12955   0.252   2.397   9.138  1.4171  0.4311 -0.2272
  122OSM   H14S12956   0.358   2.366   9.146  0.4856 -2.8462  1.5848
  122OSM   H14T12957   0.233   2.497   9.181 -0.3802 -0.8110  2.1429
  122OSM   C15S12958   0.185   2.374   9.003  0.5452  0.1424 -0.4859
  122OSM   H15S12959   0.077   2.391   9.024  0.4565  1.1338 -1.5896
  122OSM   H15T12960   0.207   2.274   8.960  1.1855 -0.2905  0.7965
  122OSM   C16S12961   0.223   2.493   8.909 -0.1279 -0.0870  0.6620
  122OSM   H16S12962   0.331   2.506   8.887 -0.2663  1.4082  0.7596
  122OSM   H16T12963   0.201   2.584   8.969  1.2891 -0.2721  1.5049
  122OSM   C17S12964   0.139   2.490   8.776  0.4621 -0.1701  0.6368
  122OSM   H17S12965   0.161   2.393   8.728  0.2135 -0.4180  1.0148
  122OSM   H17T12966   0.180   2.576   8.719 -0.0680 -0.1459  0.2784
  122OSM   C18S12967  -0.009   2.512   8.804  0.3267  0.4692 -0.1604
  122OSM   H18S12968  -0.073   2.526   8.715 -1.5029 -3.6042  0.3016
  122OSM   H18T12969  -0.025   2.605   8.864  1.5536  2.1478 -2.2776
  122OSM   H18U12970  -0.058   2.425   8.851  0.6420 -0.8675 -2.1814
  122OSM    C1F12971   0.524   1.740  10.290 -0.3284  0.9001 -0.0630
  122OSM     OF12972   0.429   1.669  10.326 -0.0951 -0.2839 -0.1763
  122OSM    C2F12973   0.631   1.681  10.202  0.0514  0.4823 -0.1322
  122OSM    H2F12974   0.713   1.636  10.261 -2.6812 -4.8739  0.1736
  122OSM    H2G12975   0.668   1.764  10.138  1.1171  0.6357  0.6509
  122OSM    C3F12976   0.581   1.563  10.117  0.0571  0.3226 -0.2487
  122OSM    H3F12977   0.549   1.483  10.187 -1.8740  1.7021  0.5099
  122OSM    H3G12978   0.668   1.523  10.060  0.9754 -0.7246  1.7697
  122OSM    C4F12979   0.466   1.597  10.012 -0.3174  0.9031  0.0772
  122OSM    H4F12980   0.382   1.655  10.056 -2.6166 -1.0210 -1.5503
  122OSM    H4G12981   0.416   1.503   9.980 -0.9764  0.7282  1.5392
  122OSM    C5F12982   0.514   1.664   9.884  0.0320 -0.3301  0.6420
  122OSM    H5F12983   0.590   1.604   9.829 -0.7878 -2.2807  1.5258
  122OSM    H5G12984   0.558   1.764   9.903  0.3533 -0.6405  1.5992
  122OSM    C6F12985   0.393   1.691   9.782 -0.6959 -0.1979 -0.8305
  122OSM    H6F12986   0.314   1.755   9.826  0.8510  1.9962 -1.0617
  122OSM    H6G12987   0.359   1.591   9.751 -0.0936 -1.3348  1.9102
  122OSM    C7F12988   0.455   1.753   9.652 -0.0926  0.7794  0.4131
  122OSM    H7F12989   0.509   1.673   9.597  0.5061  0.1180  1.9257
  122OSM    H7G12990   0.534   1.823   9.689  0.2336 -0.4385  2.1482
  122OSM    C8F12991   0.340   1.814   9.573 -0.0409 -0.3049 -0.4587
  122OSM    H8F12992   0.377   1.889   9.501 -0.2624  0.2415 -0.0138
  122OSM    H8G12993   0.270   1.867   9.642  2.9081  1.0959  1.6674
  122OSM    C9F12994   0.264   1.704   9.501 -0.0189  0.9876 -0.0751
  122OSM    H9F12995   0.195   1.650   9.568 -0.0714  1.1172 -0.0236
  122OSM   C10F12996   0.260   1.669   9.375 -0.0607 -0.0079  0.5324
  122OSM   H10F12997   0.209   1.578   9.341  1.2273 -0.5532 -0.0063
  122OSM   C11F12998   0.330   1.745   9.266 -0.3691 -0.0510  0.1580
  122OSM   H11F12999   0.361   1.673   9.187  0.4373  0.6854 -0.2105
  122OSM   H11G13000   0.427   1.789   9.301 -1.2045  2.4538 -0.4902
  122OSM   C12F13001   0.254   1.865   9.197 -0.2981  0.5311  0.4319
  122OSM   H12F13002   0.244   1.939   9.279 -1.1515  0.2147  0.6222
  122OSM   H12G13003   0.147   1.844   9.176 -0.2775 -0.0174  0.8453
  122OSM   C13F13004   0.325   1.939   9.073 -0.4310  0.2006 -0.0598
  122OSM   H13F13005   0.266   2.028   9.043  1.2729  1.4535  0.1551
  122OSM   H13G13006   0.321   1.861   8.995 -0.7913 -0.6700  0.8166
  122OSM   C14F13007   0.467   1.979   9.090 -0.7523  0.5031  0.4947
  122OSM   H14F13008   0.537   1.896   9.112  2.7027  2.8765 -0.6735
  122OSM   H14G13009   0.468   2.039   9.183 -2.8186 -1.6264  2.0131
  122OSM   C15F13010   0.528   2.057   8.969 -0.0322  0.2632 -0.5418
  122OSM   H15F13011   0.633   2.083   8.993  0.0214  0.1650 -0.6704
  122OSM   H15G13012   0.469   2.149   8.948 -0.3444 -0.3067 -2.3289
  122OSM   C16F13013   0.532   1.978   8.840  0.2314 -0.4931 -0.6301
  122OSM   H16F13014   0.428   1.952   8.809 -0.3834  0.2026  0.7754
  122OSM   H16G13015   0.578   1.881   8.870 -0.9262 -0.4229  1.5738
  122OSM   C17F13016   0.611   2.045   8.726  0.8034 -0.5501  0.5162
  122OSM   H17F13017   0.636   1.972   8.646  1.8194 -0.2950  0.5815
  122OSM   H17G13018   0.710   2.074   8.767 -0.1031 -0.4622  2.7799
  122OSM   C18F13019   0.539   2.162   8.656 -0.4528 -0.0891  0.0221
  122OSM   H18F13020   0.536   2.249   8.725  0.0797  0.3442 -0.4879
  122OSM   H18G13021   0.433   2.130   8.645  0.0208 -1.5653 -0.5030
  122OSM   H18H13022   0.578   2.190   8.556 -0.6150  0.0905  0.0077
  123OSM      N13023   6.252   3.648   5.996 -0.3027  0.6589 -0.8151
  123OSM    C1513024   6.253   3.614   6.148 -0.2686 -0.8276  0.7118
  123OSM   H15A13025   6.354   3.602   6.185  0.5920  2.2049 -0.3478
  123OSM   H15B13026   6.183   3.535   6.172 -1.0667 -0.3595 -0.0322
  123OSM   H15C13027   6.205   3.701   6.192  1.0327 -0.6660  1.8811
  123OSM    C1413028   6.319   3.780   5.974  0.0746 -0.4049 -0.2033
  123OSM   H14A13029   6.338   3.791   5.868 -0.1175 -0.5765 -0.2559
  123OSM   H14B13030   6.409   3.791   6.033  0.2078  1.7879 -0.7352
  123OSM   H14C13031   6.248   3.856   6.002  1.6928  1.4111 -0.8128
  123OSM    C1313032   6.324   3.542   5.915  0.4364 -0.1158 -0.0143
  123OSM   H13A13033   6.429   3.536   5.942  0.7475  1.3589 -0.8081
  123OSM   H13B13034   6.319   3.566   5.810  2.3058  1.1634  0.1480
  123OSM   H13C13035   6.277   3.447   5.936  0.5356  0.2696  2.2540
  123OSM    C1213036   6.110   3.655   5.942 -0.1540  0.2195 -0.0784
  123OSM   H12A13037   6.062   3.558   5.938  0.3062 -0.0444  0.4352
  123OSM   H12B13038   6.121   3.680   5.838  0.6515  0.6186  0.0884
  123OSM    C1113039   6.023   3.763   6.010  0.1661  0.3049  0.3042
  123OSM   H11A13040   5.924   3.770   5.961  0.5882  2.9308 -0.3026
  123OSM   H11B13041   6.069   3.864   6.002  0.9547 -0.0371  0.4572
  123OSM      P13042   5.898   3.610   6.183 -0.0741 -0.2653  0.0290
  123OSM    O1313043   5.771   3.613   6.111 -0.4743 -0.4592 -0.1636
  123OSM    O1413044   5.973   3.480   6.174 -0.0904  0.0241 -0.1972
  123OSM    O1113045   5.854   3.631   6.328  0.6712  0.0570 -0.2127
  123OSM    O1213046   5.995   3.733   6.149  0.0067 -0.4836 -0.1596
  123OSM    C1S13047   5.823   3.760   6.392  0.1169  0.2940 -0.2092
  123OSM    H1S13048   5.729   3.807   6.355 -0.3396 -0.8517 -0.5565
  123OSM    H1T13049   5.905   3.833   6.377 -0.4198  0.7728 -0.9414
  123OSM     NF13050   5.758   3.848   6.620 -0.0877  0.2582 -0.2906
  123OSM    HNF13051   5.825   3.906   6.666 -0.9751  0.1927  1.1401
  123OSM    C2S13052   5.809   3.729   6.548  0.2621 -0.4227 -0.2020
  123OSM    H2S13053   5.743   3.640   6.560  0.6442 -0.6282  0.4377
  123OSM    C3S13054   5.947   3.683   6.610  0.2460  0.4566  0.1755
  123OSM    H3S13055   6.012   3.773   6.619 -0.9104  1.3376 -0.0081
  123OSM     O313056   6.004   3.582   6.530 -0.2562 -0.3610  0.2613
  123OSM    HO313057   5.948   3.588   6.453 -2.6266 -1.5839  1.7768
  123OSM    C4S13058   5.917   3.644   6.760 -0.4802  0.0292  0.4330
  123OSM    H4S13059   5.896   3.729   6.827 -1.2927  1.2499 -1.2950
  123OSM    C5S13060   5.909   3.521   6.806  0.1388  0.2778 -0.0380
  123OSM    H5S13061   5.926   3.438   6.735  3.0610  1.2989 -0.6928
  123OSM    C6S13062   5.878   3.474   6.945  0.3822 -0.2919 -0.0301
  123OSM    H6S13063   5.956   3.401   6.974  0.4724  0.5909  2.1074
  123OSM    H6T13064   5.782   3.417   6.945  0.1332  0.1020  1.2091
  123OSM    C7S13065   5.877   3.572   7.072 -0.0783  0.9850  0.4724
  123OSM    H7S13066   5.973   3.628   7.070 -0.0206  0.8706 -0.5545
  123OSM    H7T13067   5.871   3.500   7.156 -0.9750 -1.1653 -1.3325
  123OSM    C8S13068   5.758   3.671   7.068  0.7134 -0.2717  0.0165
  123OSM    H8S13069   5.667   3.608   7.071 -0.4611  1.3986  2.1798
  123OSM    H8T13070   5.758   3.737   6.979  0.9444  0.2812  0.4223
  123OSM    C9S13071   5.752   3.762   7.193 -0.0552  0.6982  0.2786
  123OSM    H9S13072   5.663   3.829   7.181 -1.4002 -1.3018 -1.5457
  123OSM    H9T13073   5.841   3.828   7.192 -0.1555  0.8627 -1.6426
  123OSM   C10S13074   5.753   3.692   7.326  0.3071 -0.5682  0.3763
  123OSM   H10S13075   5.836   3.619   7.321 -0.2810 -1.2755  0.7841
  123OSM   H10T13076   5.669   3.621   7.341  0.6592 -1.3551 -1.2455
  123OSM   C11S13077   5.770   3.791   7.444  0.6834  0.3719  0.7365
  123OSM   H11S13078   5.670   3.841   7.450 -0.1753 -0.9686 -1.3245
  123OSM   H11T13079   5.844   3.868   7.414 -1.8710  1.7335 -2.6325
  123OSM   C12S13080   5.816   3.717   7.572 -0.1383 -0.1506  0.4485
  123OSM   H12S13081   5.886   3.638   7.537  0.1316  0.2400  0.0871
  123OSM   H12T13082   5.737   3.662   7.627 -0.9144  0.3350 -0.1544
  123OSM   C13S13083   5.882   3.805   7.684 -0.0228  0.7787  0.0241
  123OSM   H13S13084   5.815   3.888   7.716 -0.5652  0.2961  0.1694
  123OSM   H13T13085   5.973   3.848   7.638  0.7823 -0.8525  0.0260
  123OSM   C14S13086   5.919   3.709   7.803  0.2864 -0.7372  0.1977
  123OSM   H14S13087   6.019   3.670   7.774  0.1464 -0.6807 -0.3577
  123OSM   H14T13088   5.855   3.617   7.803  1.7322 -1.8108 -2.1151
  123OSM   C15S13089   5.935   3.771   7.939  0.0813 -0.1399 -0.8517
  123OSM   H15S13090   5.845   3.815   7.988 -0.8421 -1.6093 -1.1823
  123OSM   H15T13091   6.009   3.854   7.932  1.7733 -1.6750 -2.1141
  123OSM   C16S13092   5.994   3.682   8.046  0.1932  0.4407  0.0049
  123OSM   H16S13093   6.094   3.654   8.008  0.3343  0.1729  0.5625
  123OSM   H16T13094   5.940   3.586   8.053  1.2574 -0.1266  0.6876
  123OSM   C17S13095   6.003   3.742   8.190  0.4242  0.2999  0.4848
  123OSM   H17S13096   6.040   3.665   8.262  3.3690  1.5772  0.4935
  123OSM   H17T13097   5.898   3.770   8.212 -0.0384 -0.2593 -0.9322
  123OSM   C18S13098   6.085   3.865   8.212  0.4818 -0.4987 -0.0441
  123OSM   H18S13099   6.059   3.944   8.138 -0.2500 -0.2842  0.4263
  123OSM   H18T13100   6.189   3.828   8.204  0.2650 -1.0532 -0.3576
  123OSM   H18U13101   6.073   3.914   8.311  1.0552 -0.6216  0.0870
  123OSM    C1F13102   5.637   3.903   6.601  0.0138  0.1458  0.4876
  123OSM     OF13103   5.547   3.844   6.548  0.1611  0.1476 -0.1788
  123OSM    C2F13104   5.626   4.050   6.633 -0.1451 -0.4116  1.1968
  123OSM    H2F13105   5.607   4.106   6.539 -1.8283 -0.4536  1.4745
  123OSM    H2G13106   5.725   4.083   6.669 -0.1715 -1.6095  2.4365
  123OSM    C3F13107   5.515   4.081   6.733 -0.4500  0.5553  0.1105
  123OSM    H3F13108   5.418   4.043   6.694 -0.7016  0.8658  0.4309
  123OSM    H3G13109   5.508   4.191   6.730  1.6272  0.7560  0.9914
  123OSM    C4F13110   5.544   4.039   6.884  0.0988  0.4462 -0.3014
  123OSM    H4F13111   5.588   3.938   6.895 -1.0080  0.2345  3.4620
  123OSM    H4G13112   5.442   4.030   6.926  1.1628 -1.2807  2.1571
  123OSM    C5F13113   5.631   4.140   6.953 -0.7409 -0.7598 -0.1844
  123OSM    H5F13114   5.577   4.236   6.958 -0.0874 -0.1725 -2.9080
  123OSM    H5G13115   5.718   4.159   6.886 -0.5344 -1.2282 -0.0587
  123OSM    C6F13116   5.688   4.086   7.078 -0.0077 -0.4352  0.0777
  123OSM    H6F13117   5.774   4.026   7.044  0.9084  0.3522  0.9592
  123OSM    H6G13118   5.615   4.017   7.126 -0.6496 -1.1496 -1.8212
  123OSM    C7F13119   5.736   4.194   7.175 -0.1755  0.0460  0.3975
  123OSM    H7F13120   5.651   4.265   7.176  0.5868  1.0102 -0.6372
  123OSM    H7G13121   5.824   4.245   7.131 -0.3824 -0.0457 -0.1198
  123OSM    C8F13122   5.751   4.152   7.323 -0.7624  0.2659 -0.2299
  123OSM    H8F13123   5.821   4.067   7.331 -1.6246 -0.3184  1.6353
  123OSM    H8G13124   5.652   4.119   7.362 -1.0615  3.2095  1.8742
  123OSM    C9F13125   5.775   4.271   7.411  0.1724 -0.0271 -0.3736
  123OSM    H9F13126   5.716   4.360   7.386  0.4857  0.5889  0.9675
  123OSM   C10F13127   5.865   4.277   7.513  1.8633  0.7583 -0.1683
  123OSM   H10F13128   5.869   4.369   7.573  3.0629 -0.0115  0.9667
  123OSM   C11F13129   5.948   4.167   7.570  0.2457  0.2108 -0.1627
  123OSM   H11F13130   6.005   4.107   7.496  1.4609  0.1663  0.7798
  123OSM   H11G13131   5.886   4.097   7.630 -1.2733  1.7811  0.1628
  123OSM   C12F13132   6.041   4.235   7.670  0.1684  0.7612  0.3765
  123OSM   H12F13133   5.986   4.278   7.756  0.4954  0.1153  0.9213
  123OSM   H12G13134   6.101   4.308   7.611  2.2048 -0.9822  0.1600
  123OSM   C13F13135   6.132   4.133   7.754  0.1513 -0.3142  0.3066
  123OSM   H13F13136   6.175   4.066   7.677 -1.8028 -1.1370 -0.1195
  123OSM   H13G13137   6.068   4.068   7.817 -0.5183  0.5715  0.5688
  123OSM   C14F13138   6.239   4.216   7.821  0.3944 -0.9056 -0.5961
  123OSM   H14F13139   6.192   4.301   7.875  1.4958 -1.3414  1.1110
  123OSM   H14G13140   6.309   4.256   7.744  1.2746 -0.6305  0.3213
  123OSM   C15F13141   6.310   4.143   7.929 -0.2467  0.4802  0.8775
  123OSM   H15F13142   6.363   4.058   7.881 -2.0436  0.2754 -0.8686
  123OSM   H15G13143   6.242   4.099   8.005 -0.4870  0.5435  0.7002
  123OSM   C16F13144   6.420   4.235   7.986  0.4839 -1.2328 -0.0068
  123OSM   H16F13145   6.362   4.320   8.028 -0.8303 -0.5187 -3.0314
  123OSM   H16G13146   6.488   4.274   7.908  0.7060 -0.3774  0.6043
  123OSM   C17F13147   6.512   4.170   8.089 -0.5303  0.2137 -0.1196
  123OSM   H17F13148   6.563   4.088   8.035 -2.0920  0.2077 -1.6891
  123OSM   H17G13149   6.450   4.126   8.169  0.1295 -2.6033 -1.0467
  123OSM   C18F13150   6.612   4.267   8.162  0.0050  1.3192  0.1592
  123OSM   H18F13151   6.690   4.313   8.097 -0.2256 -0.0027 -1.1238
  123OSM   H18G13152   6.670   4.221   8.245  0.3526  0.1346 -0.7132
  123OSM   H18H13153   6.555   4.352   8.205 -0.9529  1.3341 -1.0649
  124OSM      N13154   3.839   4.719   6.296  0.2224  0.8639  0.0899
  124OSM    C1513155   3.783   4.697   6.436 -0.0244 -0.8655  0.0810
  124OSM   H15A13156   3.689   4.749   6.444  0.4128  0.0737 -0.7164
  124OSM   H15B13157   3.850   4.725   6.516 -1.6831 -0.3130  1.3334
  124OSM   H15C13158   3.764   4.591   6.449 -1.5983 -0.8688 -1.8513
  124OSM    C1413159   3.974   4.656   6.275  0.4136 -0.3741  0.9202
  124OSM   H14A13160   3.979   4.549   6.280  0.3866 -0.3934  0.5604
  124OSM   H14B13161   4.043   4.696   6.348  1.2438 -0.4801  0.2170
  124OSM   H14C13162   4.016   4.674   6.177  0.9151  0.6124  1.3030
  124OSM    C1313163   3.738   4.650   6.207 -0.4726 -0.3377 -0.5295
  124OSM   H13A13164   3.746   4.545   6.230  1.6715 -0.6085 -2.2060
  124OSM   H13B13165   3.757   4.679   6.105  0.5890 -1.6636 -0.7427
  124OSM   H13C13166   3.640   4.684   6.238  0.5102  0.6680  1.6901
  124OSM    C1213167   3.842   4.864   6.260  0.1950  0.0286 -0.2257
  124OSM   H12A13168   3.910   4.889   6.180  1.4463 -0.7580  0.5715
  124OSM   H12B13169   3.883   4.915   6.346 -0.5652  0.2487  0.0156
  124OSM    C1113170   3.705   4.928   6.237  0.6895  0.1093 -0.0890
  124OSM   H11A13171   3.651   4.892   6.147 -1.1692  0.5236  0.8093
  124OSM   H11B13172   3.731   5.032   6.210  0.0402  0.0574 -0.9381
  124OSM      P13173   3.465   4.935   6.376 -0.0325  0.0606  0.3881
  124OSM    O1313174   3.423   5.074   6.341  0.0123  0.2314  0.6079
  124OSM    O1413175   3.405   4.830   6.284  0.2630 -0.9294  0.0038
  124OSM    O1113176   3.440   4.920   6.536 -0.1220  0.0639  0.1965
  124OSM    O1213177   3.618   4.918   6.354 -0.9072  0.5052 -0.0549
  124OSM    C1S13178   3.548   4.982   6.625  0.0835  0.1317 -0.0086
  124OSM    H1S13179   3.527   5.090   6.638  0.0110  0.3958 -2.0378
  124OSM    H1T13180   3.649   4.954   6.589 -0.4446 -1.0385 -0.6598
  124OSM     NF13181   3.654   4.963   6.860  0.4002 -0.6106 -0.2598
  124OSM    HNF13182   3.742   4.920   6.880 -0.5433 -1.8805  1.3380
  124OSM    C2S13183   3.555   4.903   6.762  0.5749 -0.1299 -0.3445
  124OSM    H2S13184   3.452   4.928   6.798  0.4455 -0.0503 -0.7660
  124OSM    C3S13185   3.578   4.752   6.753  0.9715  0.0951  0.6060
  124OSM    H3S13186   3.679   4.739   6.707  0.8902  0.1087  0.4212
  124OSM     O313187   3.473   4.684   6.672  0.2260 -0.5599  0.3084
  124OSM    HO313188   3.448   4.746   6.603  2.0521 -1.3206 -1.1253
  124OSM    C4S13189   3.576   4.684   6.886  0.1625  0.1824 -0.7980
  124OSM    H4S13190   3.660   4.616   6.907 -0.0818 -0.1475 -0.8683
  124OSM    C5S13191   3.474   4.664   6.976 -0.6872 -0.0174  0.3745
  124OSM    H5S13192   3.373   4.695   6.948 -1.3241 -0.6201  1.8953
  124OSM    C6S13193   3.491   4.577   7.096  0.5063  0.7259 -0.0279
  124OSM    H6S13194   3.534   4.478   7.073  0.5989 -0.2572  3.6686
  124OSM    H6T13195   3.386   4.562   7.131  0.7084 -0.1163  0.2368
  124OSM    C7S13196   3.589   4.635   7.200  0.4944  0.6265 -0.5288
  124OSM    H7S13197   3.693   4.649   7.163  1.3992  2.2671  2.3339
  124OSM    H7T13198   3.610   4.556   7.274  1.1438  0.9221 -0.3920
  124OSM    C8S13199   3.536   4.751   7.279  0.1049 -0.0848 -0.6023
  124OSM    H8S13200   3.432   4.724   7.306  0.4366 -1.0503 -0.2453
  124OSM    H8T13201   3.541   4.839   7.211 -0.4374  1.1614  0.9188
  124OSM    C9S13202   3.603   4.775   7.421  0.0964  0.3518 -0.5626
  124OSM    H9S13203   3.586   4.880   7.454  1.4763  0.4983 -0.2554
  124OSM    H9T13204   3.712   4.765   7.405  0.0294 -4.0650  0.5932
  124OSM   C10S13205   3.563   4.671   7.535 -0.0112  0.1316  0.0339
  124OSM   H10S13206   3.552   4.570   7.491 -1.2046 -0.2498  1.1321
  124OSM   H10T13207   3.459   4.700   7.561 -0.1771 -0.8332  0.4886
  124OSM   C11S13208   3.660   4.664   7.658  0.5595  0.4952  0.5524
  124OSM   H11S13209   3.763   4.661   7.617  0.1642  0.1212 -0.4404
  124OSM   H11T13210   3.650   4.568   7.713  3.2375 -1.5042 -2.1530
  124OSM   C12S13211   3.631   4.779   7.757  0.1537 -0.0278  0.4543
  124OSM   H12S13212   3.535   4.771   7.812 -0.4984  0.4118 -0.5961
  124OSM   H12T13213   3.636   4.881   7.715  1.1162  0.1951  1.0548
  124OSM   C13S13214   3.739   4.784   7.874  0.0819  0.7245 -0.1325
  124OSM   H13S13215   3.745   4.878   7.932  0.7615 -0.7049  2.2474
  124OSM   H13T13216   3.835   4.778   7.818  0.9510  3.0811  0.9693
  124OSM   C14S13217   3.730   4.676   7.979 -0.0418  0.3471 -0.3563
  124OSM   H14S13218   3.824   4.668   8.038 -0.1948 -1.6502 -0.3400
  124OSM   H14T13219   3.704   4.582   7.925 -2.3324  1.2963 -1.0242
  124OSM   C15S13220   3.621   4.701   8.075  0.2707  0.7385 -0.5348
  124OSM   H15S13221   3.522   4.687   8.026 -1.2071  1.9749  1.8935
  124OSM   H15T13222   3.610   4.804   8.114 -1.2589  0.2601  0.4184
  124OSM   C16S13223   3.627   4.608   8.194  0.5384 -0.4831  0.4050
  124OSM   H16S13224   3.731   4.599   8.233  1.0540  1.9873 -0.1960
  124OSM   H16T13225   3.593   4.508   8.161 -0.7624  0.2199 -0.4812
  124OSM   C17S13226   3.542   4.659   8.310 -0.5267 -0.0414  0.1992
  124OSM   H17S13227   3.573   4.765   8.321  0.5676 -0.4637  1.4073
  124OSM   H17T13228   3.568   4.610   8.406 -0.1963 -0.4145 -0.0735
  124OSM   C18S13229   3.395   4.676   8.283  0.0670  0.0626 -0.4952
  124OSM   H18S13230   3.382   4.729   8.186  0.6008 -1.2279 -1.2983
  124OSM   H18T13231   3.347   4.725   8.371  2.4937 -0.5297  1.2487
  124OSM   H18U13232   3.352   4.576   8.265  0.4904 -0.2425  0.1584
  124OSM    C1F13233   3.637   5.090   6.909  0.3883  0.0725 -0.0859
  124OSM     OF13234   3.538   5.150   6.875  0.4535  0.4392 -0.7467
  124OSM    C2F13235   3.728   5.144   7.017 -0.5595 -0.3710 -0.2074
  124OSM    H2F13236   3.664   5.177   7.101 -1.2655  0.5901 -1.1079
  124OSM    H2G13237   3.781   5.236   6.983 -0.2878 -0.5836 -0.3696
  124OSM    C3F13238   3.820   5.031   7.052 -0.5023  0.0426 -0.6425
  124OSM    H3F13239   3.890   5.003   6.971  1.5013 -3.5157  2.0099
  124OSM    H3G13240   3.765   4.938   7.079  2.0139 -1.2673  0.3610
  124OSM    C4F13241   3.910   5.058   7.175  0.1324  0.3399  0.5247
  124OSM    H4F13242   3.969   5.151   7.155  1.8264 -0.7340  0.3430
  124OSM    H4G13243   3.987   4.978   7.179  0.3892  0.5714  0.2838
  124OSM    C5F13244   3.838   5.075   7.316 -0.2002 -0.1029  0.3635
  124OSM    H5F13245   3.813   4.973   7.353  0.7954 -0.9064 -1.0704
  124OSM    H5G13246   3.738   5.112   7.286 -0.0576 -0.6411 -0.8180
  124OSM    C6F13247   3.902   5.162   7.425  0.5010  0.1173  0.2200
  124OSM    H6F13248   4.012   5.152   7.428  0.7058 -0.2524 -3.6176
  124OSM    H6G13249   3.871   5.117   7.522 -0.7166  0.8907  0.2105
  124OSM    C7F13250   3.843   5.301   7.416 -0.4659 -0.2864  0.1368
  124OSM    H7F13251   3.742   5.314   7.459  0.0485  0.6613  1.0992
  124OSM    H7G13252   3.857   5.315   7.307  0.6548  0.8547  0.4008
  124OSM    C8F13253   3.933   5.390   7.507 -0.6945  0.2772  0.4227
  124OSM    H8F13254   4.039   5.371   7.480 -0.1874  1.3740  1.5342
  124OSM    H8G13255   3.928   5.366   7.615  3.2440  0.8657  0.8647
  124OSM    C9F13256   3.914   5.539   7.479 -0.1315  0.5929  0.5902
  124OSM    H9F13257   3.991   5.594   7.422  1.1219  1.3167  2.8800
  124OSM   C10F13258   3.817   5.615   7.534 -0.5660  0.5661  0.5861
  124OSM   H10F13259   3.815   5.723   7.514  0.5130  0.7817  1.4990
  124OSM   C11F13260   3.715   5.576   7.628  0.6546  0.3469 -0.2105
  124OSM   H11F13261   3.717   5.466   7.643 -2.4527  0.3375  1.0728
  124OSM   H11G13262   3.615   5.605   7.588  0.2491 -2.5731 -1.5528
  124OSM   C12F13263   3.704   5.647   7.763 -0.2259  0.2508 -0.5447
  124OSM   H12F13264   3.610   5.618   7.814 -0.8822 -0.0942 -1.8836
  124OSM   H12G13265   3.691   5.757   7.753 -2.8825 -0.0277 -0.9442
  124OSM   C13F13266   3.826   5.603   7.852  0.3739  0.7195 -0.2718
  124OSM   H13F13267   3.928   5.603   7.809  1.1707  0.6469  1.5217
  124OSM   H13G13268   3.808   5.497   7.877 -0.1432  0.3407 -2.1430
  124OSM   C14F13269   3.842   5.684   7.981  0.1430 -0.0671 -0.5762
  124OSM   H14F13270   3.872   5.787   7.951 -2.2010  2.1859  3.7794
  124OSM   H14G13271   3.927   5.650   8.043 -0.4300 -1.0218 -0.2995
  124OSM   C15F13272   3.726   5.676   8.084 -0.1003  0.1322  0.1099
  124OSM   H15F13273   3.697   5.569   8.095  1.9289 -0.7066 -1.9084
  124OSM   H15G13274   3.644   5.730   8.033 -0.1637 -0.2192 -0.1654
  124OSM   C16F13275   3.762   5.738   8.223 -0.0829  0.6184  0.9935
  124OSM   H16F13276   3.670   5.790   8.259  0.4915  1.4854  1.2467
  124OSM   H16G13277   3.832   5.820   8.197 -0.5902  1.2268  1.4919
  124OSM   C17F13278   3.808   5.634   8.324 -0.2469 -0.6012  0.4427
  124OSM   H17F13279   3.851   5.550   8.265 -3.2491 -0.2274 -2.5695
  124OSM   H17G13280   3.707   5.605   8.363 -0.7394  0.0553 -0.3193
  124OSM   C18F13281   3.903   5.678   8.435 -0.3024  0.4280  0.4433
  124OSM   H18F13282   3.844   5.752   8.493 -0.9993  0.3671 -0.1811
  124OSM   H18G13283   3.990   5.722   8.382  1.6683 -1.7226  1.6812
  124OSM   H18H13284   3.938   5.588   8.490  2.0659  1.6679  1.1330
  125OSM      N13285   0.790   1.441   5.901 -0.9940  0.6793  0.5013
  125OSM    C1513286   0.926   1.442   5.840 -0.4009  0.6829  0.0136
  125OSM   H15A13287   0.930   1.498   5.748 -0.4370 -0.2491 -0.5721
  125OSM   H15B13288   0.975   1.347   5.821 -2.2820 -0.8346  2.0681
  125OSM   H15C13289   0.994   1.469   5.919 -0.8748 -0.2051  0.7479
  125OSM    C1413290   0.752   1.580   5.947 -0.0260 -1.0576 -0.5359
  125OSM   H14A13291   0.651   1.593   5.983 -0.0132 -0.4971 -0.6927
  125OSM   H14B13292   0.760   1.645   5.861  0.5433  0.5711  0.7026
  125OSM   H14C13293   0.830   1.621   6.010  0.5401 -1.9075 -0.6675
  125OSM    C1313294   0.699   1.400   5.789  0.1613  0.2373  0.1461
  125OSM   H13A13295   0.709   1.298   5.754 -0.3060 -0.0526  0.8305
  125OSM   H13B13296   0.698   1.465   5.702 -2.7987  0.2865  0.0953
  125OSM   H13C13297   0.597   1.417   5.822  0.0899 -0.3202  0.2251
  125OSM    C1213298   0.791   1.353   6.028  0.0597 -0.1577  0.9048
  125OSM   H12A13299   0.808   1.250   6.001  0.7257 -0.4854  2.4685
  125OSM   H12B13300   0.696   1.356   6.079  0.5722 -2.0169  2.0436
  125OSM    C1113301   0.889   1.388   6.138  0.2676  0.4599 -0.4529
  125OSM   H11A13302   0.864   1.325   6.226 -0.7009  0.7432 -0.5204
  125OSM   H11B13303   0.870   1.493   6.171  0.0540  0.1220  0.5426
  125OSM      P13304   1.126   1.275   6.124 -0.1714 -0.3693  0.0966
  125OSM    O1313305   1.058   1.165   6.200 -0.5758 -0.3164 -0.5217
  125OSM    O1413306   1.202   1.242   6.005 -0.3585  0.0302  0.1603
  125OSM    O1113307   1.233   1.342   6.221  0.5066 -0.8871 -0.2312
  125OSM    O1213308   1.026   1.390   6.097  0.3362  0.1989  0.4781
  125OSM    C1S13309   1.187   1.438   6.324 -0.2944  0.1764 -0.7562
  125OSM    H1S13310   1.085   1.419   6.364 -0.3936  0.7404 -0.7440
  125OSM    H1T13311   1.192   1.539   6.280  0.5475  0.8104  0.7278
  125OSM     NF13312   1.233   1.528   6.551  0.8066  0.3466  0.3425
  125OSM    HNF13313   1.277   1.617   6.557  2.1630 -0.2917  0.2943
  125OSM    C2S13314   1.284   1.441   6.445  0.7077 -0.3288  0.5360
  125OSM    H2S13315   1.281   1.338   6.485 -1.8719 -0.2344  0.7446
  125OSM    C3S13316   1.432   1.479   6.401  0.7943  0.6465 -0.1462
  125OSM    H3S13317   1.431   1.588   6.382  0.1782  0.9666  1.5651
  125OSM     O313318   1.475   1.414   6.277 -0.4532 -0.2836  0.1086
  125OSM    HO313319   1.392   1.374   6.248 -0.0798 -0.1155 -1.2418
  125OSM    C4S13320   1.532   1.456   6.514  0.2251 -0.3409  0.4563
  125OSM    H4S13321   1.562   1.552   6.560 -1.7709  1.2731 -1.4007
  125OSM    C5S13322   1.581   1.344   6.566  0.6423  0.5276 -0.1398
  125OSM    H5S13323   1.533   1.250   6.537 -2.6393  0.5816  4.2472
  125OSM    C6S13324   1.680   1.319   6.676 -0.5392  0.0202 -0.9888
  125OSM    H6S13325   1.753   1.249   6.631 -1.1585 -1.3243  0.0138
  125OSM    H6T13326   1.629   1.261   6.756  1.9928 -1.8884 -0.6357
  125OSM    C7S13327   1.750   1.444   6.734 -0.1426  0.6639  0.1948
  125OSM    H7S13328   1.679   1.519   6.774  1.7149  2.5719  0.1092
  125OSM    H7T13329   1.809   1.494   6.654  1.1488  2.0949  1.9648
  125OSM    C8S13330   1.840   1.412   6.854  0.2534 -0.8510  0.2269
  125OSM    H8S13331   1.921   1.487   6.866 -0.7962 -0.0608  3.3398
  125OSM    H8T13332   1.886   1.312   6.837  0.7331 -0.7900  1.1184
  125OSM    C9S13333   1.763   1.414   6.989  0.7944  0.4252 -0.5663
  125OSM    H9S13334   1.711   1.317   7.004  1.3697  0.5431  2.9613
  125OSM    H9T13335   1.684   1.491   6.981  1.4351  1.2016  0.2639
  125OSM   C10S13336   1.846   1.445   7.112  0.1033 -0.0294 -0.3836
  125OSM   H10S13337   1.884   1.549   7.127 -2.4413  0.5833  2.9827
  125OSM   H10T13338   1.941   1.388   7.110  0.6357  0.8257 -0.1503
  125OSM   C11S13339   1.766   1.412   7.236  0.0290 -0.4541  0.2692
  125OSM   H11S13340   1.729   1.308   7.228 -0.4350 -0.2151 -0.9072
  125OSM   H11T13341   1.671   1.470   7.243  0.9200  1.2868 -1.4110
  125OSM   C12S13342   1.844   1.426   7.362 -0.0595 -0.5659 -0.1263
  125OSM   H12S13343   1.857   1.532   7.393  2.1827 -0.2704 -1.8057
  125OSM   H12T13344   1.937   1.365   7.358  1.1548  1.2929 -1.9421
  125OSM   C13S13345   1.766   1.373   7.490  0.4082  0.2179  1.1425
  125OSM   H13S13346   1.771   1.262   7.493 -1.1921  0.1467  2.4373
  125OSM   H13T13347   1.661   1.408   7.497 -0.2348 -1.3515 -0.1127
  125OSM   C14S13348   1.838   1.413   7.619 -0.3214 -0.1826  0.3813
  125OSM   H14S13349   1.837   1.522   7.639 -2.2056  0.0800 -0.9064
  125OSM   H14T13350   1.943   1.380   7.599  0.3361  0.5686  2.4437
  125OSM   C15S13351   1.778   1.339   7.736  0.0746  0.0238  0.1545
  125OSM   H15S13352   1.861   1.344   7.810 -1.0729 -0.5731  1.5386
  125OSM   H15T13353   1.759   1.232   7.711 -1.9495  0.5284 -0.6241
  125OSM   C16S13354   1.651   1.406   7.790  0.1072  0.8520  0.4276
  125OSM   H16S13355   1.573   1.417   7.712  1.1615  1.2404 -0.6020
  125OSM   H16T13356   1.667   1.513   7.816 -1.4286  1.5570 -1.3594
  125OSM   C17S13357   1.601   1.339   7.923 -0.3592  0.4613 -0.1054
  125OSM   H17S13358   1.598   1.228   7.929 -0.6502  0.5126  0.8279
  125OSM   H17T13359   1.500   1.383   7.937 -0.0104  1.5763 -0.9492
  125OSM   C18S13360   1.695   1.377   8.038 -0.5435  0.0281 -0.3348
  125OSM   H18S13361   1.644   1.375   8.137 -0.0460  2.4168  0.0458
  125OSM   H18T13362   1.721   1.483   8.015  3.0151 -0.3735  1.1468
  125OSM   H18U13363   1.788   1.316   8.036  0.0049  0.8734 -1.6358
  125OSM    C1F13364   1.118   1.505   6.619 -0.1091 -0.3924 -0.3725
  125OSM     OF13365   1.062   1.399   6.608  0.1672  0.3566  0.2622
  125OSM    C2F13366   1.070   1.615   6.706  0.2514  0.2097  0.2736
  125OSM    H2F13367   1.101   1.714   6.664  1.3275  1.2738  3.2671
  125OSM    H2G13368   1.105   1.611   6.811 -1.3357  1.6997  0.9170
  125OSM    C3F13369   0.916   1.603   6.731 -0.1040 -0.0367  0.2844
  125OSM    H3F13370   0.881   1.500   6.751  1.5208 -1.0307 -1.5709
  125OSM    H3G13371   0.864   1.633   6.637 -0.6752 -1.2657  0.1871
  125OSM    C4F13372   0.870   1.710   6.838 -0.5028 -0.2550  0.3010
  125OSM    H4F13373   0.760   1.722   6.828 -0.3813  0.1207 -0.7174
  125OSM    H4G13374   0.909   1.813   6.832  1.0195 -0.8005  0.2651
  125OSM    C5F13375   0.913   1.660   6.984  0.0062  0.4458  0.3737
  125OSM    H5F13376   1.024   1.666   6.987  0.2067  0.5060 -3.1059
  125OSM    H5G13377   0.882   1.554   6.993 -1.9054  0.9858  0.5348
  125OSM    C6F13378   0.845   1.737   7.098 -0.0910  0.4995 -0.5874
  125OSM    H6F13379   0.739   1.707   7.109 -0.1206  0.3265 -1.3469
  125OSM    H6G13380   0.856   1.845   7.072 -1.6407  0.3298 -2.0586
  125OSM    C7F13381   0.931   1.714   7.230 -0.1462  0.8355  0.6569
  125OSM    H7F13382   1.020   1.770   7.197 -0.6848  2.2050  1.4469
  125OSM    H7G13383   0.943   1.604   7.241  2.2889  1.0467  0.4735
  125OSM    C8F13384   0.894   1.787   7.358 -0.3404 -0.2022  0.2680
  125OSM    H8F13385   0.882   1.896   7.343  2.5185  0.0747 -0.6376
  125OSM    H8G13386   0.974   1.794   7.435  2.1032  3.3444 -2.2973
  125OSM    C9F13387   0.762   1.725   7.413  0.9076 -0.2458 -0.8318
  125OSM    H9F13388   0.675   1.746   7.349  2.9129  1.6567 -3.1553
  125OSM   C10F13389   0.745   1.665   7.532 -0.5471  0.8967  0.2869
  125OSM   H10F13390   0.643   1.651   7.571 -0.5953 -0.6288 -0.3374
  125OSM   C11F13391   0.859   1.638   7.624 -0.1305 -0.2264 -0.3094
  125OSM   H11F13392   0.955   1.628   7.569  0.0888  1.3192 -0.2411
  125OSM   H11G13393   0.835   1.541   7.672  1.1212 -0.6531 -0.5034
  125OSM   C12F13394   0.887   1.734   7.746  0.0123 -0.0534  0.4425
  125OSM   H12F13395   0.856   1.836   7.716  0.5025 -0.5098 -1.8356
  125OSM   H12G13396   0.994   1.729   7.775 -0.1361 -3.0290  0.7536
  125OSM   C13F13397   0.810   1.703   7.875  0.0833  0.0896 -0.5402
  125OSM   H13F13398   0.811   1.594   7.895 -2.4743 -0.1901 -1.6172
  125OSM   H13G13399   0.704   1.727   7.853 -0.2417 -0.2875  0.5676
  125OSM   C14F13400   0.856   1.780   7.996 -0.0877 -0.5474 -0.6647
  125OSM   H14F13401   0.859   1.889   7.973 -1.5212 -0.0785  1.1674
  125OSM   H14G13402   0.960   1.755   8.027 -0.5355 -0.4410  1.0338
  125OSM   C15F13403   0.764   1.778   8.117  0.0226  0.7507 -0.0852
  125OSM   H15F13404   0.740   1.670   8.134  0.0856  0.7355 -0.0927
  125OSM   H15G13405   0.664   1.819   8.093  0.4374  1.4864 -0.5585
  125OSM   C16F13406   0.815   1.847   8.241  0.1888 -0.8385  0.3078
  125OSM   H16F13407   0.856   1.945   8.209 -2.7104 -0.0972 -1.5216
  125OSM   H16G13408   0.894   1.781   8.283  0.3435 -1.3480 -0.7492
  125OSM   C17F13409   0.703   1.879   8.344  0.4195 -0.6803 -0.1714
  125OSM   H17F13410   0.637   1.963   8.314 -1.6755 -1.9317  0.7446
  125OSM   H17G13411   0.744   1.926   8.436 -0.7424  0.2530 -0.1040
  125OSM   C18F13412   0.614   1.766   8.385 -1.0048  0.0645  0.1828
  125OSM   H18F13413   0.676   1.675   8.396 -0.4672 -0.1495 -3.3318
  125OSM   H18G13414   0.530   1.756   8.312 -2.5820  3.4081  1.3073
  125OSM   H18H13415   0.571   1.786   8.485  1.9915 -0.0106  1.5701
  126OSM      N13416   5.628   1.051   6.615 -0.6838 -0.7755 -0.1233
  126OSM    C1513417   5.685   1.197   6.622 -0.1789 -0.6355 -0.1330
  126OSM   H15A13418   5.787   1.197   6.584  0.9630  3.3674  2.3617
  126OSM   H15B13419   5.674   1.237   6.721 -1.4760 -0.0901 -0.4816
  126OSM   H15C13420   5.632   1.266   6.559  0.1649 -0.8803 -0.7059
  126OSM    C1413421   5.726   0.977   6.697  0.1446  0.3876 -0.1685
  126OSM   H14A13422   5.827   1.006   6.673  0.5267 -0.8721 -0.1872
  126OSM   H14B13423   5.715   0.870   6.685 -2.3286  0.6360 -0.7324
  126OSM   H14C13424   5.727   1.006   6.801  2.4431  0.3873 -0.1432
  126OSM    C1313425   5.495   1.044   6.670  0.0870 -0.0259 -0.3074
  126OSM   H13A13426   5.458   0.943   6.667 -0.3931  0.0281  1.8523
  126OSM   H13B13427   5.422   1.110   6.626 -0.6806 -1.0373 -0.5763
  126OSM   H13C13428   5.498   1.067   6.776 -1.0921 -0.9844 -0.0455
  126OSM    C1213429   5.635   1.005   6.473 -0.4577 -0.5047 -0.0089
  126OSM   H12A13430   5.741   1.009   6.455 -0.5216  2.6405 -0.2376
  126OSM   H12B13431   5.574   1.065   6.407 -0.4667  0.2984  0.7127
  126OSM    C1113432   5.600   0.857   6.441  0.7685  0.3384  0.0864
  126OSM   H11A13433   5.670   0.790   6.495  0.0044 -0.2195  0.4059
  126OSM   H11B13434   5.626   0.837   6.334  4.5902 -1.4135  1.1580
  126OSM      P13435   5.404   0.699   6.497  0.5944 -0.2651  0.1403
  126OSM    O1313436   5.271   0.715   6.554 -0.0119 -0.6478  0.0700
  126OSM    O1413437   5.405   0.603   6.389 -0.7287  0.7917 -0.1499
  126OSM    O1113438   5.509   0.638   6.607  0.0640  0.2742  0.1790
  126OSM    O1213439   5.467   0.840   6.459  0.3805 -0.4929  0.0039
  126OSM    C1S13440   5.469   0.658   6.741 -0.0562 -0.2912 -0.4435
  126OSM    H1S13441   5.365   0.629   6.769  1.5541 -2.6405  4.1317
  126OSM    H1T13442   5.476   0.764   6.776 -2.9682  0.0318 -0.5602
  126OSM     NF13443   5.521   0.584   6.983  0.1017 -0.1097 -0.0862
  126OSM    HNF13444   5.592   0.607   7.050  0.4980  0.5067 -0.7042
  126OSM    C2S13445   5.557   0.569   6.837  0.3564  0.4826 -0.1561
  126OSM    H2S13446   5.534   0.465   6.805  0.4785  0.7793 -1.2530
  126OSM    C3S13447   5.711   0.587   6.806 -0.2686 -0.1398 -0.1614
  126OSM    H3S13448   5.734   0.693   6.828 -1.1205  0.3333 -1.4349
  126OSM     O313449   5.752   0.576   6.670  0.2754  0.2587 -0.1838
  126OSM    HO313450   5.681   0.627   6.629  0.3809  1.0390  0.5663
  126OSM    C4S13451   5.783   0.482   6.891  0.3100 -0.5451 -0.2734
  126OSM    H4S13452   5.747   0.380   6.874 -0.3253 -0.0547 -2.1648
  126OSM    C5S13453   5.883   0.502   6.980  0.5547  0.7883  0.4180
  126OSM    H5S13454   5.931   0.599   7.002  0.7976  0.5937  0.7500
  126OSM    C6S13455   5.946   0.386   7.052 -0.9817  0.3160  0.0052
  126OSM    H6S13456   5.915   0.286   7.016 -3.3986  0.7279  0.7588
  126OSM    H6T13457   5.921   0.404   7.159 -1.2779  2.2338 -0.3371
  126OSM    C7S13458   6.101   0.386   7.052 -0.5287  0.3986  0.0591
  126OSM    H7S13459   6.142   0.486   7.077 -1.1845  0.5941  0.3721
  126OSM    H7T13460   6.133   0.367   6.947  1.5026 -1.0767  0.8709
  126OSM    C8S13461   6.156   0.275   7.146 -0.1977  0.3810  0.0533
  126OSM    H8S13462   6.263   0.257   7.126 -0.7474 -2.7267 -0.6739
  126OSM    H8T13463   6.098   0.182   7.129  0.6147 -0.1506  0.1596
  126OSM    C9S13464   6.134   0.314   7.296  0.3446  0.2111  0.9351
  126OSM    H9S13465   6.027   0.292   7.315  0.7404 -3.0393 -0.1068
  126OSM    H9T13466   6.153   0.423   7.313  3.3983 -0.0464 -0.2720
  126OSM   C10S13467   6.211   0.232   7.395  0.5344  0.2713  0.0701
  126OSM   H10S13468   6.321   0.225   7.380  0.6265  2.1315 -0.3844
  126OSM   H10T13469   6.170   0.131   7.372 -0.5906  1.3612 -3.3337
  126OSM   C11S13470   6.184   0.266   7.543 -0.3493  0.0611  0.4479
  126OSM   H11S13471   6.074   0.264   7.563 -0.4113  3.0088  0.8965
  126OSM   H11T13472   6.232   0.365   7.561  0.6462 -0.2919 -0.2381
  126OSM   C12S13473   6.253   0.166   7.638 -0.4899  0.7115 -0.5422
  126OSM   H12S13474   6.354   0.143   7.597 -1.0610 -0.0830 -1.5492
  126OSM   H12T13475   6.191   0.074   7.637  1.2069 -0.4945 -0.5781
  126OSM   C13S13476   6.276   0.206   7.783 -0.1154 -0.0059 -0.2250
  126OSM   H13S13477   6.311   0.312   7.776  1.1177 -0.2936  1.1476
  126OSM   H13T13478   6.359   0.151   7.831 -1.4024 -1.1824  0.7164
  126OSM   C14S13479   6.155   0.207   7.880 -0.1050  0.2738 -0.3726
  126OSM   H14S13480   6.109   0.106   7.884 -0.1876  0.3064  3.9512
  126OSM   H14T13481   6.076   0.275   7.843 -0.3734 -0.1191 -0.5282
  126OSM   C15S13482   6.201   0.244   8.020  0.5926  0.1017 -0.6022
  126OSM   H15S13483   6.112   0.227   8.085  0.5011 -0.7294 -0.9329
  126OSM   H15T13484   6.215   0.353   8.004  2.4716 -0.3420 -2.3461
  126OSM   C16S13485   6.334   0.201   8.085  0.2151  0.0115  0.5552
  126OSM   H16S13486   6.412   0.232   8.012  2.6459 -0.4997  2.7821
  126OSM   H16T13487   6.327   0.090   8.096 -1.3354  0.0103 -0.1227
  126OSM   C17S13488   6.365   0.269   8.217  0.7471  0.1807  0.7408
  126OSM   H17S13489   6.340   0.377   8.209 -0.8994 -0.1589  0.9036
  126OSM   H17T13490   6.475   0.270   8.234  0.9235  0.7317 -0.3624
  126OSM   C18S13491   6.285   0.210   8.335 -0.2040  0.5047  0.3494
  126OSM   H18S13492   6.320   0.110   8.369 -2.9354 -0.3333  0.9442
  126OSM   H18T13493   6.177   0.201   8.312 -0.3763 -1.5448  1.6744
  126OSM   H18U13494   6.291   0.275   8.424 -0.0818 -0.0745  0.7708
  126OSM    C1F13495   5.398   0.571   7.029 -0.0561  0.1090  0.5201
  126OSM     OF13496   5.307   0.536   6.958  0.7884 -0.8331  0.1870
  126OSM    C2F13497   5.366   0.596   7.172  0.5578 -0.1185 -0.0034
  126OSM    H2F13498   5.283   0.669   7.180  1.0935  0.7826 -1.9499
  126OSM    H2G13499   5.457   0.639   7.219  1.8500  1.5219 -3.5766
  126OSM    C3F13500   5.311   0.468   7.233 -0.2840  0.1068  0.3897
  126OSM    H3F13501   5.393   0.394   7.223  0.3416  0.7185  0.9161
  126OSM    H3G13502   5.228   0.412   7.184  0.3036 -0.0556 -0.4583
  126OSM    C4F13503   5.274   0.482   7.381 -0.1989  1.0584 -0.8383
  126OSM    H4F13504   5.169   0.517   7.390 -0.0447  1.1751  0.8864
  126OSM    H4G13505   5.343   0.554   7.429 -0.9034 -0.5743  2.9558
  126OSM    C5F13506   5.297   0.358   7.478 -0.3159 -0.4988 -0.1860
  126OSM    H5F13507   5.407   0.346   7.486 -0.1674  1.0705  0.3128
  126OSM    H5G13508   5.247   0.266   7.439  1.1040 -1.8743  1.0935
  126OSM    C6F13509   5.237   0.372   7.619  0.2865 -0.0499  0.4480
  126OSM    H6F13510   5.127   0.379   7.613  0.4180  1.6275 -0.8398
  126OSM    H6G13511   5.266   0.470   7.664 -1.2416  0.9596 -0.6879
  126OSM    C7F13512   5.287   0.277   7.725 -0.1287 -0.3344  0.1034
  126OSM    H7F13513   5.398   0.274   7.730  0.0432 -1.1902 -2.5403
  126OSM    H7G13514   5.245   0.180   7.690 -2.3149  1.5635 -3.1149
  126OSM    C8F13515   5.223   0.312   7.868  0.1424 -0.1404  0.2741
  126OSM    H8F13516   5.205   0.217   7.923 -1.9413  0.8736  1.4737
  126OSM    H8G13517   5.128   0.367   7.853 -0.1947 -1.2820 -2.1653
  126OSM    C9F13518   5.313   0.399   7.951 -0.3644  0.6866  0.2865
  126OSM    H9F13519   5.373   0.470   7.893 -0.4791  0.7255  0.2156
  126OSM   C10F13520   5.313   0.399   8.084 -0.4270 -0.6388  0.1984
  126OSM   H10F13521   5.375   0.473   8.135  3.5318 -1.1340 -3.3686
  126OSM   C11F13522   5.221   0.322   8.179  1.3639  0.3876 -0.2865
  126OSM   H11F13523   5.162   0.245   8.123  2.0422  0.1168 -0.6484
  126OSM   H11G13524   5.161   0.393   8.239 -0.9527 -1.4302 -0.2825
  126OSM   C12F13525   5.311   0.252   8.286  0.2195 -0.0583 -0.4220
  126OSM   H12F13526   5.365   0.325   8.350 -2.7784  1.2898  0.7779
  126OSM   H12G13527   5.390   0.192   8.238  2.3381  0.2121  2.4416
  126OSM   C13F13528   5.241   0.154   8.387 -0.4076  0.7294  0.3068
  126OSM   H13F13529   5.317   0.084   8.428 -2.7380 -2.3445 -0.2391
  126OSM   H13G13530   5.178   0.092   8.320 -0.6020  0.8292  0.3971
  126OSM   C14F13531   5.154   0.210   8.499 -0.5847 -0.0590 -0.1428
  126OSM   H14F13532   5.059   0.248   8.457 -0.5254  0.3085  0.0480
  126OSM   H14G13533   5.214   0.297   8.536  2.5031 -2.1632  0.1778
  126OSM   C15F13534   5.140   0.103   8.610  0.0308  0.1420 -0.0523
  126OSM   H15F13535   5.244   0.079   8.641  0.4939 -1.1960 -2.4244
  126OSM   H15G13536   5.100   0.007   8.572 -0.5042 -0.2077  1.3240
  126OSM   C16F13537   5.065   0.144   8.732  0.0634  0.0960 -0.1530
  126OSM   H16F13538   5.053   0.066   8.811  1.9116 -0.2087 -0.1283
  126OSM   H16G13539   4.965   0.171   8.692 -0.6837 -0.8125  1.0263
  126OSM   C17F13540   5.119   0.274   8.799  0.5080 -0.3720 -0.0774
  126OSM   H17F13541   5.046   0.299   8.879  0.0882 -4.6412  1.0820
  126OSM   H17G13542   5.106   0.352   8.720 -0.2361 -1.1786 -0.7878
  126OSM   C18F13543   5.262   0.269   8.852 -0.2169  0.1633 -0.1678
  126OSM   H18F13544   5.340   0.246   8.777  0.4431  1.3957  0.1213
  126OSM   H18G13545   5.263   0.195   8.935  0.6497 -2.0598 -2.0449
  126OSM   H18H13546   5.294   0.368   8.891  0.6057 -0.0490 -0.2735
  127OSM      N13547   2.086   5.523   5.944 -0.4234 -0.4184  0.1872
  127OSM    C1513548   2.126   5.493   5.804  0.3791 -0.2735 -0.1851
  127OSM   H15A13549   2.150   5.388   5.800  1.7049 -0.0387  0.8506
  127OSM   H15B13550   2.209   5.553   5.770  0.8933  0.3057  1.9828
  127OSM   H15C13551   2.042   5.512   5.738  1.2739 -0.2707 -1.3735
  127OSM    C1413552   2.059   5.670   5.957  0.1234 -0.6659  0.2730
  127OSM   H14A13553   2.143   5.734   5.938 -0.5600 -0.1042 -0.9871
  127OSM   H14B13554   2.025   5.678   6.060 -0.4196 -1.5898  0.1826
  127OSM   H14C13555   1.983   5.701   5.887  1.9745  2.0190 -0.7192
  127OSM    C1313556   1.969   5.435   5.980  0.0248  0.4745  0.5968
  127OSM   H13A13557   1.879   5.471   5.932 -0.1081  1.5619  1.5982
  127OSM   H13B13558   1.943   5.427   6.085 -2.3430  0.2943  0.0618
  127OSM   H13C13559   1.988   5.338   5.937 -0.4626  0.0291  1.3506
  127OSM    C1213560   2.209   5.477   6.023 -0.2941 -0.5260  0.1080
  127OSM   H12A13561   2.291   5.544   6.000  0.3648 -1.2920  0.2063
  127OSM   H12B13562   2.231   5.383   5.975  0.3981  0.7348 -2.1863
  127OSM    C1113563   2.202   5.453   6.175  0.0491 -0.4871  0.4605
  127OSM   H11A13564   2.290   5.395   6.209  1.7965 -0.1242 -2.9978
  127OSM   H11B13565   2.108   5.399   6.200 -0.7468  1.5226  2.0991
  127OSM      P13566   2.321   5.664   6.264 -0.3316 -0.5526  0.0631
  127OSM    O1313567   2.397   5.668   6.137 -0.0560  0.2692 -0.4992
  127OSM    O1413568   2.277   5.795   6.321 -0.3455 -0.5576 -0.1192
  127OSM    O1113569   2.398   5.586   6.373  0.4172  1.0105  0.1806
  127OSM    O1213570   2.191   5.579   6.244 -0.2528 -0.4770  0.1125
  127OSM    C1S13571   2.340   5.571   6.507  0.6869 -0.3770 -0.0697
  127OSM    H1S13572   2.261   5.495   6.486  0.0712 -0.2373  1.6040
  127OSM    H1T13573   2.286   5.661   6.542 -0.7470 -0.8050 -1.0861
  127OSM     NF13574   2.396   5.471   6.731  0.0643 -0.1424  0.4746
  127OSM    HNF13575   2.404   5.532   6.809 -0.8339  0.8414 -0.1599
  127OSM    C2S13576   2.446   5.518   6.603 -0.2428  0.0274  0.6967
  127OSM    H2S13577   2.502   5.435   6.554 -0.2229  0.6951 -0.4634
  127OSM    C3S13578   2.560   5.625   6.619  0.4082 -0.0654  0.5692
  127OSM    H3S13579   2.510   5.715   6.662 -1.7467 -0.4367 -0.9940
  127OSM     O313580   2.612   5.684   6.497  0.0958  0.3583 -0.7923
  127OSM    HO313581   2.550   5.640   6.439  0.6116  0.7833 -1.7011
  127OSM    C4S13582   2.675   5.577   6.703 -0.2621  0.3973 -0.3168
  127OSM    H4S13583   2.650   5.584   6.810  0.7359  2.0227 -0.1632
  127OSM    C5S13584   2.801   5.546   6.668  0.6802  0.2125  0.4550
  127OSM    H5S13585   2.839   5.555   6.565  0.3759  1.0621  0.4071
  127OSM    C6S13586   2.909   5.504   6.762  0.0211  0.3265 -0.5991
  127OSM    H6S13587   2.970   5.592   6.791 -0.0331  0.0328  0.4506
  127OSM    H6T13588   2.988   5.436   6.722  3.7515  2.6206  2.1437
  127OSM    C7S13589   2.862   5.448   6.897  0.4241  0.2865 -0.5784
  127OSM    H7S13590   2.778   5.378   6.877  1.7846 -0.7065 -3.3810
  127OSM    H7T13591   2.820   5.535   6.952  0.5191 -0.2705  0.4046
  127OSM    C8S13592   2.971   5.392   6.991 -0.8177  0.3396  0.9433
  127OSM    H8S13593   3.035   5.473   7.033 -1.2511  0.5299  1.2397
  127OSM    H8T13594   3.039   5.326   6.933  0.6394  2.1856  0.4299
  127OSM    C9S13595   2.917   5.323   7.107 -0.0258 -0.5061  0.4454
  127OSM    H9S13596   2.846   5.244   7.074 -0.4847  0.8138 -1.9254
  127OSM    H9T13597   2.854   5.400   7.157 -0.9017 -0.7339 -0.2710
  127OSM   C10S13598   3.030   5.280   7.206  0.3934 -0.1397  0.4271
  127OSM   H10S13599   3.086   5.373   7.226  0.6702 -0.1636 -0.1894
  127OSM   H10T13600   3.098   5.216   7.146  2.0498 -0.2359  2.3090
  127OSM   C11S13601   2.987   5.191   7.325  0.1778 -0.4968 -0.2436
  127OSM   H11S13602   3.082   5.168   7.379 -0.2555 -1.2524  0.2160
  127OSM   H11T13603   2.932   5.099   7.296  1.2891 -1.1357 -0.3603
  127OSM   C12S13604   2.895   5.274   7.414  0.3978  0.8603 -0.5607
  127OSM   H12S13605   2.794   5.277   7.369 -0.5119 -2.4554  0.8979
  127OSM   H12T13606   2.934   5.375   7.439 -3.6594  2.8895 -1.6234
  127OSM   C13S13607   2.877   5.205   7.549  0.7217 -0.1275  0.1428
  127OSM   H13S13608   2.914   5.101   7.547 -0.2792 -0.4818 -1.4810
  127OSM   H13T13609   2.768   5.200   7.572  0.7305 -0.7433  0.0536
  127OSM   C14S13610   2.929   5.282   7.674 -0.3053  0.3333 -0.3197
  127OSM   H14S13611   2.891   5.386   7.681 -0.2445  0.3105  0.3366
  127OSM   H14T13612   3.040   5.288   7.672 -0.1399 -1.6876  0.6524
  127OSM   C15S13613   2.912   5.215   7.814 -0.2190 -0.2071  0.0457
  127OSM   H15S13614   2.970   5.278   7.884  0.7375  0.9587 -1.7379
  127OSM   H15T13615   2.957   5.115   7.795  2.8200  1.3058 -1.2543
  127OSM   C16S13616   2.768   5.216   7.863 -0.0050 -0.0867  0.8737
  127OSM   H16S13617   2.703   5.171   7.785 -0.2120 -0.3491  1.1961
  127OSM   H16T13618   2.741   5.324   7.871 -1.7750 -0.3293 -0.8197
  127OSM   C17S13619   2.757   5.138   7.989  0.3314  0.5178  0.1352
  127OSM   H17S13620   2.814   5.043   7.979  2.2434  1.6902 -0.5464
  127OSM   H17T13621   2.649   5.118   8.001 -0.3477  2.3550 -2.1893
  127OSM   C18S13622   2.787   5.220   8.115 -0.8583 -0.4533 -0.2795
  127OSM   H18S13623   2.718   5.307   8.124  0.3440  0.5828 -0.6857
  127OSM   H18T13624   2.889   5.264   8.125 -0.6495 -1.1697  0.9213
  127OSM   H18U13625   2.764   5.157   8.203  1.8222 -2.2962 -0.7733
  127OSM    C1F13626   2.311   5.367   6.743 -0.1163 -0.6396  0.1193
  127OSM     OF13627   2.279   5.294   6.649  0.1232 -0.5640 -0.7771
  127OSM    C2F13628   2.249   5.352   6.878  0.1818 -0.0083 -0.9608
  127OSM    H2F13629   2.151   5.406   6.878  0.6411  0.8487 -0.1741
  127OSM    H2G13630   2.304   5.408   6.957 -0.7353 -1.4628  0.7789
  127OSM    C3F13631   2.221   5.207   6.911 -0.4137 -0.5030  0.2692
  127OSM    H3F13632   2.317   5.152   6.909 -0.6995 -0.9832 -0.3417
  127OSM    H3G13633   2.148   5.173   6.835 -2.2474 -1.3067  2.2996
  127OSM    C4F13634   2.174   5.182   7.059 -0.4010 -0.4454  0.4873
  127OSM    H4F13635   2.154   5.074   7.071 -1.7497 -0.6553 -2.5100
  127OSM    H4G13636   2.080   5.239   7.079  0.3719  0.7481  0.8396
  127OSM    C5F13637   2.261   5.230   7.174  0.9385  0.0838  0.4119
  127OSM    H5F13638   2.252   5.341   7.182  0.4221  0.0075  0.8805
  127OSM    H5G13639   2.369   5.205   7.171  1.0920  0.0298  3.4103
  127OSM    C6F13640   2.209   5.173   7.308  0.0539  0.0620  1.1848
  127OSM    H6F13641   2.264   5.077   7.316 -2.0098 -1.3400 -0.3771
  127OSM    H6G13642   2.100   5.156   7.291  0.1878 -0.7954  1.1478
  127OSM    C7F13643   2.217   5.270   7.419 -0.3004 -0.4472  0.0673
  127OSM    H7F13644   2.159   5.237   7.508 -0.8780 -0.6204 -0.3661
  127OSM    H7G13645   2.168   5.364   7.386  2.9783  1.3555 -0.1370
  127OSM    C8F13646   2.363   5.298   7.462 -0.8366 -0.0449 -0.8890
  127OSM    H8F13647   2.363   5.393   7.520  0.6611 -0.5688  0.0383
  127OSM    H8G13648   2.418   5.332   7.372 -1.2257 -0.7176 -1.3847
  127OSM    C9F13649   2.438   5.176   7.524  0.7433  0.0729 -1.1587
  127OSM    H9F13650   2.467   5.090   7.462  0.9644 -0.4689 -0.3143
  127OSM   C10F13651   2.454   5.162   7.658  0.1318 -1.1196  0.0573
  127OSM   H10F13652   2.496   5.075   7.710  0.2137  0.3272  2.6261
  127OSM   C11F13653   2.407   5.255   7.771 -0.7951 -1.3699  0.3435
  127OSM   H11F13654   2.388   5.357   7.731 -0.5185 -1.9106 -1.2376
  127OSM   H11G13655   2.485   5.272   7.847  1.5582  0.7139 -2.3426
  127OSM   C12F13656   2.276   5.199   7.841  0.0189  0.3255 -0.3936
  127OSM   H12F13657   2.271   5.091   7.867 -0.0284  1.0010  2.7929
  127OSM   H12G13658   2.205   5.225   7.759 -0.3229 -2.0212 -0.9268
  127OSM   C13F13659   2.252   5.281   7.970 -0.2687 -0.1300  0.3611
  127OSM   H13F13660   2.261   5.391   7.955  1.5856  0.0841  2.5307
  127OSM   H13G13661   2.339   5.266   8.038  3.0088  5.6605 -1.8100
  127OSM   C14F13662   2.113   5.278   8.028  0.5680 -0.3289  0.8767
  127OSM   H14F13663   2.113   5.177   8.074  1.0013 -1.5949 -1.7312
  127OSM   H14G13664   2.035   5.282   7.949  0.0137 -1.2943  1.3495
  127OSM   C15F13665   2.076   5.377   8.141  0.3334  0.2090 -0.2622
  127OSM   H15F13666   2.102   5.480   8.107  1.0481  0.5161  1.1330
  127OSM   H15G13667   2.146   5.357   8.226 -0.4012  2.5774  0.9872
  127OSM   C16F13668   1.929   5.378   8.178 -0.6932  0.7078 -0.6602
  127OSM   H16F13669   1.906   5.270   8.193  1.5061  0.2643 -0.1196
  127OSM   H16G13670   1.871   5.423   8.094  2.5692  0.6381 -3.1735
  127OSM   C17F13671   1.896   5.458   8.303 -0.3849 -0.3718 -0.6052
  127OSM   H17F13672   1.924   5.565   8.294  0.7713 -0.5018  1.0045
  127OSM   H17G13673   1.946   5.416   8.393  1.2051  0.1208 -1.2222
  127OSM   C18F13674   1.742   5.456   8.320 -0.1888 -0.6577 -0.2252
  127OSM   H18F13675   1.713   5.531   8.398 -2.4095  0.6071 -2.1666
  127OSM   H18G13676   1.720   5.354   8.357  3.2598 -0.8871  1.7026
  127OSM   H18H13677   1.680   5.477   8.231  0.1550 -2.2366 -0.8562
  128OSM      N13678   2.381   1.372   5.983 -0.0121 -0.1110 -0.1781
  128OSM    C1513679   2.514   1.309   5.958 -0.1021 -0.6214  0.5436
  128OSM   H15A13680   2.516   1.261   5.861  0.8107 -0.1166  0.2922
  128OSM   H15B13681   2.536   1.231   6.029 -1.0790 -2.3963 -1.0233
  128OSM   H15C13682   2.596   1.379   5.964 -1.0150  0.4107  1.3724
  128OSM    C1413683   2.415   1.484   6.076 -0.7244  0.4197 -0.0111
  128OSM   H14A13684   2.332   1.553   6.087  0.8445  2.1495  1.6933
  128OSM   H14B13685   2.505   1.538   6.052 -0.8315  0.2315 -0.8582
  128OSM   H14C13686   2.417   1.441   6.175 -1.4132 -1.3203 -0.7163
  128OSM    C1313687   2.331   1.430   5.853  0.0821 -0.0296  0.5011
  128OSM   H13A13688   2.310   1.341   5.795 -2.2773  0.3510  0.7031
  128OSM   H13B13689   2.407   1.496   5.814  0.8013 -1.4578 -0.5906
  128OSM   H13C13690   2.243   1.492   5.857  1.0518  1.4007  0.3584
  128OSM    C1213691   2.287   1.264   6.044  0.4744  0.1576 -0.2315
  128OSM   H12A13692   2.271   1.186   5.971 -0.2335 -2.8617  2.8683
  128OSM   H12B13693   2.196   1.319   6.061  0.5976  0.2278  0.2105
  128OSM    C1113694   2.343   1.198   6.173  0.3743 -0.1392 -0.2408
  128OSM   H11A13695   2.253   1.147   6.214 -0.7984  0.8771 -1.4756
  128OSM   H11B13696   2.371   1.279   6.244  0.2184  1.3621 -1.8273
  128OSM      P13697   2.434   0.972   6.080 -0.0040  0.1649 -0.5059
  128OSM    O1313698   2.317   0.961   5.989 -0.2997 -0.5563  0.2169
  128OSM    O1413699   2.562   0.932   6.018  0.3613  0.1696  0.2373
  128OSM    O1113700   2.408   0.878   6.201 -0.0993 -0.4737 -0.3522
  128OSM    O1213701   2.454   1.118   6.143  0.0926  0.4248 -0.3432
  128OSM    C1S13702   2.478   0.914   6.325  0.4757  0.1696 -0.1640
  128OSM    H1S13703   2.425   0.985   6.391 -0.0330 -0.6996  0.3799
  128OSM    H1T13704   2.575   0.964   6.305  1.0277 -1.2631 -1.2185
  128OSM     NF13705   2.618   0.828   6.506 -0.6809 -0.4672  0.2749
  128OSM    HNF13706   2.713   0.798   6.493 -0.4955  0.0039  0.5408
  128OSM    C2S13707   2.520   0.785   6.412  0.0850  0.4853  0.2784
  128OSM    H2S13708   2.428   0.767   6.472 -0.3074  0.9211 -0.1779
  128OSM    C3S13709   2.557   0.659   6.327 -0.1733 -0.2381 -0.0026
  128OSM    H3S13710   2.654   0.673   6.275  1.2556 -2.4542  1.8919
  128OSM     O313711   2.479   0.633   6.215  0.3076  0.0424  0.6747
  128OSM    HO313712   2.434   0.718   6.207 -2.5624 -1.3785  0.0649
  128OSM    C4S13713   2.552   0.535   6.396 -0.7706  0.1762 -0.0216
  128OSM    H4S13714   2.646   0.479   6.405 -1.5018 -0.7197  4.6924
  128OSM    C5S13715   2.452   0.482   6.467  1.1436  0.9358  0.4215
  128OSM    H5S13716   2.351   0.525   6.459  0.9913  0.2110 -3.9150
  128OSM    C6S13717   2.462   0.360   6.553 -0.4014  0.2566 -0.3768
  128OSM    H6S13718   2.561   0.311   6.551 -0.2778  0.5303 -1.1824
  128OSM    H6T13719   2.394   0.286   6.505  1.1548 -0.1147 -2.1059
  128OSM    C7S13720   2.415   0.376   6.701  0.2686  0.7895 -0.0752
  128OSM    H7S13721   2.308   0.405   6.713  0.7796  1.9374  2.3422
  128OSM    H7T13722   2.455   0.471   6.742  1.5956  0.5050 -0.6623
  128OSM    C8S13723   2.451   0.256   6.788  0.1895 -0.4824 -0.3804
  128OSM    H8S13724   2.561   0.249   6.791  0.3476  1.2853  2.4236
  128OSM    H8T13725   2.413   0.165   6.738 -0.0093 -0.8933  0.4962
  128OSM    C9S13726   2.393   0.274   6.931  0.0612 -0.2432 -0.4742
  128OSM    H9S13727   2.284   0.255   6.936 -0.1663  0.4969 -2.0301
  128OSM    H9T13728   2.399   0.382   6.958 -0.0996 -0.4822  0.5498
  128OSM   C10S13729   2.465   0.188   7.042 -0.4657  0.1469  0.1202
  128OSM   H10S13730   2.574   0.210   7.033 -0.8297  1.1828 -3.0499
  128OSM   H10T13731   2.440   0.082   7.022  0.0029  0.2069 -0.8811
  128OSM   C11S13732   2.418   0.222   7.184  0.3640  0.1002  0.4011
  128OSM   H11S13733   2.314   0.184   7.188  0.3276  0.1367 -0.1627
  128OSM   H11T13734   2.409   0.331   7.202 -1.6764  0.2543 -1.2056
  128OSM   C12S13735   2.495   0.149   7.301 -0.0908  0.0270 -0.2252
  128OSM   H12S13736   2.603   0.166   7.281 -0.0281  0.7726  0.6704
  128OSM   H12T13737   2.485   0.038   7.299  0.0914 -0.1139  2.4759
  128OSM   C13S13738   2.443   0.200   7.441 -0.6635  0.6087  0.3603
  128OSM   H13S13739   2.334   0.197   7.459 -0.2874 -1.3197  2.7599
  128OSM   H13T13740   2.482   0.303   7.447 -0.7797  0.9209 -2.6490
  128OSM   C14S13741   2.500   0.111   7.559  0.0292 -0.4849 -0.1859
  128OSM   H14S13742   2.603   0.146   7.582  0.4747 -2.0053  0.2275
  128OSM   H14T13743   2.495   0.007   7.522  2.6463 -0.3126 -1.2241
  128OSM   C15S13744   2.435   0.122   7.698  0.1931  0.3767  0.3985
  128OSM   H15S13745   2.343   0.059   7.699  0.9180 -0.7381 -0.7243
  128OSM   H15T13746   2.410   0.226   7.729 -1.1684  0.2832 -0.2785
  128OSM   C16S13747   2.533   0.083   7.816 -0.1737  0.0153  0.6246
  128OSM   H16S13748   2.615   0.159   7.816 -1.7558  1.7934  0.4504
  128OSM   H16T13749   2.579  -0.013   7.785 -0.9647 -0.8412  2.0237
  128OSM   C17S13750   2.466   0.062   7.949 -0.3157 -0.6254  0.2323
  128OSM   H17S13751   2.545   0.027   8.018  0.5045  0.6463 -0.0304
  128OSM   H17T13752   2.380  -0.007   7.934  0.5361 -1.6564  0.0206
  128OSM   C18S13753   2.411   0.197   8.001 -0.3437 -0.1958 -0.2696
  128OSM   H18S13754   2.330   0.231   7.933 -1.9523 -1.2052  1.0549
  128OSM   H18T13755   2.499   0.264   7.991 -0.2416 -0.4877 -1.5118
  128OSM   H18U13756   2.380   0.196   8.108  3.2881  0.7475  0.9434
  128OSM    C1F13757   2.593   0.900   6.614 -0.4010  0.0901 -0.3908
  128OSM     OF13758   2.481   0.931   6.644 -0.1777  0.0451 -0.0270
  128OSM    C2F13759   2.711   0.929   6.702 -0.3904  0.2466  0.4858
  128OSM    H2F13760   2.775   1.002   6.649 -0.8557  0.7813  0.6529
  128OSM    H2G13761   2.775   0.838   6.713  1.4595  1.3269 -0.8244
  128OSM    C3F13762   2.673   0.985   6.841  0.6668  0.2858  0.3171
  128OSM    H3F13763   2.611   0.914   6.898 -2.3619  2.3251 -0.2132
  128OSM    H3G13764   2.604   1.068   6.814  1.3002  0.7535  0.0928
  128OSM    C4F13765   2.794   1.043   6.917 -0.0018 -0.0840  0.0461
  128OSM    H4F13766   2.825   1.132   6.859 -1.1067  0.1294 -0.2380
  128OSM    H4G13767   2.875   0.966   6.916 -0.5944 -0.8529  2.5519
  128OSM    C5F13768   2.768   1.076   7.065 -0.3448  0.5656 -0.5221
  128OSM    H5F13769   2.681   1.145   7.067 -0.1121  0.8834 -1.1007
  128OSM    H5G13770   2.855   1.130   7.108  0.2296 -0.5305 -0.2707
  128OSM    C6F13771   2.731   0.950   7.152  0.1416  0.0809  0.0014
  128OSM    H6F13772   2.835   0.925   7.183  0.7569  2.6497  0.2423
  128OSM    H6G13773   2.683   0.873   7.089  0.9256 -1.3303  1.0806
  128OSM    C7F13774   2.639   0.978   7.265 -0.8839  0.4657  0.2392
  128OSM    H7F13775   2.541   1.007   7.222 -0.2665  1.7573 -0.3395
  128OSM    H7G13776   2.669   1.058   7.336  1.4572  0.3042 -0.5069
  128OSM    C8F13777   2.619   0.854   7.350  0.1931  0.8405 -0.3756
  128OSM    H8F13778   2.606   0.766   7.285  3.9411 -0.0231 -0.2264
  128OSM    H8G13779   2.535   0.868   7.421 -1.0744  0.4832 -1.7531
  128OSM    C9F13780   2.740   0.827   7.433 -0.2963 -0.9389  0.2749
  128OSM    H9F13781   2.831   0.826   7.371 -1.4732 -1.3422 -1.5284
  128OSM   C10F13782   2.739   0.796   7.561 -0.2468  0.4705 -0.3391
  128OSM   H10F13783   2.834   0.772   7.611  1.4370  0.9964 -3.0332
  128OSM   C11F13784   2.614   0.775   7.649 -0.3757 -0.1915 -0.4112
  128OSM   H11F13785   2.587   0.667   7.653 -0.3112 -0.1586  1.6879
  128OSM   H11G13786   2.525   0.830   7.611  1.5952  1.6643 -2.6620
  128OSM   C12F13787   2.652   0.804   7.797  0.0967  0.3485  0.6173
  128OSM   H12F13788   2.713   0.896   7.795 -0.1685  0.5313 -1.1051
  128OSM   H12G13789   2.715   0.716   7.823 -3.1144 -1.9850  1.0607
  128OSM   C13F13790   2.529   0.805   7.891  0.2419 -0.3576 -0.4207
  128OSM   H13F13791   2.435   0.838   7.841 -0.3454  1.3104  1.6531
  128OSM   H13G13792   2.540   0.894   7.956  2.4781  0.7960 -2.2538
  128OSM   C14F13793   2.515   0.675   7.968 -0.3956 -0.1314  0.5739
  128OSM   H14F13794   2.616   0.637   7.996  1.7736  3.5269 -1.5222
  128OSM   H14G13795   2.475   0.594   7.903  0.9032 -0.1377 -0.2470
  128OSM   C15F13796   2.422   0.692   8.091  0.4398  0.0945  0.1657
  128OSM   H15F13797   2.316   0.709   8.062 -0.3346 -1.4571  1.9368
  128OSM   H15G13798   2.454   0.780   8.151  4.1822 -1.8048  1.2674
  128OSM   C16F13799   2.419   0.574   8.189 -0.5396 -0.3766  0.1783
  128OSM   H16F13800   2.521   0.535   8.208 -0.1904 -0.4459 -1.6574
  128OSM   H16G13801   2.372   0.489   8.135  0.1747  0.3945 -1.7348
  128OSM   C17F13802   2.332   0.619   8.308 -0.0188 -0.5571 -0.1302
  128OSM   H17F13803   2.232   0.655   8.275 -0.3729 -0.8907  0.5222
  128OSM   H17G13804   2.385   0.705   8.353 -0.0616 -0.1872 -0.7902
  128OSM   C18F13805   2.296   0.506   8.416  0.3533 -0.2989  0.3137
  128OSM   H18F13806   2.391   0.465   8.456  0.0170 -1.9490 -0.5099
  128OSM   H18G13807   2.233   0.422   8.379 -2.3711  1.3932  0.8196
  128OSM   H18H13808   2.229   0.554   8.491  0.6907 -2.9925  2.4934
  129OSM      N13809   1.007   5.382   5.919  0.1121  0.2375 -0.4597
  129OSM    C1513810   1.086   5.395   5.804 -0.6855 -0.4091 -0.3321
  129OSM   H15A13811   1.110   5.500   5.806 -0.4185 -0.4766  0.1730
  129OSM   H15B13812   1.036   5.378   5.710  0.4896  0.8655 -1.2308
  129OSM   H15C13813   1.181   5.342   5.810 -0.7880 -0.4853  0.9669
  129OSM    C1413814   0.901   5.480   5.915  0.5394 -0.1386  0.0839
  129OSM   H14A13815   0.837   5.482   5.828 -3.6230  0.2187  2.8528
  129OSM   H14B13816   0.931   5.582   5.932 -1.3653  1.2496 -3.6630
  129OSM   H14C13817   0.830   5.454   5.992 -0.8451 -1.6797 -1.5984
  129OSM    C1313818   0.951   5.243   5.919  0.0486  0.4079 -0.0999
  129OSM   H13A13819   0.886   5.224   5.835  1.0489  2.4310 -1.4200
  129OSM   H13B13820   0.895   5.225   6.009  0.0735  1.7627  0.1988
  129OSM   H13C13821   1.031   5.170   5.928 -0.1817 -0.1147 -1.8989
  129OSM    C1213822   1.100   5.401   6.034 -0.5834  0.3203  0.0024
  129OSM   H12A13823   1.177   5.474   6.015  1.6420 -1.4216  1.8083
  129OSM   H12B13824   1.151   5.307   6.049 -0.2957  0.5817  0.7018
  129OSM    C1113825   1.043   5.442   6.172 -0.1798  0.1915  0.2648
  129OSM   H11A13826   1.002   5.545   6.176 -1.0936 -0.1120 -0.7706
  129OSM   H11B13827   1.118   5.440   6.254  0.5398 -1.0112 -0.3941
  129OSM      P13828   0.801   5.393   6.279  0.0583 -0.0803 -0.2114
  129OSM    O1313829   0.692   5.411   6.177  0.2600  0.4955 -0.5369
  129OSM    O1413830   0.776   5.304   6.401 -0.1729  0.6663 -0.0526
  129OSM    O1113831   0.838   5.536   6.336  0.0081 -0.6496  0.0534
  129OSM    O1213832   0.937   5.349   6.205 -0.0564 -0.5940 -0.5112
  129OSM    C1S13833   0.760   5.582   6.445 -0.1310 -0.1012 -0.4540
  129OSM    H1S13834   0.667   5.523   6.459  1.7380 -2.8612  1.4186
  129OSM    H1T13835   0.715   5.683   6.437 -2.7278 -1.0104  1.4517
  129OSM     NF13836   0.750   5.572   6.698 -0.1294 -0.1134  0.8994
  129OSM    HNF13837   0.760   5.658   6.747 -1.6970  1.1754 -0.9001
  129OSM    C2S13838   0.842   5.568   6.585  0.4121  1.2074  0.1632
  129OSM    H2S13839   0.899   5.473   6.587 -0.7291  0.4797 -0.4279
  129OSM    C3S13840   0.955   5.679   6.589  0.7870  0.1141 -0.2869
  129OSM    H3S13841   0.900   5.771   6.619 -2.3738 -0.4588 -3.5405
  129OSM     O313842   1.011   5.720   6.461 -0.1351 -0.3406 -0.5662
  129OSM    HO313843   0.966   5.661   6.400  0.8754 -1.4550 -0.2810
  129OSM    C4S13844   1.052   5.641   6.700  0.1338  0.1001  0.5852
  129OSM    H4S13845   1.007   5.593   6.788 -0.0442  0.1894  0.5411
  129OSM    C5S13846   1.190   5.653   6.690 -0.1567 -0.1090  0.0719
  129OSM    H5S13847   1.241   5.681   6.596 -0.4099 -0.7732 -0.2709
  129OSM    C6S13848   1.289   5.612   6.802  0.7988 -0.3597  0.0233
  129OSM    H6S13849   1.365   5.692   6.816  1.0616 -0.8997  1.9918
  129OSM    H6T13850   1.337   5.516   6.774  0.0414 -0.7691  0.1107
  129OSM    C7S13851   1.231   5.567   6.938 -0.4121  0.4262  0.0005
  129OSM    H7S13852   1.162   5.482   6.920 -0.3139  0.1420  0.9308
  129OSM    H7T13853   1.183   5.662   6.970  0.1890  0.1703  1.7870
  129OSM    C8S13854   1.338   5.539   7.045 -0.0416  0.3647  0.1541
  129OSM    H8S13855   1.308   5.569   7.147 -0.2542  2.3392 -0.4386
  129OSM    H8T13856   1.434   5.592   7.026  0.3572  0.1819  1.5768
  129OSM    C9S13857   1.378   5.388   7.048 -0.9145 -0.3348 -0.2665
  129OSM    H9S13858   1.418   5.361   6.948 -0.1083  0.3534 -0.1401
  129OSM    H9T13859   1.286   5.328   7.059 -0.4572 -0.6508  2.9054
  129OSM   C10S13860   1.459   5.351   7.175 -0.8030  0.8377 -0.2836
  129OSM   H10S13861   1.433   5.244   7.189 -0.5564  0.6961 -0.8683
  129OSM   H10T13862   1.437   5.416   7.262  1.2373 -0.2344  1.1298
  129OSM   C11S13863   1.606   5.365   7.138  0.9093  0.0336  0.9993
  129OSM   H11S13864   1.627   5.470   7.109  1.2174  0.5706  3.0060
  129OSM   H11T13865   1.621   5.296   7.052  0.1645  2.2497 -1.0046
  129OSM   C12S13866   1.707   5.320   7.251 -0.1898 -0.9074  0.2298
  129OSM   H12S13867   1.809   5.302   7.210 -0.3428 -0.0821 -0.5438
  129OSM   H12T13868   1.671   5.216   7.270 -0.8675 -0.7245 -0.0508
  129OSM   C13S13869   1.712   5.416   7.378  0.6048 -0.0851  0.1884
  129OSM   H13S13870   1.614   5.453   7.414  1.6984  2.4949  0.7154
  129OSM   H13T13871   1.769   5.507   7.347 -1.9056  0.6305 -2.8443
  129OSM   C14S13872   1.774   5.350   7.496  1.0173 -0.0365 -0.0157
  129OSM   H14S13873   1.881   5.329   7.473  1.2056  1.4095 -0.5753
  129OSM   H14T13874   1.720   5.258   7.528 -0.1876 -0.3916 -2.7743
  129OSM   C15S13875   1.783   5.441   7.620  0.7080 -0.3688  0.2253
  129OSM   H15S13876   1.835   5.536   7.594 -0.6114  1.3271  3.2929
  129OSM   H15T13877   1.848   5.400   7.701  0.6592  2.2925  1.7180
  129OSM   C16S13878   1.650   5.482   7.678 -0.4451  0.3254  0.0860
  129OSM   H16S13879   1.576   5.399   7.680 -0.4052  0.2897  1.8758
  129OSM   H16T13880   1.609   5.569   7.623 -1.5326 -0.0551  0.2644
  129OSM   C17S13881   1.675   5.532   7.825  0.5006  0.5275 -0.7640
  129OSM   H17S13882   1.757   5.606   7.834 -0.4950  1.5043  0.9007
  129OSM   H17T13883   1.710   5.442   7.879 -2.0506 -1.1182 -1.6538
  129OSM   C18S13884   1.546   5.578   7.889 -0.6525 -0.5912 -0.5359
  129OSM   H18S13885   1.479   5.491   7.907  1.7596 -2.0388  2.2691
  129OSM   H18T13886   1.497   5.653   7.823  0.9096  0.9091 -0.0708
  129OSM   H18U13887   1.562   5.614   7.993  1.4440 -0.3670 -0.8955
  129OSM    C1F13888   0.672   5.470   6.743  0.2214 -0.0241 -0.9024
  129OSM     OF13889   0.675   5.364   6.685 -0.9562 -0.6366  0.0861
  129OSM    C2F13890   0.606   5.496   6.872 -0.1288 -0.7381 -0.0722
  129OSM    H2F13891   0.500   5.518   6.851  0.2525  1.8306  0.3790
  129OSM    H2G13892   0.657   5.584   6.916 -0.7227  0.0793 -0.9918
  129OSM    C3F13893   0.616   5.381   6.975  0.5157 -0.0898  0.1436
  129OSM    H3F13894   0.726   5.372   6.991  0.4359 -1.8808 -0.0594
  129OSM    H3G13895   0.581   5.282   6.938  2.2948 -0.0729 -1.8257
  129OSM    C4F13896   0.529   5.407   7.104 -0.0255  0.2368  0.2346
  129OSM    H4F13897   0.548   5.313   7.161  2.2850  0.3417 -0.2587
  129OSM    H4G13898   0.423   5.413   7.074 -0.5124 -0.8801  1.6152
  129OSM    C5F13899   0.560   5.534   7.186 -0.3999 -0.0539 -0.3911
  129OSM    H5F13900   0.555   5.629   7.129 -0.2112 -0.9071 -1.9064
  129OSM    H5G13901   0.667   5.530   7.215  0.0874 -3.8789 -2.0242
  129OSM    C6F13902   0.464   5.547   7.302  0.2896  0.2080  0.2172
  129OSM    H6F13903   0.361   5.569   7.266  0.8226  1.7604 -0.4410
  129OSM    H6G13904   0.510   5.637   7.348 -0.3780  2.0186 -2.3811
  129OSM    C7F13905   0.467   5.440   7.406 -0.2429 -0.5694  0.3525
  129OSM    H7F13906   0.436   5.340   7.369 -0.4502 -0.6366  0.7049
  129OSM    H7G13907   0.393   5.470   7.484 -0.3504  0.4674 -0.1250
  129OSM    C8F13908   0.603   5.417   7.466 -0.3217  0.4037  0.3976
  129OSM    H8F13909   0.686   5.420   7.392  1.4582  2.3030  2.2812
  129OSM    H8G13910   0.601   5.313   7.504 -2.2048  0.5941  0.9049
  129OSM    C9F13911   0.665   5.521   7.559  0.7757  0.1984  0.3666
  129OSM    H9F13912   0.650   5.625   7.526 -0.2855 -0.4910 -1.5274
  129OSM   C10F13913   0.733   5.498   7.670  0.6009  0.4299 -0.4451
  129OSM   H10F13914   0.756   5.590   7.726 -0.4371  1.3180 -1.4062
  129OSM   C11F13915   0.773   5.359   7.732 -0.5173  0.2977 -0.2707
  129OSM   H11F13916   0.883   5.353   7.740 -0.6383 -2.1389  0.2834
  129OSM   H11G13917   0.739   5.265   7.684 -1.5087  1.1241 -1.2329
  129OSM   C12F13918   0.717   5.356   7.882 -0.1215 -0.2334  0.3612
  129OSM   H12F13919   0.729   5.252   7.919 -4.2082 -0.7390  0.6855
  129OSM   H12G13920   0.606   5.364   7.883 -0.1443 -0.4564  1.1809
  129OSM   C13F13921   0.786   5.450   7.979 -0.2183  0.8167 -0.0736
  129OSM   H13F13922   0.750   5.554   7.972 -2.7030  0.0050 -0.1577
  129OSM   H13G13923   0.894   5.446   7.953 -0.2274 -2.5353 -0.1084
  129OSM   C14F13924   0.777   5.403   8.126  0.6218  0.9708 -0.1412
  129OSM   H14F13925   0.835   5.310   8.146 -0.5111  0.1756 -0.4690
  129OSM   H14G13926   0.673   5.369   8.148  1.1178 -0.4775  0.0875
  129OSM   C15F13927   0.833   5.512   8.216  0.1883  0.5152  0.0285
  129OSM   H15F13928   0.798   5.608   8.173  0.5241  0.0671 -1.2806
  129OSM   H15G13929   0.943   5.512   8.203 -0.0062 -0.7994 -2.0403
  129OSM   C16F13930   0.790   5.477   8.365 -0.1059  0.2754 -1.3988
  129OSM   H16F13931   0.809   5.372   8.397  0.5331  0.6870 -0.3882
  129OSM   H16G13932   0.681   5.498   8.366 -0.9311 -3.3056 -1.2865
  129OSM   C17F13933   0.852   5.581   8.463 -0.5559  0.0571 -0.0660
  129OSM   H17F13934   0.811   5.682   8.439  0.3353  1.0568  2.2509
  129OSM   H17G13935   0.962   5.582   8.448 -0.7866  0.1921 -1.8981
  129OSM   C18F13936   0.812   5.556   8.604 -0.4471  0.4140 -0.0332
  129OSM   H18F13937   0.827   5.447   8.616  2.4151  0.5295 -1.7740
  129OSM   H18G13938   0.704   5.582   8.608 -0.0177  2.2826  1.4039
  129OSM   H18H13939   0.870   5.626   8.668  0.2938  0.1076 -0.3590
  130OSM      N13940   3.683   0.609   5.924 -0.7441 -0.4941  0.2348
  130OSM    C1513941   3.546   0.590   5.862 -0.0546 -0.1050 -0.1354
  130OSM   H15A13942   3.477   0.671   5.881 -0.8679 -0.9015  0.4350
  130OSM   H15B13943   3.494   0.508   5.910  0.6942 -0.8169 -0.5055
  130OSM   H15C13944   3.542   0.566   5.757 -1.8086  0.1562 -0.1576
  130OSM    C1413945   3.773   0.495   5.868 -0.2139 -0.0218 -0.1772
  130OSM   H14A13946   3.765   0.491   5.760  0.1891 -1.4345 -0.1766
  130OSM   H14B13947   3.734   0.400   5.899 -0.0627  0.8618  3.0531
  130OSM   H14C13948   3.878   0.504   5.894  0.3270 -3.3131 -0.7583
  130OSM    C1313949   3.745   0.737   5.864 -0.2934 -0.0454  0.4379
  130OSM   H13A13950   3.748   0.729   5.757 -0.9349 -1.0913  0.4780
  130OSM   H13B13951   3.845   0.746   5.902 -0.2019 -1.0633  0.4608
  130OSM   H13C13952   3.684   0.823   5.889  0.9242  0.9003  0.2049
  130OSM    C1213953   3.687   0.614   6.074  0.7555 -0.2047 -0.7326
  130OSM   H12A13954   3.787   0.619   6.115  0.4696 -1.3853  0.1802
  130OSM   H12B13955   3.650   0.518   6.107  1.9341 -0.0526  1.1885
  130OSM    C1113956   3.600   0.716   6.154  0.2263  0.1135  0.3079
  130OSM   H11A13957   3.644   0.818   6.148  1.7120 -0.5476 -0.7154
  130OSM   H11B13958   3.613   0.678   6.257  0.6935 -1.5772 -0.3362
  130OSM      P13959   3.361   0.826   6.120  0.2772  0.4256  0.3918
  130OSM    O1313960   3.425   0.948   6.177 -0.2982 -0.0918  0.0712
  130OSM    O1413961   3.286   0.840   5.994 -0.3021  0.3291 -0.5222
  130OSM    O1113962   3.263   0.770   6.235 -0.3709  0.8836 -0.1358
  130OSM    O1213963   3.460   0.702   6.108 -0.5627 -0.2081  0.2620
  130OSM    C1S13964   3.319   0.722   6.359  0.1837 -0.4476 -0.1425
  130OSM    H1S13965   3.414   0.665   6.349 -0.2076 -1.4105  1.3418
  130OSM    H1T13966   3.244   0.656   6.406 -0.3115  0.5832  0.5648
  130OSM     NF13967   3.396   0.773   6.597 -0.1844 -0.0278  0.4475
  130OSM    HNF13968   3.335   0.781   6.676  0.1367  2.1387  0.5359
  130OSM    C2S13969   3.354   0.828   6.476 -0.1774 -0.1658  0.1853
  130OSM    H2S13970   3.441   0.885   6.437  0.2611 -0.5640  0.5611
  130OSM    C3S13971   3.222   0.912   6.491  0.2346  0.3400 -0.7193
  130OSM    H3S13972   3.148   0.840   6.531  0.8034  0.3521  0.3939
  130OSM     O313973   3.174   0.986   6.380 -0.6405  0.0640  0.0361
  130OSM    HO313974   3.236   0.965   6.310 -1.1161  0.1355 -0.4159
  130OSM    C4S13975   3.254   1.004   6.607 -0.5663  0.1239  0.1098
  130OSM    H4S13976   3.217   0.966   6.704  3.5003  0.4055  1.9856
  130OSM    C5S13977   3.318   1.124   6.602 -0.0005  0.0149 -0.4600
  130OSM    H5S13978   3.362   1.157   6.506  0.0760  1.4095  0.0300
  130OSM    C6S13979   3.344   1.224   6.709  0.5823  0.6424  0.0155
  130OSM    H6S13980   3.288   1.316   6.682 -1.8402 -0.6669  0.2623
  130OSM    H6T13981   3.453   1.243   6.701  0.1526  3.0115 -1.4635
  130OSM    C7S13982   3.315   1.183   6.858  0.2707  0.4118  0.8829
  130OSM    H7S13983   3.374   1.094   6.889 -1.2031 -0.3459  1.6679
  130OSM    H7T13984   3.209   1.150   6.865 -0.8280  3.3221 -0.3431
  130OSM    C8S13985   3.339   1.299   6.952 -0.8412 -0.2481 -0.3887
  130OSM    H8S13986   3.279   1.389   6.925  1.0640  0.8432 -1.2167
  130OSM    H8T13987   3.442   1.339   6.937 -0.4458 -0.5429  1.3561
  130OSM    C9S13988   3.310   1.260   7.096 -0.0199 -0.3836 -0.4841
  130OSM    H9S13989   3.349   1.157   7.111  1.5833  0.1978 -0.4689
  130OSM    H9T13990   3.201   1.247   7.109  0.2829 -2.1330  0.6918
  130OSM   C10S13991   3.372   1.355   7.204 -0.3523 -0.1236  0.2025
  130OSM   H10S13992   3.318   1.452   7.195  3.0935  2.0259  0.8783
  130OSM   H10T13993   3.480   1.376   7.189 -1.0374  2.9882 -1.2698
  130OSM   C11S13994   3.341   1.308   7.350 -0.1659  0.4719  0.6603
  130OSM   H11S13995   3.376   1.208   7.382 -1.1511 -0.1351 -0.0836
  130OSM   H11T13996   3.230   1.305   7.353 -0.1396 -1.1079  0.8610
  130OSM   C12S13997   3.389   1.408   7.455 -0.0613 -0.3105  0.4669
  130OSM   H12S13998   3.355   1.508   7.421 -1.6449 -0.2778  2.0205
  130OSM   H12T13999   3.498   1.400   7.471  0.0738 -1.8913 -0.9111
  130OSM   C13S14000   3.313   1.391   7.593  0.7814  0.6059 -0.0448
  130OSM   H13S14001   3.324   1.283   7.618  2.1422  0.1472 -2.3983
  130OSM   H13T14002   3.206   1.414   7.573  1.2245  0.9537 -2.2312
  130OSM   C14S14003   3.374   1.473   7.699  0.0972 -0.4330  0.5737
  130OSM   H14S14004   3.393   1.574   7.658 -1.1154 -0.3103  0.2543
  130OSM   H14T14005   3.476   1.435   7.720  0.2485 -0.1926  0.2615
  130OSM   C15S14006   3.292   1.468   7.840 -0.2405 -0.7848  0.9041
  130OSM   H15S14007   3.333   1.371   7.878  1.9799  0.2354  1.2985
  130OSM   H15T14008   3.183   1.462   7.822  0.0399  0.2990 -1.6422
  130OSM   C16S14009   3.331   1.580   7.927 -0.5428 -0.0583  0.2603
  130OSM   H16S14010   3.313   1.681   7.884 -0.7545 -0.0147  0.4484
  130OSM   H16T14011   3.442   1.580   7.938 -0.4552  0.3884 -0.5135
  130OSM   C17S14012   3.247   1.585   8.060 -0.4262  0.2526  0.2038
  130OSM   H17S14013   3.250   1.483   8.102 -0.8269 -0.6171 -1.7734
  130OSM   H17T14014   3.146   1.610   8.020  0.4612  1.6093 -1.3253
  130OSM   C18S14015   3.300   1.698   8.149  0.0658 -0.2700 -0.2218
  130OSM   H18S14016   3.399   1.671   8.192 -0.5949  0.8199  2.1443
  130OSM   H18T14017   3.228   1.717   8.232 -0.2757 -1.1252 -0.3100
  130OSM   H18U14018   3.320   1.781   8.079  1.2165 -0.5256 -0.2105
  130OSM    C1F14019   3.519   0.722   6.622  0.4829  0.2234 -0.2203
  130OSM     OF14020   3.602   0.716   6.538 -0.2473 -0.1118 -0.0459
  130OSM    C2F14021   3.542   0.688   6.770  0.0868 -1.5934 -0.2986
  130OSM    H2F14022   3.446   0.717   6.820 -0.2282 -2.3131 -0.4749
  130OSM    H2G14023   3.625   0.757   6.797 -0.8622  0.5646 -2.5240
  130OSM    C3F14024   3.598   0.547   6.808  0.0042 -0.0923 -0.4098
  130OSM    H3F14025   3.709   0.543   6.808  0.1071  0.1201  2.8642
  130OSM    H3G14026   3.567   0.471   6.734  2.0114  0.4632 -1.9059
  130OSM    C4F14027   3.555   0.503   6.953 -0.6233  0.1276  1.0443
  130OSM    H4F14028   3.583   0.397   6.975  0.4992  0.0264 -0.6441
  130OSM    H4G14029   3.446   0.518   6.962 -0.4825  0.9276  1.4947
  130OSM    C5F14030   3.644   0.580   7.058 -0.3041  0.6365  0.0284
  130OSM    H5F14031   3.591   0.669   7.097 -1.5057  0.1730 -0.4939
  130OSM    H5G14032   3.745   0.605   7.019  0.4423 -0.6005  1.0722
  130OSM    C6F14033   3.660   0.496   7.188  0.3020 -0.4158 -0.0870
  130OSM    H6F14034   3.715   0.400   7.177 -0.7086 -0.8774 -1.3624
  130OSM    H6G14035   3.558   0.472   7.227 -0.2554 -0.2946 -1.4280
  130OSM    C7F14036   3.735   0.551   7.311  0.5185 -0.0936  0.0398
  130OSM    H7F14037   3.708   0.659   7.325  0.8349 -0.0671  0.4839
  130OSM    H7G14038   3.844   0.551   7.289  0.5035  0.0144 -0.0373
  130OSM    C8F14039   3.712   0.471   7.442 -0.1124  0.4229 -0.8401
  130OSM    H8F14040   3.811   0.465   7.490 -1.6833 -1.4379  2.5157
  130OSM    H8G14041   3.690   0.367   7.411 -0.2719  0.3656 -0.5366
  130OSM    C9F14042   3.615   0.518   7.543  0.5507  0.0661  0.8581
  130OSM    H9F14043   3.511   0.520   7.507  0.6660 -2.6064  0.1572
  130OSM   C10F14044   3.631   0.526   7.673 -0.6207 -0.2772 -0.5749
  130OSM   H10F14045   3.544   0.571   7.723  0.0890  0.8176 -0.2929
  130OSM   C11F14046   3.755   0.501   7.757  0.0462  0.2754 -0.4486
  130OSM   H11F14047   3.774   0.590   7.820  1.4040 -0.3990  0.1442
  130OSM   H11G14048   3.844   0.464   7.702 -0.6178 -2.1851 -0.0079
  130OSM   C12F14049   3.714   0.391   7.860  0.2424 -0.1257 -0.2787
  130OSM   H12F14050   3.667   0.305   7.807 -2.9027  0.0857  1.8435
  130OSM   H12G14051   3.635   0.427   7.929 -0.4621 -0.7096 -0.7529
  130OSM   C13F14052   3.830   0.331   7.944 -0.2684  0.3802  1.3737
  130OSM   H13F14053   3.887   0.411   7.997  0.2035  0.2701  1.0382
  130OSM   H13G14054   3.900   0.276   7.878 -1.5199 -0.6623  0.8720
  130OSM   C14F14055   3.792   0.245   8.063 -0.1338  0.2781 -0.4457
  130OSM   H14F14056   3.753   0.149   8.022 -0.8480  0.2130  0.3455
  130OSM   H14G14057   3.712   0.291   8.125  1.1313  1.8869  0.0522
  130OSM   C15F14058   3.911   0.184   8.137  0.5494  0.2802 -0.1790
  130OSM   H15F14059   3.977   0.255   8.192 -0.5576 -0.2784  1.9912
  130OSM   H15G14060   3.973   0.121   8.070  0.2531 -0.2690  0.0524
  130OSM   C16F14061   3.867   0.093   8.251 -0.2073  0.6881 -0.3952
  130OSM   H16F14062   3.799   0.011   8.218  1.3771 -1.1352  0.6465
  130OSM   H16G14063   3.812   0.157   8.323  2.1927  0.8901  1.3661
  130OSM   C17F14064   3.985   0.027   8.323  0.8999  0.3685 -0.0244
  130OSM   H17F14065   4.042   0.113   8.366 -0.8041  1.5201  0.0250
  130OSM   H17G14066   4.055  -0.030   8.259 -1.0708  0.2780 -2.2443
  130OSM   C18F14067   3.938  -0.069   8.437 -0.0186 -0.3665  0.4060
  130OSM   H18F14068   4.031  -0.111   8.481 -0.3532 -0.4411  1.0572
  130OSM   H18G14069   3.874  -0.151   8.399 -0.6560 -0.2775  1.2659
  130OSM   H18H14070   3.878  -0.018   8.516  0.7525 -1.6046  1.8503
  131OSM      N14071   2.044   2.591   5.708 -0.1066  0.0412  0.1422
  131OSM    C1514072   2.106   2.723   5.718 -0.1409 -0.2003  0.1812
  131OSM   H15A14073   2.064   2.778   5.801  2.3542  3.2563 -0.6307
  131OSM   H15B14074   2.097   2.776   5.624  0.3338 -0.5888 -0.0857
  131OSM   H15C14075   2.210   2.716   5.745 -0.5477 -0.2242  1.8352
  131OSM    C1414076   1.896   2.607   5.683 -0.2814  0.0599  0.9124
  131OSM   H14A14077   1.846   2.515   5.658  0.5138 -0.1471  0.0319
  131OSM   H14B14078   1.873   2.682   5.609 -1.3036 -1.0254  0.0849
  131OSM   H14C14079   1.861   2.642   5.779 -1.4628  1.0043  0.1540
  131OSM    C1314080   2.102   2.514   5.600  0.2897  0.3639 -0.8146
  131OSM   H13A14081   2.201   2.483   5.630 -0.3313 -0.2317  0.7159
  131OSM   H13B14082   2.095   2.572   5.509  0.0683  0.2774 -0.8536
  131OSM   H13C14083   2.034   2.431   5.587 -1.3207  1.6683 -0.9775
  131OSM    C1214084   2.062   2.513   5.846  0.0135  0.2114  0.3621
  131OSM   H12A14085   2.168   2.496   5.862  0.2319  0.3191 -0.8873
  131OSM   H12B14086   2.018   2.415   5.836  1.3151 -0.3115 -0.4733
  131OSM    C1114087   2.003   2.572   5.976 -0.2718  0.1399  0.2379
  131OSM   H11A14088   2.045   2.673   5.994  0.4295 -0.4039  1.8047
  131OSM   H11B14089   2.034   2.511   6.063 -0.5104 -0.2310  0.0670
  131OSM      P14090   1.773   2.480   6.039  0.2936 -0.4669 -0.0559
  131OSM    O1314091   1.633   2.510   6.001 -0.5862 -1.0596 -0.1304
  131OSM    O1414092   1.817   2.342   6.014 -0.0279 -0.4186  0.5394
  131OSM    O1114093   1.809   2.524   6.187  0.1872  0.3294  0.3502
  131OSM    O1214094   1.867   2.584   5.961  0.4445  0.1407  0.1074
  131OSM    C1S14095   1.718   2.599   6.263  0.1917  0.4459 -0.0801
  131OSM    H1S14096   1.611   2.568   6.268  0.5353 -0.6141  1.1647
  131OSM    H1T14097   1.699   2.696   6.211 -1.0664 -0.0136 -0.5113
  131OSM     NF14098   1.667   2.704   6.470 -0.1319  0.0468  0.2918
  131OSM    HNF14099   1.687   2.802   6.475  0.5870 -0.0405 -0.5642
  131OSM    C2S14100   1.771   2.632   6.402  0.1307 -0.9556  0.1889
  131OSM    H2S14101   1.783   2.535   6.454  2.7188 -0.2161  1.1362
  131OSM    C3S14102   1.906   2.705   6.403 -0.3290 -0.0516  0.0308
  131OSM    H3S14103   1.889   2.813   6.384 -3.8240 -0.5117  0.0279
  131OSM     O314104   2.000   2.666   6.297  0.0578  0.0730 -0.0865
  131OSM    HO314105   1.956   2.595   6.250 -0.2520  0.1200  0.1291
  131OSM    C4S14106   1.970   2.693   6.537  0.2776  0.0638 -0.3396
  131OSM    H4S14107   2.015   2.594   6.556 -2.9911 -1.5163 -0.2222
  131OSM    C5S14108   1.974   2.801   6.623 -0.6205 -0.0679 -0.2391
  131OSM    H5S14109   1.932   2.897   6.591 -0.8859  0.2314  0.9409
  131OSM    C6S14110   2.035   2.806   6.764 -0.2409  1.1685 -0.1117
  131OSM    H6S14111   2.075   2.909   6.762 -0.3667  1.2461  0.8040
  131OSM    H6T14112   2.112   2.730   6.788 -0.5672  1.7027  3.0513
  131OSM    C7S14113   1.937   2.772   6.885 -0.1360 -0.0368  0.6346
  131OSM    H7S14114   1.909   2.664   6.884  1.5075 -0.4997 -1.2097
  131OSM    H7T14115   1.848   2.835   6.863  0.9322  0.9766 -1.0455
  131OSM    C8S14116   1.994   2.801   7.021 -0.3338 -0.4674  0.0524
  131OSM    H8S14117   2.016   2.909   7.030 -0.5798 -0.3169 -0.9885
  131OSM    H8T14118   2.094   2.755   7.027 -0.0029 -0.0064 -1.4266
  131OSM    C9S14119   1.895   2.759   7.128  0.1649  0.1118  0.4119
  131OSM    H9S14120   1.880   2.649   7.117 -2.8757  0.3597  1.1351
  131OSM    H9T14121   1.800   2.807   7.095  1.0798  0.6002 -1.6901
  131OSM   C10S14122   1.944   2.790   7.267  0.2261 -0.4288 -0.1648
  131OSM   H10S14123   1.947   2.901   7.280  0.1810 -0.6430  2.0561
  131OSM   H10T14124   2.047   2.750   7.270  1.0499  1.3926 -1.6778
  131OSM   C11S14125   1.858   2.742   7.379  0.4858  0.0726  0.3421
  131OSM   H11S14126   1.844   2.634   7.360 -0.3333  0.3581 -0.7860
  131OSM   H11T14127   1.758   2.785   7.359  0.9966  1.8686  1.4267
  131OSM   C12S14128   1.907   2.767   7.519 -0.6069  0.4089  0.1824
  131OSM   H12S14129   2.007   2.815   7.507 -1.3463  2.5875  2.0522
  131OSM   H12T14130   1.939   2.667   7.556 -0.2353 -0.2553 -1.8256
  131OSM   C13S14131   1.823   2.839   7.616  0.1579 -0.1285  0.0046
  131OSM   H13S14132   1.722   2.793   7.627 -0.1242  0.7875  1.6326
  131OSM   H13T14133   1.812   2.944   7.580  1.0327 -0.0343  0.0045
  131OSM   C14S14134   1.890   2.839   7.758 -0.4852 -0.0842  0.1661
  131OSM   H14S14135   1.972   2.914   7.757  1.5047 -2.1336 -1.3646
  131OSM   H14T14136   1.939   2.739   7.760  0.0657  0.1877  1.5017
  131OSM   C15S14137   1.808   2.867   7.876 -0.6714 -0.0663 -1.2817
  131OSM   H15S14138   1.744   2.778   7.894 -1.3085  0.7892  1.0866
  131OSM   H15T14139   1.739   2.951   7.852 -0.9216  0.9496  2.3375
  131OSM   C16S14140   1.894   2.895   7.999  0.2186  0.4916  0.1453
  131OSM   H16S14141   1.962   2.980   7.979 -2.2014  2.6660  0.5762
  131OSM   H16T14142   1.945   2.799   8.019  0.1102  0.2406 -0.7504
  131OSM   C17S14143   1.806   2.933   8.117 -0.5565 -0.1238 -0.1814
  131OSM   H17S14144   1.742   2.847   8.145 -0.1323 -0.7735 -1.1633
  131OSM   H17T14145   1.745   3.023   8.095 -0.9673  0.0463  1.5082
  131OSM   C18S14146   1.902   2.976   8.227 -0.2479 -0.0480 -0.4630
  131OSM   H18S14147   1.986   3.033   8.181  0.3435  1.1800  1.9482
  131OSM   H18T14148   1.951   2.886   8.271  0.9622  0.4965 -0.6429
  131OSM   H18U14149   1.858   3.024   8.317  0.0019 -1.3879  0.3950
  131OSM    C1F14150   1.557   2.645   6.519 -0.0600 -0.4240  1.4769
  131OSM     OF14151   1.535   2.526   6.493 -0.5147 -0.3878  0.1687
  131OSM    C2F14152   1.455   2.729   6.587 -0.2375 -0.3630  0.2899
  131OSM    H2F14153   1.384   2.760   6.507  1.9806  1.2122 -1.1937
  131OSM    H2G14154   1.497   2.819   6.635 -1.2525  1.1405 -1.5156
  131OSM    C3F14155   1.385   2.639   6.693 -0.4103  0.3326 -0.1672
  131OSM    H3F14156   1.350   2.544   6.646  0.7812 -0.5440  0.6554
  131OSM    H3G14157   1.296   2.692   6.731  0.5729 -0.0531  2.9875
  131OSM    C4F14158   1.466   2.595   6.814  0.0379  1.0671  0.2237
  131OSM    H4F14159   1.509   2.684   6.864  0.4817  1.7469 -1.3191
  131OSM    H4G14160   1.550   2.531   6.778 -1.4647 -0.4509 -0.7771
  131OSM    C5F14161   1.388   2.510   6.920 -0.1853 -0.2999 -0.0979
  131OSM    H5F14162   1.335   2.424   6.873  0.1893 -0.2770 -0.5702
  131OSM    H5G14163   1.299   2.562   6.960 -0.6316 -0.6556 -0.6144
  131OSM    C6F14164   1.482   2.478   7.040 -0.4275 -0.6789  0.7474
  131OSM    H6F14165   1.541   2.566   7.075  0.3166 -0.2053 -1.5592
  131OSM    H6G14166   1.552   2.392   7.024  0.2324  0.3079 -2.2769
  131OSM    C7F14167   1.399   2.420   7.153 -0.7238  0.2687 -0.0443
  131OSM    H7F14168   1.341   2.334   7.112 -1.2254  0.1453  0.9106
  131OSM    H7G14169   1.324   2.492   7.192 -0.6961 -0.0992  0.7073
  131OSM    C8F14170   1.488   2.371   7.280  0.2091  0.0393  0.4318
  131OSM    H8F14171   1.572   2.312   7.239  1.3571  2.0143 -0.2301
  131OSM    H8G14172   1.418   2.303   7.333  1.8525 -2.0060  0.0902
  131OSM    C9F14173   1.522   2.484   7.363  0.4974 -1.1558 -0.6639
  131OSM    H9F14174   1.497   2.581   7.318 -3.0457 -1.6250  0.0497
  131OSM   C10F14175   1.588   2.475   7.482 -0.0956  0.4635 -0.3188
  131OSM   H10F14176   1.615   2.567   7.536 -0.5768  0.6077 -0.3140
  131OSM   C11F14177   1.642   2.339   7.534  0.3524  0.1025 -0.0434
  131OSM   H11F14178   1.714   2.316   7.452  0.6389  1.5362 -0.2276
  131OSM   H11G14179   1.572   2.256   7.555 -0.2659  0.3570 -1.0264
  131OSM   C12F14180   1.717   2.351   7.661  0.2976  0.3102  0.6356
  131OSM   H12F14181   1.799   2.423   7.643 -0.1999  0.7590  0.1154
  131OSM   H12G14182   1.752   2.251   7.695 -1.1550  0.4792  2.8317
  131OSM   C13F14183   1.638   2.414   7.774  0.0391 -0.0156  0.5215
  131OSM   H13F14184   1.560   2.340   7.801 -1.2066  0.3262 -1.8418
  131OSM   H13G14185   1.582   2.500   7.730  0.9586 -0.1349 -0.9275
  131OSM   C14F14186   1.725   2.445   7.894 -0.0011  0.6585 -0.2677
  131OSM   H14F14187   1.805   2.516   7.863 -0.2096  0.7943 -0.5014
  131OSM   H14G14188   1.771   2.352   7.933  0.9713  1.9658  1.8458
  131OSM   C15F14189   1.640   2.510   8.008 -0.3884 -0.0961  0.0658
  131OSM   H15F14190   1.560   2.441   8.045 -3.3361  2.4195 -1.1388
  131OSM   H15G14191   1.576   2.586   7.958 -0.4529  2.0403  3.1336
  131OSM   C16F14192   1.704   2.563   8.136 -0.3334 -0.5569 -0.1609
  131OSM   H16F14193   1.625   2.611   8.197  0.4662 -0.2658  0.6588
  131OSM   H16G14194   1.781   2.641   8.117 -0.6748  0.3787  2.0325
  131OSM   C17F14195   1.761   2.458   8.221 -0.6268  0.1113 -0.5230
  131OSM   H17F14196   1.806   2.511   8.307 -2.0238  0.3483  0.1044
  131OSM   H17G14197   1.848   2.402   8.181  0.4801  0.4942  1.2247
  131OSM   C18F14198   1.656   2.366   8.277  0.6204 -0.3859 -0.7752
  131OSM   H18F14199   1.633   2.296   8.193  1.4523 -1.7092  0.0543
  131OSM   H18G14200   1.574   2.425   8.323 -0.6335 -1.2171 -1.8649
  131OSM   H18H14201   1.701   2.315   8.365  1.5920 -0.2362 -1.1827
  132OSM      N14202   4.608   5.692   5.988 -0.0983 -0.0966  0.3254
  132OSM    C1514203   4.660   5.635   5.862 -0.0297  0.8119  0.3340
  132OSM   H15A14204   4.642   5.529   5.865 -3.2671  1.2483  1.2091
  132OSM   H15B14205   4.765   5.645   5.843  0.2560 -0.7087  0.9380
  132OSM   H15C14206   4.600   5.668   5.778 -2.1860 -0.7751  1.1305
  132OSM    C1414207   4.644   5.836   5.994  0.2031 -0.6775  0.2177
  132OSM   H14A14208   4.750   5.855   5.984  0.3944 -2.3677 -1.5638
  132OSM   H14B14209   4.619   5.884   6.088  0.0181  0.0748 -0.2082
  132OSM   H14C14210   4.603   5.896   5.915 -0.0845  0.9260  1.5310
  132OSM    C1314211   4.457   5.678   5.994 -0.9138 -0.0627  0.3558
  132OSM   H13A14212   4.402   5.730   5.916 -1.4782 -0.5014  0.4610
  132OSM   H13B14213   4.416   5.726   6.082 -0.3708  1.0170  0.0414
  132OSM   H13C14214   4.428   5.575   6.002  0.6454 -0.5380  0.1701
  132OSM    C1214215   4.672   5.624   6.104 -0.2706  0.1615 -0.4009
  132OSM   H12A14216   4.776   5.651   6.112 -0.6249  0.9435  2.3263
  132OSM   H12B14217   4.664   5.516   6.106  0.3128  0.1189 -0.3219
  132OSM    C1114218   4.609   5.651   6.248 -0.0906  0.9573  0.2807
  132OSM   H11A14219   4.596   5.760   6.263  0.2975  1.2558 -1.3670
  132OSM   H11B14220   4.681   5.620   6.327 -1.7192 -1.5341  0.9151
  132OSM      P14221   4.477   5.419   6.297 -0.1371  0.0337 -0.1594
  132OSM    O1314222   4.346   5.382   6.342  0.1639  0.2746 -0.1946
  132OSM    O1414223   4.531   5.344   6.183  0.1732  0.0189 -0.6843
  132OSM    O1114224   4.580   5.397   6.417 -0.0434  0.0615 -0.0657
  132OSM    O1214225   4.489   5.566   6.252 -0.5170 -0.5016 -0.1821
  132OSM    C1S14226   4.588   5.472   6.537 -0.1580 -0.2922  0.5336
  132OSM    H1S14227   4.516   5.556   6.532  0.1473 -0.1057 -1.6236
  132OSM    H1T14228   4.689   5.515   6.549  0.7013 -2.2739  0.7472
  132OSM     NF14229   4.586   5.483   6.789 -0.0641  0.6433  0.2329
  132OSM    HNF14230   4.676   5.471   6.831 -0.3421 -0.6646  0.4970
  132OSM    C2S14231   4.556   5.396   6.670  0.1821  0.1529  0.0814
  132OSM    H2S14232   4.449   5.370   6.659  0.6995 -1.7206 -1.0924
  132OSM    C3S14233   4.626   5.255   6.677  0.3322 -0.1027  0.2172
  132OSM    H3S14234   4.736   5.265   6.663  0.0672  0.0674 -2.2685
  132OSM     O314235   4.582   5.161   6.575 -0.4063 -0.6601  0.0468
  132OSM    HO314236   4.526   5.218   6.522 -1.7818 -0.2238  1.9058
  132OSM    C4S14237   4.592   5.198   6.806  0.3956  0.3743 -0.9218
  132OSM    H4S14238   4.487   5.170   6.825  0.6533  0.3815  0.6768
  132OSM    C5S14239   4.677   5.172   6.900 -0.0145 -0.1789 -0.4619
  132OSM    H5S14240   4.782   5.191   6.872 -0.1434 -2.1598 -2.5655
  132OSM    C6S14241   4.655   5.129   7.044 -0.0136 -0.4792 -0.4217
  132OSM    H6S14242   4.694   5.204   7.115 -1.1418  0.7466 -1.0393
  132OSM    H6T14243   4.694   5.027   7.065 -2.0464 -1.3269 -0.5463
  132OSM    C7S14244   4.506   5.116   7.084 -0.4750 -0.1881  0.4094
  132OSM    H7S14245   4.463   5.039   7.017 -1.3084  0.7087 -0.1208
  132OSM    H7T14246   4.452   5.212   7.070 -1.2126 -0.3111  2.1652
  132OSM    C8S14247   4.483   5.092   7.241  1.1340  0.2765  0.5428
  132OSM    H8S14248   4.533   5.173   7.298 -0.5777  1.6414  0.1941
  132OSM    H8T14249   4.532   4.996   7.269  1.1509  0.0646 -0.2050
  132OSM    C9S14250   4.329   5.081   7.264 -0.2033 -0.1165  0.1096
  132OSM    H9S14251   4.292   5.000   7.197 -1.4478 -0.2202  0.8820
  132OSM    H9T14252   4.269   5.173   7.247 -0.1685 -0.0195  0.4956
  132OSM   C10S14253   4.298   5.040   7.403 -0.7988 -0.3811 -0.4696
  132OSM   H10S14254   4.381   4.981   7.449  0.1777  2.5438  1.8859
  132OSM   H10T14255   4.199   4.991   7.407 -0.8617 -0.2424  2.7755
  132OSM   C11S14256   4.300   5.164   7.491 -1.0935 -0.1964  0.4396
  132OSM   H11S14257   4.222   5.240   7.472  0.3307  1.1603 -0.2822
  132OSM   H11T14258   4.395   5.216   7.465 -0.3134 -2.0637 -0.6610
  132OSM   C12S14259   4.308   5.133   7.642  0.2444 -0.1126 -0.0757
  132OSM   H12S14260   4.321   5.226   7.701 -0.0611 -0.6921  0.9266
  132OSM   H12T14261   4.399   5.074   7.668  0.4696  0.2692  0.0007
  132OSM   C13S14262   4.187   5.060   7.692 -0.4968  0.1133  0.8361
  132OSM   H13S14263   4.181   4.955   7.656  0.6389  0.2868  0.0970
  132OSM   H13T14264   4.102   5.112   7.644 -0.4780  0.4955  1.2112
  132OSM   C14S14265   4.157   5.076   7.843  0.3164 -0.2774 -0.2723
  132OSM   H14S14266   4.227   5.021   7.910  1.9732  1.7624 -0.2100
  132OSM   H14T14267   4.058   5.031   7.864  1.5863 -3.1109  0.1241
  132OSM   C15S14268   4.147   5.218   7.894 -0.3640 -1.6951  0.0344
  132OSM   H15S14269   4.096   5.283   7.821  2.2621 -0.7412 -1.0926
  132OSM   H15T14270   4.253   5.250   7.907 -0.8193  0.1754 -0.5417
  132OSM   C16S14271   4.100   5.234   8.039 -0.4342 -0.3673  0.1916
  132OSM   H16S14272   4.165   5.168   8.101 -4.2758 -3.2945  1.4742
  132OSM   H16T14273   4.001   5.194   8.070  0.6805 -0.3414  4.3168
  132OSM   C17S14274   4.108   5.380   8.090  0.6407  0.0854  0.3958
  132OSM   H17S14275   4.022   5.429   8.040  0.1091 -2.2238 -1.0875
  132OSM   H17T14276   4.202   5.425   8.051 -0.4796  0.1925 -2.3612
  132OSM   C18S14277   4.109   5.398   8.244 -0.4400  0.3794 -0.0084
  132OSM   H18S14278   4.015   5.430   8.294 -0.8671  2.0030 -1.7174
  132OSM   H18T14279   4.166   5.493   8.256  0.0036 -0.1995  3.4836
  132OSM   H18U14280   4.180   5.327   8.292  0.5426  0.6716 -0.9756
  132OSM    C1F14281   4.525   5.602   6.820  0.4213  0.6045 -0.4944
  132OSM     OF14282   4.446   5.644   6.738  0.0359 -0.2943  0.4393
  132OSM    C2F14283   4.576   5.667   6.947  0.3467  0.3538 -0.1866
  132OSM    H2F14284   4.526   5.763   6.971 -0.5279 -0.3184  0.7401
  132OSM    H2G14285   4.681   5.704   6.938  0.6536  0.9975  3.9334
  132OSM    C3F14286   4.574   5.570   7.073  0.3340 -0.4507  0.1973
  132OSM    H3F14287   4.615   5.469   7.051  2.4626  0.6029 -0.9292
  132OSM    H3G14288   4.465   5.555   7.093  0.4317 -2.5906 -0.6291
  132OSM    C4F14289   4.643   5.627   7.199  0.8219 -0.5125  1.0278
  132OSM    H4F14290   4.627   5.737   7.203 -2.2824 -0.8650  0.7820
  132OSM    H4G14291   4.753   5.617   7.194  0.8701  0.4656 -0.8891
  132OSM    C5F14292   4.587   5.566   7.330 -0.3299  0.5115 -0.0615
  132OSM    H5F14293   4.656   5.589   7.415  1.9438 -1.2765 -1.3116
  132OSM    H5G14294   4.592   5.455   7.323 -1.3880  0.4239  0.3608
  132OSM    C6F14295   4.451   5.611   7.374 -0.0663 -0.7655  0.1947
  132OSM    H6F14296   4.370   5.576   7.306 -0.3382 -0.0583  0.1497
  132OSM    H6G14297   4.440   5.722   7.373  0.7808 -0.6124 -2.5382
  132OSM    C7F14298   4.429   5.566   7.516  0.3630  0.0165  0.2717
  132OSM    H7F14299   4.514   5.594   7.582 -0.6824 -0.4905  1.8897
  132OSM    H7G14300   4.417   5.456   7.525 -0.3387  0.0563 -0.0996
  132OSM    C8F14301   4.306   5.633   7.572  0.1533  0.4871  0.2606
  132OSM    H8F14302   4.231   5.612   7.493  1.0090 -0.0980 -0.4031
  132OSM    H8G14303   4.328   5.740   7.594 -1.0507  0.5941  1.0599
  132OSM    C9F14304   4.260   5.573   7.706  0.9206 -0.1997  0.4921
  132OSM    H9F14305   4.176   5.503   7.693  1.0624  0.0443 -2.4238
  132OSM   C10F14306   4.300   5.604   7.829  0.6324 -1.2261  0.2235
  132OSM   H10F14307   4.240   5.561   7.910  0.0531 -2.0147 -0.5986
  132OSM   C11F14308   4.404   5.714   7.857 -0.1500 -0.1250 -0.2709
  132OSM   H11F14309   4.353   5.811   7.874  0.6920  0.6231 -1.7777
  132OSM   H11G14310   4.466   5.739   7.769  2.6317  0.8690  1.8284
  132OSM   C12F14311   4.487   5.675   7.976 -0.5347  0.4749 -0.2453
  132OSM   H12F14312   4.431   5.642   8.066  1.8673  0.3731  1.3134
  132OSM   H12G14313   4.543   5.760   8.021  0.0699 -0.4190  0.7393
  132OSM   C13F14314   4.588   5.570   7.931  0.2427  0.1369 -0.0428
  132OSM   H13F14315   4.655   5.620   7.857 -2.4626  1.3997 -1.7820
  132OSM   H13G14316   4.536   5.486   7.880  2.1281 -1.8345  1.1093
  132OSM   C14F14317   4.668   5.516   8.061  0.1687 -0.3278  0.0713
  132OSM   H14F14318   4.687   5.602   8.128  1.1472  0.8094 -1.6026
  132OSM   H14G14319   4.755   5.457   8.024 -0.1709  0.2540 -1.7526
  132OSM   C15F14320   4.595   5.416   8.152  0.4148 -0.0836  0.8527
  132OSM   H15F14321   4.592   5.318   8.099 -0.4074 -1.3567  3.1044
  132OSM   H15G14322   4.491   5.455   8.151 -0.2185 -1.6545 -0.7111
  132OSM   C16F14323   4.660   5.389   8.288  1.3801  0.1715  0.1112
  132OSM   H16F14324   4.768   5.371   8.272  1.4280  1.0201 -0.5838
  132OSM   H16G14325   4.620   5.293   8.328  0.1910  0.0325 -1.3128
  132OSM   C17F14326   4.655   5.496   8.393  0.2370  0.3638  0.2518
  132OSM   H17F14327   4.694   5.594   8.358 -0.8037  0.4658 -0.6972
  132OSM   H17G14328   4.699   5.466   8.491  2.1305  0.4942 -0.5034
  132OSM   C18F14329   4.511   5.537   8.428  1.3324  0.5130  0.9400
  132OSM   H18F14330   4.465   5.598   8.348  0.8885 -1.8707 -0.7636
  132OSM   H18G14331   4.507   5.589   8.526 -3.1792 -1.0919  1.8423
  132OSM   H18H14332   4.452   5.443   8.438  2.5658 -0.1468  2.5051
  133OSM      N14333   3.275   3.550   6.108 -0.6157 -0.7956  0.1427
  133OSM    C1514334   3.177   3.467   6.178 -0.1472 -0.1812  0.1797
  133OSM   H15A14335   3.162   3.502   6.279 -0.9491 -1.6599  0.6000
  133OSM   H15B14336   3.200   3.362   6.173 -1.6891 -0.5553  0.3568
  133OSM   H15C14337   3.077   3.480   6.138 -0.4602 -0.9680  0.6749
  133OSM    C1414338   3.250   3.535   5.961  0.3831  0.6340  0.1598
  133OSM   H14A14339   3.217   3.432   5.956  1.8244  0.0419  1.7994
  133OSM   H14B14340   3.343   3.541   5.907  0.1914 -1.2549 -0.4522
  133OSM   H14C14341   3.170   3.595   5.921 -0.4492 -1.5113 -1.6235
  133OSM    C1314342   3.254   3.697   6.141 -0.3776 -0.0313 -0.0235
  133OSM   H13A14343   3.323   3.752   6.077 -0.1398  0.4017  0.5964
  133OSM   H13B14344   3.286   3.708   6.244  0.5839  1.1148 -0.4140
  133OSM   H13C14345   3.156   3.739   6.128  0.2008  1.0217 -1.2977
  133OSM    C1214346   3.418   3.515   6.133  0.2588 -0.7613 -0.1977
  133OSM   H12A14347   3.493   3.557   6.067 -0.3401  0.3253 -0.2091
  133OSM   H12B14348   3.427   3.409   6.117 -1.9165 -0.5679 -3.7807
  133OSM    C1114349   3.478   3.545   6.273  0.3885 -0.4121  0.2160
  133OSM   H11A14350   3.563   3.477   6.295  1.4537  0.6943 -0.3934
  133OSM   H11B14351   3.391   3.507   6.332 -0.4657 -2.1079 -2.0155
  133OSM      P14352   3.635   3.739   6.233 -0.4557 -0.0912 -0.0460
  133OSM    O1314353   3.673   3.658   6.111  0.4008 -0.7353 -0.6640
  133OSM    O1414354   3.634   3.883   6.232 -0.0126 -0.5509 -0.2992
  133OSM    O1114355   3.735   3.693   6.342 -0.5102 -0.1450 -0.0327
  133OSM    O1214356   3.503   3.686   6.299 -0.5408 -0.0667 -0.2153
  133OSM    C1S14357   3.730   3.734   6.476 -0.0366 -0.5170  0.4751
  133OSM    H1S14358   3.632   3.770   6.513  1.1234  3.1894  0.3727
  133OSM    H1T14359   3.802   3.815   6.500 -0.1504 -0.5535  0.9376
  133OSM     NF14360   3.748   3.645   6.706 -0.5534 -0.4364  0.2630
  133OSM    HNF14361   3.829   3.661   6.761 -1.4163  2.4971  0.8600
  133OSM    C2S14362   3.769   3.613   6.566  0.1784 -0.8326  0.1341
  133OSM    H2S14363   3.693   3.535   6.548 -1.8774  0.9194  0.8031
  133OSM    C3S14364   3.915   3.576   6.540  0.3357  0.0825 -0.3557
  133OSM    H3S14365   3.977   3.657   6.584 -0.8899  0.3996  0.8599
  133OSM     O314366   3.949   3.566   6.403  0.3199  0.5001 -0.8064
  133OSM    HO314367   3.873   3.597   6.354 -0.8818  0.3150  0.8641
  133OSM    C4S14368   3.957   3.446   6.603 -0.1806  0.8447  0.0689
  133OSM    H4S14369   3.901   3.358   6.568 -0.9052  1.1187  0.5205
  133OSM    C5S14370   4.056   3.415   6.683 -0.7428  0.6975  0.2825
  133OSM    H5S14371   4.139   3.483   6.704  0.0315  0.2451 -1.1623
  133OSM    C6S14372   4.079   3.277   6.738  0.4121 -0.3822  0.8016
  133OSM    H6S14373   4.186   3.256   6.720  0.4526 -0.5516  1.2444
  133OSM    H6T14374   4.021   3.201   6.681  1.1097  0.5603 -1.2587
  133OSM    C7S14375   4.059   3.254   6.886  0.4308  0.5617 -0.4579
  133OSM    H7S14376   4.108   3.163   6.927  0.3901  1.5100  1.8738
  133OSM    H7T14377   3.950   3.255   6.907  0.7066  2.8742  1.2626
  133OSM    C8S14378   4.119   3.362   6.975  0.3843 -0.4183 -0.0019
  133OSM    H8S14379   4.075   3.462   6.954  0.9418 -0.2888 -0.6043
  133OSM    H8T14380   4.225   3.387   6.951  0.5709  0.3717  1.5428
  133OSM    C9S14381   4.099   3.328   7.125 -0.1663  0.3733 -0.7103
  133OSM    H9S14382   4.143   3.228   7.144 -0.4293  0.1271 -1.3634
  133OSM    H9T14383   3.989   3.311   7.131  0.1560 -2.1503 -0.6384
  133OSM   C10S14384   4.162   3.430   7.209 -1.0128 -0.0768  0.0463
  133OSM   H10S14385   4.097   3.519   7.193  1.4323  1.3104 -3.3089
  133OSM   H10T14386   4.260   3.464   7.169 -0.8751  1.1514  1.3233
  133OSM   C11S14387   4.183   3.404   7.362  0.2125 -0.2367  1.1307
  133OSM   H11S14388   4.240   3.494   7.392  0.7316 -0.2065  0.0740
  133OSM   H11T14389   4.246   3.312   7.367 -0.3958 -0.7468 -0.1909
  133OSM   C12S14390   4.055   3.393   7.436  0.4286  0.0025  0.1177
  133OSM   H12S14391   3.986   3.309   7.413 -1.9416  2.2973 -1.8765
  133OSM   H12T14392   4.000   3.486   7.410 -1.0357 -0.5420  1.1363
  133OSM   C13S14393   4.066   3.396   7.586  0.1804 -0.5029 -0.1335
  133OSM   H13S14394   4.105   3.296   7.612 -0.4140 -0.4329  1.1174
  133OSM   H13T14395   3.968   3.394   7.638  0.1654 -2.9767 -0.1431
  133OSM   C14S14396   4.151   3.508   7.649 -0.2142  0.2951  0.6096
  133OSM   H14S14397   4.167   3.589   7.574  0.8332  1.2903  1.8669
  133OSM   H14T14398   4.254   3.469   7.662 -0.8399 -0.7237  3.0212
  133OSM   C15S14399   4.105   3.546   7.785 -0.3561 -0.0301  0.2208
  133OSM   H15S14400   4.104   3.456   7.849 -2.4646 -0.6054 -0.5449
  133OSM   H15T14401   4.003   3.589   7.771 -0.1374  0.1318 -0.9810
  133OSM   C16S14402   4.192   3.655   7.845  0.4717  0.1432  0.0840
  133OSM   H16S14403   4.226   3.718   7.761  0.2162  1.8827  1.2206
  133OSM   H16T14404   4.284   3.602   7.879 -0.5812 -3.1911 -1.8226
  133OSM   C17S14405   4.137   3.727   7.966 -0.0459  0.2221  0.4176
  133OSM   H17S14406   4.041   3.775   7.938 -0.0692 -0.3187 -0.4640
  133OSM   H17T14407   4.211   3.799   8.005  0.5726 -0.7127  0.9978
  133OSM   C18S14408   4.114   3.621   8.082  0.2953 -0.7530 -0.1961
  133OSM   H18S14409   4.184   3.535   8.085 -0.0914 -1.2361 -2.7884
  133OSM   H18T14410   4.012   3.578   8.083 -0.2310  0.4342  0.8358
  133OSM   H18U14411   4.114   3.673   8.180  2.7839  0.7699 -0.9185
  133OSM    C1F14412   3.632   3.668   6.762  0.3076  1.0082  0.2810
  133OSM     OF14413   3.528   3.626   6.711  0.0363 -0.0536 -0.0301
  133OSM    C2F14414   3.632   3.741   6.889  0.4077  0.9734  0.3388
  133OSM    H2F14415   3.647   3.850   6.870  1.6090  0.5499 -1.3176
  133OSM    H2G14416   3.719   3.702   6.946  1.5347 -0.0092 -1.9403
  133OSM    C3F14417   3.499   3.715   6.965 -0.5526 -0.2811  0.4517
  133OSM    H3F14418   3.468   3.608   6.968  0.4705 -0.5716  1.4034
  133OSM    H3G14419   3.415   3.775   6.923 -0.6277 -0.8124 -0.1653
  133OSM    C4F14420   3.498   3.767   7.106  0.1391 -0.2822  0.2710
  133OSM    H4F14421   3.407   3.744   7.166 -1.5030  1.1916 -1.5262
  133OSM    H4G14422   3.509   3.877   7.100  1.0425 -0.4468 -2.2098
  133OSM    C5F14423   3.609   3.712   7.192 -0.0199  1.4002 -0.1760
  133OSM    H5F14424   3.704   3.759   7.160 -0.2232  0.9748 -1.4397
  133OSM    H5G14425   3.626   3.606   7.163  3.3126  1.8819 -0.3816
  133OSM    C6F14426   3.590   3.730   7.341  0.4943  0.0635  0.3187
  133OSM    H6F14427   3.675   3.679   7.392 -0.1475  0.0893  1.4285
  133OSM    H6G14428   3.499   3.678   7.377  0.0022 -0.3693 -1.4745
  133OSM    C7F14429   3.572   3.875   7.383 -0.1364 -0.8053  0.6352
  133OSM    H7F14430   3.479   3.922   7.344  1.0020  0.9732 -0.0633
  133OSM    H7G14431   3.649   3.937   7.333 -0.9895 -0.4214 -0.2514
  133OSM    C8F14432   3.583   3.900   7.535  1.0624 -0.1062 -0.7978
  133OSM    H8F14433   3.551   4.007   7.537  1.4478  0.0071  1.4140
  133OSM    H8G14434   3.688   3.892   7.570  0.7236  0.1895  0.3104
  133OSM    C9F14435   3.489   3.824   7.622  0.2335  0.5839  0.8336
  133OSM    H9F14436   3.406   3.767   7.576  0.6914  1.5416 -1.3046
  133OSM   C10F14437   3.496   3.833   7.756  0.6110 -0.2108 -0.0046
  133OSM   H10F14438   3.433   3.774   7.824  1.9916 -1.1763  0.4870
  133OSM   C11F14439   3.593   3.914   7.829  0.2996 -0.1808 -0.5620
  133OSM   H11F14440   3.534   3.980   7.896  2.0991  2.2668 -1.2085
  133OSM   H11G14441   3.650   3.990   7.771  1.0935 -1.9027 -2.1455
  133OSM   C12F14442   3.690   3.834   7.925  0.0089  0.2346  0.9787
  133OSM   H12F14443   3.773   3.903   7.949  0.9769 -0.7176  0.4310
  133OSM   H12G14444   3.739   3.752   7.869  0.4825  2.2501 -1.7609
  133OSM   C13F14445   3.613   3.784   8.050 -0.0643  0.7212 -0.3483
  133OSM   H13F14446   3.544   3.706   8.012 -1.5806 -0.2810  3.9096
  133OSM   H13G14447   3.557   3.868   8.096  0.9862 -0.1128  2.6762
  133OSM   C14F14448   3.704   3.716   8.153  0.0670  0.3410  0.1856
  133OSM   H14F14449   3.801   3.765   8.180  0.3086  0.6692 -1.2007
  133OSM   H14G14450   3.735   3.620   8.106  0.5497  1.1565 -1.2446
  133OSM   C15F14451   3.632   3.671   8.279  0.0347 -0.7433  0.0540
  133OSM   H15F14452   3.550   3.607   8.241 -0.5625  1.5031 -2.8449
  133OSM   H15G14453   3.574   3.754   8.324  0.7149 -0.9413  1.3486
  133OSM   C16F14454   3.712   3.601   8.388  0.0183 -0.2138  0.0206
  133OSM   H16F14455   3.821   3.609   8.366  0.2278 -1.9394  0.2968
  133OSM   H16G14456   3.699   3.491   8.377 -1.1407  0.0573 -1.5674
  133OSM   C17F14457   3.685   3.656   8.528 -0.2395  0.5714  0.5079
  133OSM   H17F14458   3.577   3.636   8.540 -0.2656 -0.4071 -1.1895
  133OSM   H17G14459   3.712   3.764   8.522  0.0898  0.4489 -0.2943
  133OSM   C18F14460   3.762   3.591   8.640  0.2634  0.4155  0.3685
  133OSM   H18F14461   3.872   3.594   8.621  0.4160  0.5399  1.2098
  133OSM   H18G14462   3.732   3.485   8.653 -1.5695  0.7102 -1.1327
  133OSM   H18H14463   3.742   3.637   8.740 -1.7766 -1.6090  0.9822
  134OSM      N14464   5.143   1.832   6.257 -0.1961  0.3428  0.1695
  134OSM    C1514465   5.026   1.757   6.202  0.1835  0.0978  0.2258
  134OSM   H15A14466   5.050   1.679   6.131 -2.8282 -0.6601 -0.1343
  134OSM   H15B14467   4.970   1.826   6.140  0.9473  1.1827  0.7150
  134OSM   H15C14468   4.975   1.717   6.288  0.1783 -1.4541 -0.4648
  134OSM    C1414469   5.268   1.744   6.238  0.5858 -0.5154  0.0761
  134OSM   H14A14470   5.293   1.708   6.139  2.7681 -0.7108  0.6384
  134OSM   H14B14471   5.240   1.662   6.302 -2.0123  1.0467  1.0875
  134OSM   H14C14472   5.352   1.798   6.282  0.5265  0.6331 -1.1533
  134OSM    C1314473   5.174   1.949   6.178  0.4769 -0.0504  0.0546
  134OSM   H13A14474   5.094   2.021   6.175  2.2069  1.9443 -0.0486
  134OSM   H13B14475   5.216   1.931   6.080 -0.8055 -0.0141 -0.5293
  134OSM   H13C14476   5.249   2.009   6.228 -0.8400  3.0282 -1.3829
  134OSM    C1214477   5.121   1.868   6.403  0.0448 -0.2361 -0.0605
  134OSM   H12A14478   5.037   1.936   6.407  0.5410  0.4512 -0.8464
  134OSM   H12B14479   5.209   1.929   6.415  1.0374 -1.2314 -1.8610
  134OSM    C1114480   5.111   1.764   6.520  0.4273 -0.0836  0.8620
  134OSM   H11A14481   5.120   1.815   6.618  0.9367 -1.3067  1.4753
  134OSM   H11B14482   5.207   1.708   6.520  0.1253 -0.6125  0.6404
  134OSM      P14483   4.848   1.724   6.532 -0.2591 -0.1918  0.0615
  134OSM    O1314484   4.822   1.820   6.424  0.1904 -0.4271 -0.8054
  134OSM    O1414485   4.756   1.608   6.537 -0.3300 -0.1645  0.3881
  134OSM    O1114486   4.845   1.786   6.676  0.1154 -0.0512  0.4536
  134OSM    O1214487   4.994   1.675   6.505 -0.2613  0.3458  0.4199
  134OSM    C1S14488   4.888   1.708   6.785  0.5937  0.3106 -0.6252
  134OSM    H1S14489   4.997   1.688   6.785  0.7149  0.7225  1.4482
  134OSM    H1T14490   4.840   1.607   6.779 -0.2104  0.6397 -0.0113
  134OSM     NF14491   4.918   1.694   7.025  0.6810 -0.5882 -0.1006
  134OSM    HNF14492   4.873   1.617   7.070  0.4751  0.1073  0.9183
  134OSM    C2S14493   4.839   1.764   6.922 -0.4407 -0.5255  0.0433
  134OSM    H2S14494   4.870   1.871   6.921 -2.9616  0.2649 -0.4529
  134OSM    C3S14495   4.687   1.739   6.939  0.2424  0.2115  0.4561
  134OSM    H3S14496   4.666   1.631   6.955  0.8999  0.0690  0.3688
  134OSM     O314497   4.607   1.792   6.833 -0.5063  0.2067  0.9324
  134OSM    HO314498   4.678   1.820   6.774 -0.1008  2.6532  2.4844
  134OSM    C4S14499   4.637   1.794   7.069 -0.4438  0.1273 -0.1485
  134OSM    H4S14500   4.599   1.715   7.135 -1.9516 -1.4016 -2.6872
  134OSM    C5S14501   4.619   1.924   7.106  0.6742  1.3000  0.0042
  134OSM    H5S14502   4.650   2.001   7.035  2.6202  1.5573  1.0382
  134OSM    C6S14503   4.572   1.967   7.243 -0.5703 -0.3767 -0.4252
  134OSM    H6S14504   4.480   2.029   7.254  0.7315  1.3498  1.2181
  134OSM    H6T14505   4.650   2.037   7.279  1.2390 -1.3379 -2.2806
  134OSM    C7S14506   4.566   1.853   7.356  0.5064  0.2304 -0.1480
  134OSM    H7S14507   4.663   1.799   7.368  0.1204 -0.2778  0.7495
  134OSM    H7T14508   4.485   1.784   7.322 -1.3398  2.0049  0.4859
  134OSM    C8S14509   4.538   1.915   7.497  0.4580 -0.1712 -0.3534
  134OSM    H8S14510   4.431   1.945   7.503  0.6203  0.9503 -2.3882
  134OSM    H8T14511   4.605   1.998   7.525 -1.0291  1.2016 -0.7184
  134OSM    C9S14512   4.536   1.805   7.604 -0.2414  0.4276 -0.0565
  134OSM    H9S14513   4.636   1.777   7.645 -1.0462 -3.1267 -0.1968
  134OSM    H9T14514   4.508   1.709   7.557 -1.1153  0.8717 -0.4574
  134OSM   C10S14515   4.443   1.829   7.719  0.0211 -0.0891 -0.1401
  134OSM   H10S14516   4.335   1.828   7.693  0.0960 -0.5015 -0.4489
  134OSM   H10T14517   4.473   1.926   7.763 -0.1005  1.2368 -2.8311
  134OSM   C11S14518   4.463   1.715   7.824  0.4653  0.3922 -0.6499
  134OSM   H11S14519   4.573   1.705   7.836  0.5374 -1.6499 -2.5156
  134OSM   H11T14520   4.418   1.623   7.781  0.2342  0.1891  0.0068
  134OSM   C12S14521   4.405   1.719   7.962  0.2892 -0.4958  0.2612
  134OSM   H12S14522   4.421   1.627   8.024  0.6364 -0.5396  0.1072
  134OSM   H12T14523   4.296   1.735   7.951  0.4803  0.4997 -0.2198
  134OSM   C13S14524   4.464   1.838   8.045 -0.1518 -0.2431 -0.1385
  134OSM   H13S14525   4.433   1.934   7.998  0.1575  0.2799  0.7172
  134OSM   H13T14526   4.574   1.829   8.054  0.2267  1.1829 -2.4229
  134OSM   C14S14527   4.419   1.824   8.193  0.5359 -0.0799 -0.5716
  134OSM   H14S14528   4.454   1.738   8.254 -0.4167 -0.5319 -0.6465
  134OSM   H14T14529   4.309   1.816   8.198  0.5398  0.0144 -0.3437
  134OSM   C15S14530   4.453   1.958   8.275 -0.2029 -1.0463 -0.3585
  134OSM   H15S14531   4.562   1.982   8.280 -0.4024 -0.1399 -0.1257
  134OSM   H15T14532   4.424   1.932   8.379  0.9885 -0.8383  0.0535
  134OSM   C16S14533   4.371   2.082   8.230 -0.0791  0.1438  0.0777
  134OSM   H16S14534   4.263   2.059   8.239 -0.3179  1.6351  1.6482
  134OSM   H16T14535   4.402   2.101   8.125  1.0348 -3.3861 -0.3370
  134OSM   C17S14536   4.403   2.204   8.320 -0.1096  0.2980  0.0984
  134OSM   H17S14537   4.509   2.222   8.294 -0.5327  0.0466 -2.0131
  134OSM   H17T14538   4.404   2.173   8.427  1.4469 -1.1393 -0.2929
  134OSM   C18S14539   4.337   2.338   8.295  0.1791  0.8168  1.1238
  134OSM   H18S14540   4.227   2.328   8.313 -0.0832  0.8852 -0.3442
  134OSM   H18T14541   4.359   2.368   8.191 -1.3998  0.8695  0.7736
  134OSM   H18U14542   4.369   2.415   8.368 -2.4595  2.8723  0.2982
  134OSM    C1F14543   5.050   1.716   7.045  1.0589 -0.1452  0.0973
  134OSM     OF14544   5.115   1.785   6.964 -0.7879  0.7233 -0.6085
  134OSM    C2F14545   5.119   1.645   7.155  0.5564 -0.0680  0.3653
  134OSM    H2F14546   5.128   1.541   7.117  0.0783 -0.2814  0.8250
  134OSM    H2G14547   5.064   1.639   7.252 -1.6118  1.3411 -0.7015
  134OSM    C3F14548   5.261   1.698   7.175  0.1668 -0.5721  1.0829
  134OSM    H3F14549   5.251   1.808   7.184 -3.1663 -0.4372 -1.6506
  134OSM    H3G14550   5.315   1.666   7.083  1.2132  1.0410  1.0997
  134OSM    C4F14551   5.343   1.643   7.300 -0.4336  0.3201 -0.6736
  134OSM    H4F14552   5.286   1.673   7.390  1.9491  1.3655  0.5412
  134OSM    H4G14553   5.443   1.690   7.299 -0.1027 -0.3021 -2.7035
  134OSM    C5F14554   5.366   1.491   7.311  0.0864  0.3733  0.3725
  134OSM    H5F14555   5.440   1.457   7.236 -0.0757  1.6768 -0.4229
  134OSM    H5G14556   5.273   1.432   7.305  0.4664 -0.2526  0.5966
  134OSM    C6F14557   5.428   1.462   7.453 -0.1037 -0.2502  0.5127
  134OSM    H6F14558   5.528   1.510   7.462  0.9464 -0.6247 -5.3354
  134OSM    H6G14559   5.435   1.351   7.465  0.1613 -0.4274 -1.0478
  134OSM    C7F14560   5.335   1.505   7.572 -0.7208 -0.5919  0.0195
  134OSM    H7F14561   5.234   1.472   7.541 -1.0521  0.0801  0.3705
  134OSM    H7G14562   5.335   1.616   7.575  1.7478 -0.4094 -2.1395
  134OSM    C8F14563   5.376   1.437   7.710 -0.6069 -0.5411  0.0616
  134OSM    H8F14564   5.476   1.477   7.739 -0.7053  0.6484 -1.1167
  134OSM    H8G14565   5.387   1.328   7.695 -0.4966 -0.6437  0.8686
  134OSM    C9F14566   5.274   1.469   7.814  0.0747 -0.1548  0.1621
  134OSM    H9F14567   5.179   1.415   7.806 -0.5610  1.1464 -1.7759
  134OSM   C10F14568   5.292   1.556   7.915 -0.4704 -0.3200 -0.5716
  134OSM   H10F14569   5.211   1.575   7.986  0.5915  1.0251  0.3356
  134OSM   C11F14570   5.412   1.639   7.944 -0.3037  0.2373 -0.5995
  134OSM   H11F14571   5.469   1.646   7.849  1.3404 -0.9897  0.2379
  134OSM   H11G14572   5.489   1.586   8.005  0.3825  0.0655 -1.5944
  134OSM   C12F14573   5.386   1.787   7.985 -0.2548  0.1232 -0.1606
  134OSM   H12F14574   5.311   1.827   7.914 -0.2938 -0.0545 -0.2186
  134OSM   H12G14575   5.484   1.834   7.961  0.2206 -0.6422  0.2248
  134OSM   C13F14576   5.326   1.817   8.123 -0.9279 -0.0584 -0.0365
  134OSM   H13F14577   5.404   1.797   8.200 -1.1391 -0.1375  0.1582
  134OSM   H13G14578   5.239   1.752   8.148 -1.0712  0.5757  1.2152
  134OSM   C14F14579   5.303   1.966   8.123 -0.2237 -0.2177 -0.0811
  134OSM   H14F14580   5.210   2.001   8.073  0.7084  0.3318 -1.4724
  134OSM   H14G14581   5.396   2.010   8.083  0.4825 -0.3992  1.2903
  134OSM   C15F14582   5.293   2.029   8.264  0.2826 -0.0527 -0.0888
  134OSM   H15F14583   5.278   2.139   8.262 -0.2035 -0.0481  2.0050
  134OSM   H15G14584   5.393   2.026   8.312  1.2470  1.7463 -1.8399
  134OSM   C16F14585   5.179   1.976   8.368  0.3825  0.0332 -0.5002
  134OSM   H16F14586   5.184   1.866   8.380 -3.0620 -0.2430 -0.7770
  134OSM   H16G14587   5.080   1.988   8.319  0.8667  0.2666 -1.4628
  134OSM   C17F14588   5.181   2.062   8.489 -0.2818  0.1054  0.6659
  134OSM   H17F14589   5.097   2.032   8.554  0.4194 -2.2513  0.5821
  134OSM   H17G14590   5.160   2.167   8.459 -1.5974 -0.5921 -1.0020
  134OSM   C18F14591   5.303   2.037   8.574 -0.4824 -0.0919  0.1206
  134OSM   H18F14592   5.314   1.926   8.580  2.2472  0.1491  0.6533
  134OSM   H18G14593   5.299   2.090   8.671  2.6940  1.8727 -0.6811
  134OSM   H18H14594   5.397   2.075   8.529  0.1063  0.8390  2.0455
  135OSM      N14595   5.338   2.550   6.383  0.0172  0.4793 -0.4081
  135OSM    C1514596   5.283   2.460   6.278  0.1205  0.1459 -0.1263
  135OSM   H15A14597   5.293   2.513   6.185  1.9147 -1.0703 -0.6773
  135OSM   H15B14598   5.181   2.437   6.306  0.7840 -0.0573  2.3953
  135OSM   H15C14599   5.335   2.366   6.269  0.3942  0.1286  1.2875
  135OSM    C1414600   5.473   2.587   6.339  0.0011  0.2199 -0.3572
  135OSM   H14A14601   5.472   2.650   6.251  1.8470 -2.1921 -2.2364
  135OSM   H14B14602   5.533   2.499   6.324 -2.2419 -1.5734  0.6139
  135OSM   H14C14603   5.512   2.651   6.417 -1.8590  0.3697  0.5103
  135OSM    C1314604   5.252   2.670   6.388  0.1892 -0.0393 -0.4389
  135OSM   H13A14605   5.274   2.734   6.304 -1.7069 -0.1368 -1.0407
  135OSM   H13B14606   5.265   2.720   6.484 -1.8832  2.9515 -1.5668
  135OSM   H13C14607   5.151   2.634   6.376  0.3805 -0.2311 -1.5932
  135OSM    C1214608   5.356   2.479   6.520 -0.5397  0.7165 -0.0423
  135OSM   H12A14609   5.431   2.531   6.577  0.8474 -0.7779 -0.4030
  135OSM   H12B14610   5.390   2.378   6.500 -0.4732  0.3573  1.7831
  135OSM    C1114611   5.228   2.465   6.600 -0.0025 -0.0619  0.3784
  135OSM   H11A14612   5.186   2.568   6.605 -1.4185 -0.6426  1.0944
  135OSM   H11B14613   5.251   2.439   6.705 -2.0275  0.5909  1.0457
  135OSM      P14614   5.134   2.229   6.554  0.1153  0.1174 -0.5362
  135OSM    O1314615   5.058   2.150   6.459 -0.4581 -0.6530  0.0371
  135OSM    O1414616   5.273   2.198   6.558 -0.7326  0.3939  0.2538
  135OSM    O1114617   5.075   2.207   6.692 -0.4044 -0.2606 -0.4715
  135OSM    O1214618   5.125   2.387   6.531 -0.6265  0.1080  0.0962
  135OSM    C1S14619   4.992   2.298   6.762  0.4517 -0.0212  0.2210
  135OSM    H1S14620   4.904   2.331   6.703 -0.0751 -0.7118  0.6039
  135OSM    H1T14621   5.049   2.390   6.788 -0.2012 -0.0676  1.9333
  135OSM     NF14622   4.819   2.278   6.937  0.2757 -0.1026 -0.3473
  135OSM    HNF14623   4.830   2.362   6.990  1.9979  0.0251 -0.8466
  135OSM    C2S14624   4.943   2.219   6.880 -0.0606 -0.6490  0.2324
  135OSM    H2S14625   4.918   2.121   6.833  0.8623  0.1874 -2.1939
  135OSM    C3S14626   5.048   2.188   6.993  0.3155 -0.0584  0.3740
  135OSM    H3S14627   5.067   2.287   7.038  2.0586  0.0392 -0.4812
  135OSM     O314628   5.163   2.138   6.936 -0.4507  0.3628  0.8183
  135OSM    HO314629   5.149   2.152   6.842 -0.5612 -2.6478  0.2953
  135OSM    C4S14630   4.991   2.089   7.093  0.4777  0.2088 -0.1189
  135OSM    H4S14631   4.965   1.989   7.053  1.0514 -0.0833  0.2240
  135OSM    C5S14632   4.994   2.104   7.225  0.1628  0.5786  0.0871
  135OSM    H5S14633   5.025   2.197   7.274  0.0195  1.6257 -1.7247
  135OSM    C6S14634   4.938   1.992   7.311 -0.2160 -0.2244  0.3316
  135OSM    H6S14635   4.882   1.921   7.246 -0.1008  0.5927 -0.6898
  135OSM    H6T14636   4.863   2.027   7.385 -0.7727 -4.2274  1.8676
  135OSM    C7S14637   5.045   1.913   7.394  0.4667 -0.0273  0.4912
  135OSM    H7S14638   5.108   1.970   7.465 -0.2729 -1.5767  2.5128
  135OSM    H7T14639   5.122   1.866   7.329  0.1157  2.1940 -1.6741
  135OSM    C8S14640   4.980   1.794   7.469 -0.1588  0.3222 -0.7642
  135OSM    H8S14641   5.058   1.715   7.472  0.6734  1.1278 -0.6355
  135OSM    H8T14642   4.889   1.755   7.418  0.7465 -0.2117 -2.0255
  135OSM    C9S14643   4.949   1.851   7.607 -0.2331 -0.2397 -0.1264
  135OSM    H9S14644   4.856   1.912   7.607 -1.2711 -1.7331 -1.4490
  135OSM    H9T14645   5.032   1.918   7.639  0.4222 -0.9924 -0.2366
  135OSM   C10S14646   4.926   1.733   7.699  0.6008  0.1169  0.3326
  135OSM   H10S14647   5.016   1.669   7.699  0.6338  0.1579 -0.6427
  135OSM   H10T14648   4.841   1.669   7.666  1.3169 -0.9065  0.4568
  135OSM   C11S14649   4.894   1.783   7.840 -0.3000 -0.7200 -0.3516
  135OSM   H11S14650   4.805   1.848   7.825  0.4641  0.8529  1.4891
  135OSM   H11T14651   4.972   1.852   7.880 -1.2377 -0.0141  0.3116
  135OSM   C12S14652   4.859   1.681   7.942  0.4129 -0.1593 -0.8996
  135OSM   H12S14653   4.929   1.595   7.947 -1.2195 -1.4690  0.5489
  135OSM   H12T14654   4.756   1.649   7.915  0.7673 -2.2241 -0.0052
  135OSM   C13S14655   4.870   1.750   8.081 -0.1567  0.0531  0.0562
  135OSM   H13S14656   4.799   1.835   8.076 -1.9823 -1.3524  1.1520
  135OSM   H13T14657   4.975   1.785   8.095 -0.7037  2.2210 -0.8786
  135OSM   C14S14658   4.853   1.660   8.195 -0.2739 -0.5017 -0.0684
  135OSM   H14S14659   4.932   1.583   8.179  0.3969  0.2731 -0.5758
  135OSM   H14T14660   4.755   1.609   8.192 -2.1907  2.7667  1.2326
  135OSM   C15S14661   4.869   1.722   8.339 -0.3209 -0.4638 -0.4219
  135OSM   H15S14662   4.968   1.770   8.325  2.0752 -5.0735 -1.0955
  135OSM   H15T14663   4.874   1.647   8.420  1.1058 -0.2632 -0.3022
  135OSM   C16S14664   4.770   1.828   8.374 -0.3612  0.1794 -0.7271
  135OSM   H16S14665   4.668   1.786   8.363  0.5348 -2.4896  0.4476
  135OSM   H16T14666   4.793   1.910   8.303  0.8306  0.7637  0.2980
  135OSM   C17S14667   4.782   1.878   8.519  0.6341  0.5508 -0.0887
  135OSM   H17S14668   4.874   1.940   8.517  0.2385  1.1610  0.5175
  135OSM   H17T14669   4.803   1.791   8.585 -1.6222  0.7201  0.9295
  135OSM   C18S14670   4.664   1.950   8.577  0.5464  0.4737 -0.5064
  135OSM   H18S14671   4.692   1.980   8.681  2.0499 -1.2811 -0.3705
  135OSM   H18T14672   4.582   1.875   8.579  2.7638 -2.0676 -0.7355
  135OSM   H18U14673   4.641   2.028   8.501 -1.7246 -0.2246 -0.6072
  135OSM    C1F14674   4.697   2.243   6.890 -0.7436  0.3280 -0.2705
  135OSM     OF14675   4.688   2.176   6.789 -0.4517  0.2238  0.4367
  135OSM    C2F14676   4.566   2.286   6.962 -0.6100 -0.2125 -0.6167
  135OSM    H2F14677   4.573   2.396   6.980  1.3667 -0.3966 -0.0456
  135OSM    H2G14678   4.559   2.233   7.060 -0.3232 -1.3473 -1.1921
  135OSM    C3F14679   4.437   2.259   6.887 -0.0715 -0.3450 -0.1614
  135OSM    H3F14680   4.414   2.151   6.875 -0.4080 -0.4411  1.1955
  135OSM    H3G14681   4.445   2.300   6.784 -1.3157 -0.6586 -0.3972
  135OSM    C4F14682   4.306   2.323   6.940 -0.2821 -0.0873  0.0191
  135OSM    H4F14683   4.230   2.329   6.860  1.0952 -1.0743 -1.4239
  135OSM    H4G14684   4.324   2.430   6.962  1.4578  0.2622 -2.6302
  135OSM    C5F14685   4.247   2.255   7.068  1.3373  0.0653  0.1525
  135OSM    H5F14686   4.321   2.237   7.149  1.0238 -0.6564  0.2935
  135OSM    H5G14687   4.199   2.159   7.039  0.1488  0.2295  1.4672
  135OSM    C6F14688   4.138   2.342   7.133  0.3045  0.0225  0.2820
  135OSM    H6F14689   4.057   2.358   7.058  0.4481  0.9182  0.3019
  135OSM    H6G14690   4.186   2.441   7.152  0.5117  0.3380 -1.6121
  135OSM    C7F14691   4.086   2.297   7.270  0.3441 -0.6884  0.3394
  135OSM    H7F14692   4.159   2.243   7.333  0.5182 -0.4769  0.3194
  135OSM    H7G14693   4.006   2.224   7.243  0.6895 -0.7403 -0.5520
  135OSM    C8F14694   4.021   2.402   7.361 -0.1537 -0.1775  0.3611
  135OSM    H8F14695   4.079   2.497   7.359  1.6292 -1.2252 -1.0294
  135OSM    H8G14696   4.036   2.363   7.464  1.0687 -1.7585 -0.3677
  135OSM    C9F14697   3.872   2.415   7.332 -0.1502 -0.3684  0.4555
  135OSM    H9F14698   3.844   2.388   7.229  1.1011 -2.0729  0.5164
  135OSM   C10F14699   3.786   2.485   7.413  0.0697 -0.3299 -0.1052
  135OSM   H10F14700   3.684   2.514   7.384 -0.3918 -1.3019  0.4999
  135OSM   C11F14701   3.818   2.540   7.553  0.0264 -0.3344  0.0373
  135OSM   H11F14702   3.803   2.650   7.553 -0.6906 -0.4281  0.0387
  135OSM   H11G14703   3.928   2.534   7.573  0.0342  0.8011  0.3659
  135OSM   C12F14704   3.747   2.463   7.658  0.0715  0.6123  0.4911
  135OSM   H12F14705   3.785   2.360   7.643  1.2939  1.1005  0.1571
  135OSM   H12G14706   3.636   2.468   7.657  0.0365 -0.0510 -1.0015
  135OSM   C13F14707   3.786   2.499   7.800  0.9827  0.7460 -0.4063
  135OSM   H13F14708   3.740   2.594   7.837 -3.4762 -0.5959 -1.8771
  135OSM   H13G14709   3.894   2.524   7.802  1.1127  0.2047 -0.5727
  135OSM   C14F14710   3.753   2.387   7.899 -0.2499 -0.5183  1.0360
  135OSM   H14F14711   3.762   2.291   7.844 -1.2138 -0.0326  0.0124
  135OSM   H14G14712   3.648   2.387   7.935 -0.5205 -1.3485  0.2821
  135OSM   C15F14713   3.853   2.385   8.022 -0.4844 -0.7963  0.2728
  135OSM   H15F14714   3.957   2.400   7.989  0.3640  0.5605  3.1837
  135OSM   H15G14715   3.842   2.291   8.080 -2.0860 -0.0161  1.3302
  135OSM   C16F14716   3.825   2.502   8.119 -0.1109  0.6885  0.1767
  135OSM   H16F14717   3.719   2.482   8.146  0.6508 -1.4138  1.8433
  135OSM   H16G14718   3.831   2.594   8.057 -0.5601  0.2803 -0.4872
  135OSM   C17F14719   3.918   2.517   8.239 -0.2280 -0.1297 -0.1681
  135OSM   H17F14720   4.013   2.543   8.188 -0.5300 -1.1667 -1.2955
  135OSM   H17G14721   3.936   2.412   8.272 -0.1578 -0.0223  0.1479
  135OSM   C18F14722   3.866   2.612   8.341  1.0104 -0.1978  0.8030
  135OSM   H18F14723   3.837   2.711   8.300  0.6276  0.0733  1.7069
  135OSM   H18G14724   3.942   2.638   8.417 -0.2711  1.2140  1.6572
  135OSM   H18H14725   3.786   2.555   8.394 -1.2382 -0.4919 -2.5455
  136OSM      N14726   2.171   0.442   6.028 -0.0956 -0.3324 -0.4436
  136OSM    C1514727   2.102   0.355   5.923  0.2432  0.0356 -0.1460
  136OSM   H15A14728   2.129   0.251   5.934 -1.4940 -0.6385 -1.6255
  136OSM   H15B14729   2.125   0.381   5.821 -2.4269 -2.4982 -1.5578
  136OSM   H15C14730   1.994   0.364   5.934  0.2463 -1.3648  1.4440
  136OSM    C1414731   2.205   0.359   6.150  0.2599  0.3301 -0.0690
  136OSM   H14A14732   2.295   0.299   6.139  2.5723  3.0279  2.3306
  136OSM   H14B14733   2.127   0.291   6.180  0.8889 -0.8963 -1.0526
  136OSM   H14C14734   2.220   0.418   6.238 -0.4856  1.0683 -0.4291
  136OSM    C1314735   2.297   0.510   5.980  0.3710  0.9147  0.7423
  136OSM   H13A14736   2.342   0.575   6.053  1.1184  1.0238  0.1938
  136OSM   H13B14737   2.283   0.569   5.890  3.4665  2.5436  1.1702
  136OSM   H13C14738   2.367   0.429   5.968 -2.1449 -1.3310  0.4433
  136OSM    C1214739   2.074   0.544   6.070 -0.6168 -0.0179  0.2602
  136OSM   H12A14740   1.997   0.491   6.124 -0.0415 -3.4741 -1.9339
  136OSM   H12B14741   2.018   0.584   5.986  1.0837  0.9390 -0.4718
  136OSM    C1114742   2.130   0.661   6.157  0.1559  0.4169 -0.8973
  136OSM   H11A14743   2.172   0.735   6.087 -1.1070  3.1025  1.0210
  136OSM   H11B14744   2.208   0.635   6.233 -3.6333 -1.5536  2.7693
  136OSM      P14745   1.926   0.662   6.330  0.1166 -0.0761  0.0264
  136OSM    O1314746   1.811   0.754   6.349  0.0632 -0.2418  0.5861
  136OSM    O1414747   1.900   0.520   6.303  0.3055  0.0509 -0.3084
  136OSM    O1114748   2.020   0.675   6.462  0.6260 -0.9202 -0.0081
  136OSM    O1214749   2.017   0.722   6.222  0.7982 -0.1635 -0.0399
  136OSM    C1S14750   2.099   0.795   6.491 -0.0911 -0.1433 -0.0815
  136OSM    H1S14751   2.044   0.883   6.452  0.9297  0.3688 -0.3837
  136OSM    H1T14752   2.197   0.797   6.439 -0.3211  2.4371 -0.5492
  136OSM     NF14753   2.191   0.954   6.660 -0.2858  0.6100  0.1684
  136OSM    HNF14754   2.290   0.950   6.672  0.0366  1.2832 -1.9441
  136OSM    C2S14755   2.121   0.826   6.644 -0.7936  0.2423  0.5044
  136OSM    H2S14756   2.020   0.835   6.689 -0.2765 -0.2453  1.8310
  136OSM    C3S14757   2.202   0.709   6.706  0.2680  0.2643  0.1119
  136OSM    H3S14758   2.302   0.683   6.665  0.0303 -1.1893  0.3930
  136OSM     O314759   2.136   0.584   6.679 -0.6567  0.1238 -0.0732
  136OSM    HO314760   2.075   0.612   6.610  0.8217  1.9855 -0.7242
  136OSM    C4S14761   2.195   0.727   6.850  0.1806 -0.7493  0.2601
  136OSM    H4S14762   2.095   0.705   6.891 -0.0246  2.9826  2.1932
  136OSM    C5S14763   2.299   0.742   6.936 -0.7818  0.0872 -0.2082
  136OSM    H5S14764   2.404   0.727   6.906 -0.1567  0.3091  1.7257
  136OSM    C6S14765   2.279   0.748   7.082  0.5468 -0.3805 -0.1314
  136OSM    H6S14766   2.169   0.739   7.096  0.7483 -2.2863  0.5774
  136OSM    H6T14767   2.312   0.850   7.111 -0.3296 -0.7491  2.3652
  136OSM    C7S14768   2.335   0.653   7.186  0.8448 -0.7173 -0.5874
  136OSM    H7S14769   2.444   0.670   7.190  1.2294 -3.0117  0.7492
  136OSM    H7T14770   2.309   0.547   7.164 -0.8842  0.1368 -3.2292
  136OSM    C8S14771   2.299   0.691   7.334 -0.5731 -0.0524 -0.2929
  136OSM    H8S14772   2.188   0.690   7.337 -0.6179 -3.4467  0.7186
  136OSM    H8T14773   2.332   0.794   7.362  0.3740  0.2475 -2.3251
  136OSM    C9S14774   2.356   0.589   7.436  0.0623 -0.1896 -0.1395
  136OSM    H9S14775   2.457   0.612   7.476 -0.5633  1.4009  0.6117
  136OSM    H9T14776   2.358   0.492   7.382  1.1628 -0.0252 -0.4106
  136OSM   C10S14777   2.264   0.575   7.554 -0.2086 -0.2485  0.2469
  136OSM   H10S14778   2.160   0.561   7.517  0.6424 -0.8587 -2.0484
  136OSM   H10T14779   2.278   0.660   7.624  0.4308 -0.9362  0.9789
  136OSM   C11S14780   2.295   0.469   7.649 -0.0456  0.2595 -0.6149
  136OSM   H11S14781   2.382   0.498   7.712  1.4586 -1.6716 -1.7129
  136OSM   H11T14782   2.321   0.373   7.601  0.3914 -0.9705  1.8986
  136OSM   C12S14783   2.177   0.450   7.743 -0.2253  0.0873 -0.7461
  136OSM   H12S14784   2.173   0.351   7.793 -0.2360  1.0788  1.3170
  136OSM   H12T14785   2.078   0.453   7.691 -1.3307 -0.2931  1.2470
  136OSM   C13S14786   2.169   0.538   7.868 -0.1568 -0.3667  1.1270
  136OSM   H13S14787   2.178   0.643   7.833  2.2803 -0.4969  1.2096
  136OSM   H13T14788   2.255   0.518   7.935 -0.3526 -0.4041  1.3669
  136OSM   C14S14789   2.034   0.521   7.936  0.0656  0.2971 -0.9911
  136OSM   H14S14790   2.021   0.411   7.942  1.0004  0.0401 -2.9822
  136OSM   H14T14791   1.952   0.580   7.890 -1.4282  0.3128  1.5108
  136OSM   C15S14792   2.042   0.572   8.083  0.6965  0.0970 -0.5767
  136OSM   H15S14793   2.053   0.682   8.082 -1.4177  0.3503 -1.8718
  136OSM   H15T14794   2.135   0.545   8.137 -0.0889  0.8159  1.2043
  136OSM   C16S14795   1.916   0.537   8.169 -0.2873 -0.1400 -0.5187
  136OSM   H16S14796   1.891   0.429   8.161 -1.9038 -0.1564  3.0769
  136OSM   H16T14797   1.841   0.600   8.117  0.0738  0.9244  0.2119
  136OSM   C17S14798   1.926   0.571   8.314  0.4404 -0.3677 -0.2668
  136OSM   H17S14799   1.964   0.674   8.327  0.5210 -0.6990  3.0000
  136OSM   H17T14800   2.002   0.510   8.366  0.3568  1.6548  2.4201
  136OSM   C18S14801   1.796   0.564   8.389 -0.0959  0.2472 -0.4251
  136OSM   H18S14802   1.812   0.594   8.495 -1.0034 -2.8616  0.6919
  136OSM   H18T14803   1.763   0.458   8.394  1.6596 -0.5048 -2.7520
  136OSM   H18U14804   1.714   0.626   8.345  0.3305  0.2277 -1.2715
  136OSM    C1F14805   2.126   1.066   6.623 -0.1600  0.3125  0.2958
  136OSM     OF14806   1.997   1.067   6.633 -0.9278  0.3989 -0.2846
  136OSM    C2F14807   2.206   1.186   6.576 -0.4934  0.2227  0.1262
  136OSM    H2F14808   2.166   1.214   6.477 -2.2943 -1.0622  0.4248
  136OSM    H2G14809   2.311   1.151   6.580  0.6516  3.1917 -1.2178
  136OSM    C3F14810   2.186   1.315   6.659 -0.1772 -0.0248 -0.2234
  136OSM    H3F14811   2.079   1.342   6.650  0.1701  0.8272 -2.4107
  136OSM    H3G14812   2.239   1.397   6.606  1.5652 -0.3129  0.9695
  136OSM    C4F14813   2.238   1.321   6.801  0.9247 -0.8483 -0.0337
  136OSM    H4F14814   2.174   1.256   6.865 -2.5174  1.3723 -0.9227
  136OSM    H4G14815   2.215   1.426   6.827 -0.4296 -0.5447 -2.1972
  136OSM    C5F14816   2.388   1.292   6.804  0.0567  0.1761 -0.0147
  136OSM    H5F14817   2.430   1.340   6.713 -1.1877  2.7357  0.6630
  136OSM    H5G14818   2.415   1.185   6.791 -0.6116 -0.0098  0.1031
  136OSM    C6F14819   2.466   1.367   6.909  0.2390  0.3001 -0.5032
  136OSM    H6F14820   2.443   1.476   6.906  0.1309  0.2780 -0.4805
  136OSM    H6G14821   2.574   1.352   6.886  0.2433 -0.6962  0.1148
  136OSM    C7F14822   2.435   1.307   7.050  0.0745 -0.0981 -0.2284
  136OSM    H7F14823   2.451   1.197   7.056 -0.2750 -0.1162  0.4404
  136OSM    H7G14824   2.327   1.321   7.073  0.0956  0.2589 -0.3467
  136OSM    C8F14825   2.506   1.379   7.170 -0.1898 -0.1715 -0.7203
  136OSM    H8F14826   2.471   1.484   7.175  0.7604  0.1739 -1.0053
  136OSM    H8G14827   2.611   1.399   7.137 -1.0263  1.0065 -2.8521
  136OSM    C9F14828   2.504   1.307   7.304 -0.1824 -0.0651  0.4971
  136OSM    H9F14829   2.574   1.223   7.306 -1.1485 -0.8827  1.0127
  136OSM   C10F14830   2.403   1.322   7.400  0.2921  0.3883 -0.0582
  136OSM   H10F14831   2.399   1.257   7.488  1.5185  0.0513 -0.2372
  136OSM   C11F14832   2.287   1.416   7.384  0.5906  0.4951 -0.5794
  136OSM   H11F14833   2.222   1.389   7.298  1.0303  2.1831 -1.4964
  136OSM   H11G14834   2.336   1.515   7.364  1.3293 -0.0149 -1.3711
  136OSM   C12F14835   2.190   1.437   7.508  0.0646  0.3380 -0.0228
  136OSM   H12F14836   2.152   1.335   7.532 -0.2750  0.1903 -1.1241
  136OSM   H12G14837   2.100   1.498   7.484  0.8559  1.2360 -0.8099
  136OSM   C13F14838   2.247   1.490   7.635  0.3880 -0.4963  0.1130
  136OSM   H13F14839   2.274   1.595   7.609 -1.4481 -0.2565 -0.9551
  136OSM   H13G14840   2.341   1.438   7.665  1.2945  0.9001 -0.1893
  136OSM   C14F14841   2.151   1.487   7.762  0.8116  0.1536 -0.6002
  136OSM   H14F14842   2.117   1.384   7.783  0.8307  0.1859 -0.4146
  136OSM   H14G14843   2.068   1.557   7.740  0.7784 -0.0477 -1.1272
  136OSM   C15F14844   2.234   1.537   7.884 -0.5542 -0.1659 -0.2508
  136OSM   H15F14845   2.293   1.627   7.854 -0.8504 -0.7107 -2.6803
  136OSM   H15G14846   2.304   1.456   7.911 -0.9737 -0.5728 -0.3830
  136OSM   C16F14847   2.146   1.543   8.007  0.5674  0.0106 -1.1183
  136OSM   H16F14848   2.211   1.586   8.086  0.9918 -1.0247 -0.8864
  136OSM   H16G14849   2.112   1.447   8.050 -1.5926  0.4957 -1.6234
  136OSM   C17F14850   2.012   1.616   7.998 -0.1684  0.0816 -0.4553
  136OSM   H17F14851   1.929   1.580   8.062 -0.7575 -1.4289 -1.9888
  136OSM   H17G14852   1.972   1.601   7.895  2.8533 -1.6624 -1.5285
  136OSM   C18F14853   2.033   1.764   8.017 -0.6792  0.0078 -0.1325
  136OSM   H18F14854   2.084   1.777   8.115  0.9607 -1.5103 -0.7337
  136OSM   H18G14855   1.941   1.826   8.018 -0.1757  0.7710  0.6363
  136OSM   H18H14856   2.103   1.804   7.940  1.2270  0.5976  1.7802
  137OSM      N14857   5.440   6.136   6.426 -0.2451  0.1036 -0.4530
  137OSM    C1514858   5.519   6.095   6.302  0.3623 -0.1323 -0.5725
  137OSM   H15A14859   5.617   6.058   6.329  1.8333  2.5537 -1.9056
  137OSM   H15B14860   5.546   6.184   6.248 -0.0419 -0.3761 -1.1888
  137OSM   H15C14861   5.468   6.024   6.238  2.2946 -1.2802 -0.9187
  137OSM    C1414862   5.306   6.191   6.374  0.4052  0.3411 -0.3693
  137OSM   H14A14863   5.318   6.259   6.290 -0.7017  0.1172 -0.7318
  137OSM   H14B14864   5.249   6.237   6.454  0.2087 -1.2320  0.4386
  137OSM   H14C14865   5.257   6.104   6.332  0.5227 -1.3091  2.6419
  137OSM    C1314866   5.401   6.030   6.520 -0.1256 -0.6444  0.1421
  137OSM   H13A14867   5.487   5.979   6.561 -1.1348 -1.6276  1.0824
  137OSM   H13B14868   5.331   5.970   6.465 -2.8031  4.0292 -2.2124
  137OSM   H13C14869   5.339   6.075   6.597  0.5928  0.7455 -0.0453
  137OSM    C1214870   5.521   6.244   6.493  0.2099  0.2311 -0.4627
  137OSM   H12A14871   5.582   6.301   6.425  0.6863  1.4688  0.9283
  137OSM   H12B14872   5.595   6.193   6.552 -0.0040  0.8979  0.4121
  137OSM    C1114873   5.449   6.356   6.575  0.4852  0.0664  0.2627
  137OSM   H11A14874   5.522   6.397   6.648  1.4266  1.7697 -1.5484
  137OSM   H11B14875   5.371   6.315   6.643 -0.3834  0.2892 -0.5665
  137OSM      P14876   5.331   6.591   6.511  0.0753 -0.0741  0.5119
  137OSM    O1314877   5.437   6.691   6.499  0.5110  0.5751 -0.3503
  137OSM    O1414878   5.214   6.605   6.419 -0.4395 -0.4131 -0.3787
  137OSM    O1114879   5.282   6.602   6.663 -0.2490  0.4013  0.0735
  137OSM    O1214880   5.399   6.453   6.486 -0.3237 -0.0406  0.5184
  137OSM    C1S14881   5.141   6.573   6.690  0.2434  0.2957  0.0718
  137OSM    H1S14882   5.119   6.465   6.693 -1.7976  0.7098  2.2533
  137OSM    H1T14883   5.085   6.626   6.610  2.3183  0.4903 -1.3600
  137OSM     NF14884   4.943   6.599   6.836 -0.2582  0.2188 -0.1293
  137OSM    HNF14885   4.886   6.677   6.812 -2.1861 -1.4035 -1.1058
  137OSM    C2S14886   5.087   6.617   6.834 -0.0540  0.4589  0.5956
  137OSM    H2S14887   5.134   6.550   6.909  0.0186  0.3679  0.4702
  137OSM    C3S14888   5.140   6.755   6.875 -0.2341  0.4060  0.0723
  137OSM    H3S14889   5.071   6.819   6.817 -0.7591 -2.7046 -3.0704
  137OSM     O314890   5.267   6.802   6.842 -0.4635 -0.2930 -0.1362
  137OSM    HO314891   5.292   6.725   6.790 -1.6072 -1.2185  0.6290
  137OSM    C4S14892   5.129   6.781   7.021 -0.1351 -0.2886 -0.0067
  137OSM    H4S14893   5.162   6.703   7.091 -0.6867 -0.4708  0.0580
  137OSM    C5S14894   5.077   6.887   7.086  0.3155  0.4599 -0.2812
  137OSM    H5S14895   5.040   6.965   7.017 -2.1940  0.1345  0.5757
  137OSM    C6S14896   5.082   6.931   7.233  0.6440 -0.1147 -0.0756
  137OSM    H6S14897   5.090   7.041   7.231  0.8844 -0.1366 -0.4657
  137OSM    H6T14898   5.175   6.899   7.285  0.7823  0.3160 -0.0566
  137OSM    C7S14899   4.956   6.885   7.318  0.1156  0.0222  0.5033
  137OSM    H7S14900   4.977   6.777   7.328 -1.6685 -0.4270 -0.1926
  137OSM    H7T14901   4.860   6.909   7.267  0.7922  2.1331  0.1132
  137OSM    C8S14902   4.961   6.964   7.444  0.0783  0.2358 -0.8486
  137OSM    H8S14903   4.939   7.072   7.435  0.4997  0.3699 -0.3495
  137OSM    H8T14904   5.061   6.954   7.493 -0.7090  1.0033  0.9885
  137OSM    C9S14905   4.862   6.910   7.546 -0.4487  0.1391  0.9207
  137OSM    H9S14906   4.817   6.814   7.511  0.9042  0.3803 -1.6675
  137OSM    H9T14907   4.772   6.976   7.552 -1.0646 -0.6407  0.5082
  137OSM   C10S14908   4.940   6.905   7.680  0.3734 -0.0635  0.0837
  137OSM   H10S14909   4.975   7.003   7.716  0.9530  0.2605 -1.3103
  137OSM   H10T14910   5.029   6.839   7.686 -0.4564 -1.1491  1.1414
  137OSM   C11S14911   4.858   6.837   7.802 -0.5165  0.1946  0.5762
  137OSM   H11S14912   4.856   6.727   7.784  0.7422 -0.1038  2.0589
  137OSM   H11T14913   4.753   6.873   7.803 -1.4371 -2.2239 -0.8123
  137OSM   C12S14914   4.922   6.852   7.941 -0.2115  0.5060  0.0276
  137OSM   H12S14915   4.913   6.961   7.958 -2.2079  0.4436 -0.4166
  137OSM   H12T14916   5.030   6.825   7.950  0.1231  0.1750 -3.3715
  137OSM   C13S14917   4.838   6.790   8.051  0.2602 -0.0069  0.0401
  137OSM   H13S14918   4.821   6.680   8.042  0.0868 -0.2817  2.9776
  137OSM   H13T14919   4.742   6.846   8.049  0.8881  1.1231  0.7420
  137OSM   C14S14920   4.890   6.817   8.192 -0.3155  0.3327  0.0912
  137OSM   H14S14921   4.909   6.925   8.212 -1.1496  0.4241  0.4321
  137OSM   H14T14922   4.992   6.773   8.188 -0.8028 -0.7326 -1.1156
  137OSM   C15S14923   4.806   6.735   8.292 -0.6305  0.0272 -0.1510
  137OSM   H15S14924   4.806   6.627   8.267  3.3301 -0.1718 -0.0527
  137OSM   H15T14925   4.703   6.775   8.289 -0.7901 -0.4505 -1.9050
  137OSM   C16S14926   4.848   6.755   8.440  0.2338 -0.5184  0.3123
  137OSM   H16S14927   4.822   6.850   8.491  2.8868 -0.8711  2.5328
  137OSM   H16T14928   4.959   6.744   8.443 -0.0068 -3.5282  2.7657
  137OSM   C17S14929   4.784   6.654   8.533  0.2432  0.1404 -0.4071
  137OSM   H17S14930   4.824   6.555   8.504  1.1734  0.6214 -0.7841
  137OSM   H17T14931   4.675   6.639   8.519 -0.4340  1.4607  2.5131
  137OSM   C18S14932   4.824   6.674   8.681  0.0809 -0.5797  0.1529
  137OSM   H18S14933   4.754   6.620   8.748 -0.2177  0.1275  0.4199
  137OSM   H18T14934   4.842   6.779   8.711  1.4000 -1.1738  1.5764
  137OSM   H18U14935   4.917   6.621   8.711  1.0714  0.2219 -1.3766
  137OSM    C1F14936   4.885   6.477   6.834 -0.4301  0.4078  0.4688
  137OSM     OF14937   4.951   6.372   6.818 -0.0520  0.0438 -0.6576
  137OSM    C2F14938   4.732   6.475   6.843 -1.4554 -0.8756  0.4258
  137OSM    H2F14939   4.695   6.404   6.766  0.0340  2.7889 -4.1000
  137OSM    H2G14940   4.690   6.575   6.819  0.2106 -0.5157 -1.2354
  137OSM    C3F14941   4.680   6.410   6.979 -0.4654  0.1939  0.7452
  137OSM    H3F14942   4.691   6.301   6.964 -0.6316 -0.0160  2.0904
  137OSM    H3G14943   4.570   6.421   6.989 -0.7002 -1.4638  0.1858
  137OSM    C4F14944   4.751   6.455   7.103  0.4733  0.3733 -0.4683
  137OSM    H4F14945   4.746   6.566   7.110 -2.4423  0.2944 -0.1144
  137OSM    H4G14946   4.857   6.421   7.098  0.3586  0.1479 -1.6455
  137OSM    C5F14947   4.690   6.409   7.230  0.1686  0.1948  0.4468
  137OSM    H5F14948   4.673   6.300   7.232  0.6492  0.1096  0.0032
  137OSM    H5G14949   4.594   6.464   7.228 -0.0177 -0.1057  1.0708
  137OSM    C6F14950   4.776   6.452   7.347 -0.1937  0.6679 -0.0053
  137OSM    H6F14951   4.815   6.552   7.316  0.2444  0.1796 -1.0568
  137OSM    H6G14952   4.866   6.388   7.354 -1.2690 -0.8052  0.9000
  137OSM    C7F14953   4.715   6.455   7.491 -0.2317 -0.0749  0.6967
  137OSM    H7F14954   4.663   6.359   7.514 -2.1226  0.7866  0.1666
  137OSM    H7G14955   4.635   6.532   7.490 -0.4344 -0.2679  1.2158
  137OSM    C8F14956   4.820   6.495   7.602  0.4783  0.0236 -0.3210
  137OSM    H8F14957   4.750   6.502   7.688 -1.1096 -0.7680 -1.5173
  137OSM    H8G14958   4.868   6.595   7.595 -0.7762  0.6346 -0.6005
  137OSM    C9F14959   4.917   6.378   7.609  0.1344 -0.3716 -0.1455
  137OSM    H9F14960   4.999   6.394   7.538 -1.4457  0.5004 -1.8526
  137OSM   C10F14961   4.935   6.288   7.705  0.0337  0.8002  0.1049
  137OSM   H10F14962   5.016   6.214   7.691  0.8565  1.6486  0.2445
  137OSM   C11F14963   4.855   6.273   7.832  0.9032  0.4688  0.1752
  137OSM   H11F14964   4.841   6.169   7.869 -0.9897  1.0133  1.1414
  137OSM   H11G14965   4.752   6.315   7.827  0.3084 -0.8347  0.9047
  137OSM   C12F14966   4.917   6.353   7.946  0.5194 -0.0993  0.1414
  137OSM   H12F14967   4.940   6.454   7.904 -0.5794 -0.1203 -0.5441
  137OSM   H12G14968   5.015   6.309   7.974  0.0832 -1.6289 -0.6263
  137OSM   C13F14969   4.831   6.364   8.068  0.3127  0.0973  0.2072
  137OSM   H13F14970   4.741   6.422   8.037  1.1777  2.2852  1.5769
  137OSM   H13G14971   4.873   6.430   8.147  0.5814 -0.4942  0.5559
  137OSM   C14F14972   4.784   6.229   8.131  0.2571 -0.0828 -0.6331
  137OSM   H14F14973   4.875   6.166   8.134  0.0857 -0.3204 -0.3082
  137OSM   H14G14974   4.706   6.174   8.073 -0.9115 -0.1750  0.9685
  137OSM   C15F14975   4.767   6.222   8.284  0.5634  0.0099 -0.2559
  137OSM   H15F14976   4.684   6.285   8.323  0.8046  0.8842 -1.1161
  137OSM   H15G14977   4.858   6.258   8.336  1.2658 -1.2114 -0.5961
  137OSM   C16F14978   4.748   6.077   8.333 -0.2059  0.2328 -0.7784
  137OSM   H16F14979   4.779   6.079   8.440  0.6279 -2.0897 -0.9203
  137OSM   H16G14980   4.820   6.005   8.290 -1.4710 -0.6306 -1.4952
  137OSM   C17F14981   4.603   6.027   8.347  0.7900  1.4420 -0.2226
  137OSM   H17F14982   4.565   6.002   8.246  0.8134 -2.1528  0.5041
  137OSM   H17G14983   4.546   6.118   8.374 -0.3387  0.4077  1.0785
  137OSM   C18F14984   4.581   5.896   8.441 -0.0912 -0.0731  0.2050
  137OSM   H18F14985   4.481   5.856   8.411  0.0888 -1.5684  1.4757
  137OSM   H18G14986   4.592   5.923   8.549  2.5959 -0.7640  0.1507
  137OSM   H18H14987   4.655   5.819   8.411  0.7341  0.3403  1.0992
  138OSM      N14988   1.810   4.397   6.066 -0.2867  0.6836  0.0760
  138OSM    C1514989   1.741   4.471   5.961  0.0809  0.8354  1.0287
  138OSM   H15A14990   1.809   4.530   5.902  0.3266 -1.1483 -0.8262
  138OSM   H15B14991   1.662   4.531   6.003 -0.3291  1.1574 -0.1645
  138OSM   H15C14992   1.692   4.406   5.890 -1.6174  0.7324  2.2204
  138OSM    C1414993   1.891   4.288   6.012  0.0751  0.4686 -0.1259
  138OSM   H14A14994   1.834   4.198   5.992  0.1464  0.6623 -1.2660
  138OSM   H14B14995   1.967   4.256   6.082 -0.2948 -2.8664 -1.0608
  138OSM   H14C14996   1.935   4.322   5.920  0.0481 -0.0396 -0.3330
  138OSM    C1314997   1.916   4.485   6.129  0.8475  0.4219  0.4011
  138OSM   H13A14998   1.871   4.555   6.197 -0.6222 -1.3781  1.3802
  138OSM   H13B14999   1.967   4.546   6.056 -0.6630  1.8958  0.5093
  138OSM   H13C15000   1.985   4.429   6.189  0.8978  0.5969  0.5066
  138OSM    C1215001   1.718   4.350   6.170  0.3914  0.1627 -0.5981
  138OSM   H12A15002   1.640   4.292   6.124  0.0515 -0.0087  0.1679
  138OSM   H12B15003   1.666   4.437   6.206 -0.7590 -1.0011  0.6999
  138OSM    C1115004   1.766   4.259   6.285  0.1485 -0.1194 -0.2051
  138OSM   H11A15005   1.686   4.259   6.363  2.1677  0.8723  1.9877
  138OSM   H11B15006   1.855   4.299   6.338 -1.7439 -1.4266  4.4161
  138OSM      P15007   1.682   4.032   6.179 -0.0764  0.0544 -0.4423
  138OSM    O1315008   1.662   4.078   6.039  0.0018  0.2272  0.1636
  138OSM    O1415009   1.717   3.888   6.196 -1.0047  0.0387 -0.6706
  138OSM    O1115010   1.554   4.073   6.267  0.6692  0.6733  0.1665
  138OSM    O1215011   1.794   4.123   6.248 -0.0236  0.1347  0.1641
  138OSM    C1S15012   1.545   4.015   6.401  0.7008 -0.0139  0.4678
  138OSM    H1S15013   1.637   4.032   6.461  0.8180 -0.0398  0.2980
  138OSM    H1T15014   1.535   3.904   6.404  1.1994 -0.1479 -1.5982
  138OSM     NF15015   1.421   4.036   6.621 -0.4853  0.3467 -0.3800
  138OSM    HNF15016   1.343   3.992   6.666  0.1613 -0.4526 -0.0022
  138OSM    C2S15017   1.424   4.079   6.473  0.1875  0.3462 -0.3976
  138OSM    H2S15018   1.439   4.189   6.468 -0.5616  0.4812  0.1444
  138OSM    C3S15019   1.286   4.058   6.406  0.0634 -0.4566  0.2692
  138OSM    H3S15020   1.245   3.954   6.410 -0.6802 -0.2355 -1.1539
  138OSM     O315021   1.285   4.082   6.265 -0.1935  0.8430  0.4702
  138OSM    HO315022   1.378   4.104   6.257 -0.5283  2.3734  0.5693
  138OSM    C4S15023   1.187   4.153   6.475 -0.2802  0.1395 -0.1019
  138OSM    H4S15024   1.233   4.250   6.501  1.7871 -1.0125  0.7147
  138OSM    C5S15025   1.061   4.127   6.515  0.2458  0.1308 -0.1766
  138OSM    H5S15026   1.025   4.024   6.508 -1.3499  0.5539  1.0362
  138OSM    C6S15027   0.967   4.219   6.596  0.4419  0.6203 -0.2434
  138OSM    H6S15028   0.867   4.227   6.546  0.1204  0.3049  0.3431
  138OSM    H6T15029   1.012   4.315   6.627 -0.8404  0.2803  3.0825
  138OSM    C7S15030   0.928   4.163   6.740  0.2417 -0.8207  0.1601
  138OSM    H7S15031   0.869   4.070   6.733 -0.1795 -0.4318 -2.6776
  138OSM    H7T15032   0.867   4.238   6.796  0.2261 -0.7618  0.0646
  138OSM    C8S15033   1.059   4.158   6.822 -0.0843 -0.4543  0.2988
  138OSM    H8S15034   1.112   4.254   6.805  1.6438 -1.6451 -1.3449
  138OSM    H8T15035   1.130   4.091   6.770  0.1677 -0.3312  0.4848
  138OSM    C9S15036   1.045   4.136   6.974 -0.7944 -0.0658 -0.2707
  138OSM    H9S15037   0.981   4.049   6.998  1.1497 -0.9942  1.9786
  138OSM    H9T15038   1.010   4.228   7.024  1.2302 -0.5960  2.3087
  138OSM   C10S15039   1.189   4.100   7.031  0.0284 -0.3722  0.0408
  138OSM   H10S15040   1.256   4.178   6.988  0.0749 -1.0586 -1.1724
  138OSM   H10T15041   1.225   4.003   6.991  1.3788  0.4787 -0.8873
  138OSM   C11S15042   1.180   4.096   7.182 -0.0033 -0.1181  0.3747
  138OSM   H11S15043   1.115   4.013   7.217 -1.0438  0.5786  0.1336
  138OSM   H11T15044   1.132   4.190   7.216 -2.5185 -0.9283 -0.7364
  138OSM   C12S15045   1.316   4.086   7.243 -0.5021  0.6098 -0.0822
  138OSM   H12S15046   1.374   4.173   7.204 -0.7419  0.3598 -1.0268
  138OSM   H12T15047   1.358   3.988   7.210 -3.1320  0.6047 -4.1798
  138OSM   C13S15048   1.303   4.091   7.396 -0.4325 -1.4058 -0.4385
  138OSM   H13S15049   1.276   3.990   7.434  0.8180 -1.6263 -0.0569
  138OSM   H13T15050   1.221   4.159   7.428  1.2141  0.9883 -1.0614
  138OSM   C14S15051   1.433   4.132   7.468  0.1214 -0.3711 -0.2533
  138OSM   H14S15052   1.457   4.239   7.449 -0.5476 -0.3142 -0.8401
  138OSM   H14T15053   1.516   4.067   7.434  0.0346 -0.9852  0.6784
  138OSM   C15S15054   1.434   4.111   7.626  0.0639  0.4839  0.9186
  138OSM   H15S15055   1.537   4.103   7.666  2.1048  0.3204 -3.7322
  138OSM   H15T15056   1.375   4.019   7.643 -0.8394  1.0499  0.9528
  138OSM   C16S15057   1.358   4.222   7.695 -0.3360 -0.4859  0.0400
  138OSM   H16S15058   1.249   4.222   7.673 -0.1995 -0.3523 -0.6575
  138OSM   H16T15059   1.400   4.318   7.658  1.2998 -1.4648 -0.7687
  138OSM   C17S15060   1.375   4.215   7.849  0.6606  0.0403 -0.0929
  138OSM   H17S15061   1.479   4.226   7.885  0.0196  1.0107  1.5299
  138OSM   H17T15062   1.351   4.109   7.873 -2.6906  0.7986  0.4124
  138OSM   C18S15063   1.283   4.309   7.924  0.3447 -0.3407  0.5466
  138OSM   H18S15064   1.200   4.245   7.960  1.2879 -0.8027  2.0069
  138OSM   H18T15065   1.250   4.394   7.861 -0.9247 -0.4442  1.0519
  138OSM   H18U15066   1.329   4.347   8.018 -1.8270 -0.9288  1.9193
  138OSM    C1F15067   1.522   4.064   6.706 -0.4768  0.0731  0.4772
  138OSM     OF15068   1.604   4.153   6.675  0.0369 -0.3179  0.2211
  138OSM    C2F15069   1.523   3.994   6.836 -0.1700  0.1391 -0.0564
  138OSM    H2F15070   1.477   3.895   6.812  1.3132 -0.9665  1.4523
  138OSM    H2G15071   1.464   4.059   6.904 -1.0051 -0.0894 -0.5450
  138OSM    C3F15072   1.667   3.970   6.886 -0.3920  0.2927  0.3719
  138OSM    H3F15073   1.719   4.068   6.887 -1.8386  1.0966  0.1872
  138OSM    H3G15074   1.728   3.904   6.820  0.8852  2.4428 -0.6818
  138OSM    C4F15075   1.668   3.931   7.033  0.1198  0.2918  0.6439
  138OSM    H4F15076   1.623   4.013   7.093 -0.6546  1.1806 -1.0777
  138OSM    H4G15077   1.772   3.926   7.072  0.7506  1.9372 -0.6876
  138OSM    C5F15078   1.587   3.806   7.071  0.7895 -0.0868 -0.2343
  138OSM    H5F15079   1.615   3.724   7.002 -1.0967 -0.1549 -0.9999
  138OSM    H5G15080   1.479   3.824   7.052  0.5463 -0.8225  0.4038
  138OSM    C6F15081   1.603   3.758   7.214 -0.7074  0.2682  0.4509
  138OSM    H6F15082   1.548   3.828   7.281  1.1697  1.4607  0.8547
  138OSM    H6G15083   1.711   3.777   7.231 -0.9981  2.5035  0.1261
  138OSM    C7F15084   1.567   3.610   7.235  0.3183 -0.8069 -0.5840
  138OSM    H7F15085   1.626   3.552   7.161  1.3423 -0.3706 -0.1326
  138OSM    H7G15086   1.457   3.599   7.225  0.2676 -0.7142 -0.1498
  138OSM    C8F15087   1.588   3.540   7.379  0.5291  0.0161 -0.1846
  138OSM    H8F15088   1.528   3.448   7.393  2.2463 -0.9975  0.8575
  138OSM    H8G15089   1.544   3.615   7.449 -0.5000  0.4216 -1.2334
  138OSM    C9F15090   1.728   3.518   7.412 -0.1857  0.1106 -0.5572
  138OSM    H9F15091   1.790   3.606   7.390 -3.8789  2.5017 -2.2454
  138OSM   C10F15092   1.786   3.407   7.467 -0.5737 -0.6753  0.0434
  138OSM   H10F15093   1.894   3.414   7.486 -0.8463 -0.0001  1.4300
  138OSM   C11F15094   1.709   3.281   7.509  0.5148 -0.8566 -0.2395
  138OSM   H11F15095   1.745   3.197   7.446  1.4603 -0.1313 -0.6943
  138OSM   H11G15096   1.602   3.278   7.482  0.3699  2.1233 -0.2587
  138OSM   C12F15097   1.722   3.227   7.657  0.2007  0.7126  0.7434
  138OSM   H12F15098   1.825   3.198   7.687 -0.3858 -1.6472  0.6706
  138OSM   H12G15099   1.661   3.135   7.650  0.0102  0.9564 -1.5855
  138OSM   C13F15100   1.666   3.319   7.758 -0.1258 -0.0065 -0.3867
  138OSM   H13F15101   1.557   3.322   7.736 -0.5260 -0.6581  1.3145
  138OSM   H13G15102   1.713   3.419   7.747  0.1391 -0.0831  0.0282
  138OSM   C14F15103   1.676   3.275   7.908  1.2130 -0.2538  0.4822
  138OSM   H14F15104   1.773   3.226   7.929  1.5518 -1.2933 -2.8479
  138OSM   H14G15105   1.601   3.195   7.926  2.4358 -1.3679  0.8080
  138OSM   C15F15106   1.646   3.394   8.000  0.5157  0.0153  0.1324
  138OSM   H15F15107   1.548   3.434   7.966 -0.0349 -1.7599 -0.4451
  138OSM   H15G15108   1.719   3.478   7.989 -0.1981  0.5536 -0.5914
  138OSM   C16F15109   1.634   3.349   8.152  0.0608 -0.4251 -0.0270
  138OSM   H16F15110   1.731   3.359   8.205 -0.9005  2.0938  1.4628
  138OSM   H16G15111   1.595   3.245   8.150  0.2359 -0.5037  0.5124
  138OSM   C17F15112   1.538   3.428   8.249 -0.8123  0.1137 -0.3863
  138OSM   H17F15113   1.519   3.363   8.337 -0.9384 -0.6561 -0.9708
  138OSM   H17G15114   1.435   3.435   8.210 -0.6330  0.1266 -0.8568
  138OSM   C18F15115   1.575   3.570   8.293 -0.4985  0.0570  0.5422
  138OSM   H18F15116   1.608   3.633   8.208 -0.1370  0.9485  1.3189
  138OSM   H18G15117   1.656   3.577   8.369 -0.0808 -0.9055  0.1987
  138OSM   H18H15118   1.484   3.628   8.318  0.5711  1.8235  0.5439
  139OSM      N15119   3.484   2.872   6.057 -0.4234  0.5972 -0.4072
  139OSM    C1515120   3.529   2.911   5.920  0.9780  0.2438 -0.2501
  139OSM   H15A15121   3.473   2.997   5.884 -1.0307 -0.8704  0.0863
  139OSM   H15B15122   3.516   2.828   5.852 -1.8787 -0.3964  0.9359
  139OSM   H15C15123   3.636   2.925   5.920  1.2856 -1.8076  0.6345
  139OSM    C1415124   3.334   2.853   6.062 -0.2485  0.0418 -0.3354
  139OSM   H14A15125   3.287   2.769   6.012 -0.2425 -0.5265  0.5928
  139OSM   H14B15126   3.277   2.936   6.024  0.7346  0.4628 -0.9240
  139OSM   H14C15127   3.306   2.851   6.166  0.8668 -1.4516 -0.0190
  139OSM    C1315128   3.542   2.734   6.081  0.4771 -0.9080 -0.0875
  139OSM   H13A15129   3.526   2.668   5.998 -2.6391 -0.4341  0.0248
  139OSM   H13B15130   3.512   2.704   6.180 -0.8892 -0.6515 -0.3971
  139OSM   H13C15131   3.647   2.757   6.086 -0.2316  2.7917  1.0253
  139OSM    C1215132   3.540   2.965   6.161 -0.3486 -0.4446 -0.4774
  139OSM   H12A15133   3.509   3.065   6.135 -2.2658 -1.1974 -1.2133
  139OSM   H12B15134   3.648   2.970   6.157 -0.2414 -1.1219  0.9975
  139OSM    C1115135   3.502   2.945   6.307  0.1965  0.2552 -0.3582
  139OSM   H11A15136   3.568   3.005   6.374 -0.1484  0.3140 -0.0719
  139OSM   H11B15137   3.503   2.840   6.344 -1.3554  1.3068  2.9739
  139OSM      P15138   3.350   3.157   6.333  0.1348  0.0676 -0.2241
  139OSM    O1315139   3.462   3.231   6.269  0.6013 -0.0446 -0.2338
  139OSM    O1415140   3.219   3.192   6.278  0.1831  0.2490 -0.1858
  139OSM    O1115141   3.355   3.172   6.489  0.5378  0.3699 -0.2586
  139OSM    O1215142   3.371   3.000   6.323  0.4360 -0.1059  0.4753
  139OSM    C1S15143   3.338   3.306   6.541  0.3665 -0.0398 -0.3430
  139OSM    H1S15144   3.230   3.329   6.529 -0.0166 -0.1999  2.3670
  139OSM    H1T15145   3.398   3.379   6.482  0.8447 -0.0750  0.1016
  139OSM     NF15146   3.330   3.434   6.751 -0.5746  0.5188  0.6398
  139OSM    HNF15147   3.395   3.510   6.749  1.4585 -1.1537 -0.1411
  139OSM    C2S15148   3.382   3.312   6.695  0.0861 -0.0422  0.2830
  139OSM    H2S15149   3.343   3.231   6.759  0.1799  1.2005  1.9995
  139OSM    C3S15150   3.537   3.310   6.695  0.7413 -0.0587  0.4062
  139OSM    H3S15151   3.576   3.394   6.633  0.0533 -1.3631 -1.9093
  139OSM     O315152   3.595   3.203   6.624 -0.0807 -0.4074 -0.2298
  139OSM    HO315153   3.517   3.172   6.577  0.2395  1.7213 -2.3295
  139OSM    C4S15154   3.603   3.328   6.831  1.2625 -0.9294  0.1756
  139OSM    H4S15155   3.652   3.424   6.850  2.4911 -1.6716  0.9113
  139OSM    C5S15156   3.601   3.238   6.934 -0.0475  0.0384  0.0654
  139OSM    H5S15157   3.536   3.150   6.923  0.0281 -0.1451  1.0224
  139OSM    C6S15158   3.662   3.259   7.075  0.1092 -0.1821 -0.0094
  139OSM    H6S15159   3.688   3.366   7.090 -0.1302  0.0589 -1.1802
  139OSM    H6T15160   3.743   3.185   7.094 -1.0288 -1.4914 -0.0890
  139OSM    C7S15161   3.551   3.229   7.183  0.3499 -0.2194  0.7076
  139OSM    H7S15162   3.483   3.147   7.152 -1.0599  1.7061 -1.6191
  139OSM    H7T15163   3.485   3.317   7.187  0.6213  0.0117  0.1846
  139OSM    C8S15164   3.593   3.197   7.332  0.0275 -0.4327 -0.3410
  139OSM    H8S15165   3.674   3.121   7.341  2.2515  1.9463  1.4126
  139OSM    H8T15166   3.511   3.136   7.376  0.3290 -1.0715 -0.6430
  139OSM    C9S15167   3.617   3.322   7.411  0.4205  0.2422 -0.2274
  139OSM    H9S15168   3.519   3.373   7.420 -0.0964 -0.9633  1.6254
  139OSM    H9T15169   3.687   3.377   7.345  1.1819 -2.2565 -1.6519
  139OSM   C10S15170   3.688   3.306   7.541  0.4293 -0.0737 -0.9772
  139OSM   H10S15171   3.795   3.276   7.544  1.0322  1.9935 -0.8452
  139OSM   H10T15172   3.630   3.235   7.604  0.6034  1.8809  1.4930
  139OSM   C11S15173   3.674   3.439   7.622  0.3648  0.5870  0.2201
  139OSM   H11S15174   3.567   3.470   7.627  0.3599  0.3856  1.7588
  139OSM   H11T15175   3.735   3.514   7.566 -0.1770  0.9033  0.0464
  139OSM   C12S15176   3.711   3.429   7.771 -0.1203  0.2194 -0.5451
  139OSM   H12S15177   3.739   3.525   7.818  4.7080 -1.2836  0.1825
  139OSM   H12T15178   3.808   3.375   7.775  0.4201  1.0544 -1.7388
  139OSM   C13S15179   3.610   3.355   7.857  0.4765  0.5083 -0.7987
  139OSM   H13S15180   3.611   3.245   7.845 -0.7743  0.5407 -1.3823
  139OSM   H13T15181   3.507   3.396   7.843 -0.2326 -0.9093  0.0075
  139OSM   C14S15182   3.636   3.388   8.003  0.0835  0.1802  0.0141
  139OSM   H14S15183   3.595   3.489   8.024 -2.6544  0.0071 -3.5804
  139OSM   H14T15184   3.740   3.388   8.043 -0.4176  0.5735  1.3518
  139OSM   C15S15185   3.548   3.303   8.096 -0.1358 -0.1695 -0.1432
  139OSM   H15S15186   3.441   3.306   8.064  0.0404  2.3879 -0.7443
  139OSM   H15T15187   3.549   3.344   8.199  3.1229 -0.6898  0.1421
  139OSM   C16S15188   3.585   3.161   8.116 -0.4340 -0.9839 -0.9768
  139OSM   H16S15189   3.623   3.110   8.024  0.2627 -0.5280 -0.9519
  139OSM   H16T15190   3.491   3.109   8.144  0.6902 -2.8044 -0.4397
  139OSM   C17S15191   3.685   3.154   8.238 -0.4879 -0.3638  0.6098
  139OSM   H17S15192   3.653   3.232   8.310 -2.5441  0.3703 -1.0007
  139OSM   H17T15193   3.785   3.186   8.200 -1.7853  1.9343 -1.1409
  139OSM   C18S15194   3.701   3.011   8.296  0.0974 -0.3797  0.1570
  139OSM   H18S15195   3.772   3.010   8.382 -0.9379  2.0626  1.1181
  139OSM   H18T15196   3.722   2.938   8.215 -0.0817  0.0994 -0.3201
  139OSM   H18U15197   3.599   2.979   8.327 -1.0486  3.4432  0.8282
  139OSM    C1F15198   3.205   3.446   6.781 -0.4224  0.4009  0.0445
  139OSM     OF15199   3.121   3.375   6.737 -0.3312  0.0670 -0.2741
  139OSM    C2F15200   3.174   3.540   6.896 -0.4862  0.8780 -0.7138
  139OSM    H2F15201   3.178   3.640   6.848  0.9154  1.6790  0.9678
  139OSM    H2G15202   3.254   3.533   6.973 -0.5159  0.5911 -0.7086
  139OSM    C3F15203   3.036   3.502   6.968 -0.3656  0.2895  1.0026
  139OSM    H3F15204   3.056   3.406   7.020  1.0466 -0.6039 -1.0491
  139OSM    H3G15205   2.952   3.473   6.902 -0.0011  1.7802 -0.1857
  139OSM    C4F15206   2.982   3.607   7.075  0.0506 -0.2659 -0.7361
  139OSM    H4F15207   2.901   3.549   7.125  0.0812  0.8358  0.6584
  139OSM    H4G15208   2.945   3.704   7.034  2.1932  0.5271 -0.9033
  139OSM    C5F15209   3.081   3.663   7.177 -0.0741  0.1013 -0.0460
  139OSM    H5F15210   3.177   3.696   7.131  1.1767  1.2979  3.1053
  139OSM    H5G15211   3.099   3.589   7.258  0.0013  1.0990  0.8711
  139OSM    C6F15212   3.040   3.799   7.258  0.2552  0.3983 -0.0232
  139OSM    H6F15213   2.942   3.774   7.304  0.7168  1.6039  1.6918
  139OSM    H6G15214   3.009   3.879   7.188 -0.0820 -0.1331 -0.4934
  139OSM    C7F15215   3.149   3.840   7.358 -0.1257 -0.2921 -0.3096
  139OSM    H7F15216   3.241   3.852   7.298 -0.8074  0.2896 -1.2756
  139OSM    H7G15217   3.162   3.761   7.435  1.2105  1.5602  1.4446
  139OSM    C8F15218   3.113   3.976   7.410  0.7646  0.4605  0.2441
  139OSM    H8F15219   3.007   3.987   7.439 -0.0571 -2.0426 -1.4229
  139OSM    H8G15220   3.131   4.042   7.322  0.0258  0.9328  0.4441
  139OSM    C9F15221   3.195   4.007   7.537  0.1904  0.3413 -0.8674
  139OSM    H9F15222   3.298   4.031   7.508  0.9288 -0.8726  0.6156
  139OSM   C10F15223   3.171   3.975   7.666  0.2542 -1.1358  0.5661
  139OSM   H10F15224   3.248   4.004   7.738  0.6233  1.8434 -0.8601
  139OSM   C11F15225   3.039   3.909   7.695 -0.9655 -0.6799  0.7948
  139OSM   H11F15226   3.017   3.818   7.636 -1.8652 -0.5462  0.8976
  139OSM   H11G15227   2.958   3.980   7.668 -0.9786 -0.0707  2.3483
  139OSM   C12F15228   3.037   3.873   7.846 -0.3811  0.1499  0.4508
  139OSM   H12F15229   3.055   3.975   7.888 -2.2984  1.6623 -2.0978
  139OSM   H12G15230   3.121   3.808   7.877  1.1466  0.6532 -2.2944
  139OSM   C13F15231   2.901   3.821   7.888  0.7767 -0.3005  0.5266
  139OSM   H13F15232   2.869   3.723   7.845 -0.4269 -0.7169  2.2553
  139OSM   H13G15233   2.831   3.897   7.848 -1.6531 -2.7685 -0.2819
  139OSM   C14F15234   2.894   3.804   8.043  0.1734  0.4409  0.0002
  139OSM   H14F15235   2.909   3.905   8.089  0.0966  0.9879 -1.1409
  139OSM   H14G15236   2.974   3.733   8.071 -0.0096  0.1177 -0.2868
  139OSM   C15F15237   2.753   3.765   8.082  0.1933 -0.4524 -0.2152
  139OSM   H15F15238   2.731   3.657   8.068  0.8592 -0.4361 -1.5633
  139OSM   H15G15239   2.681   3.830   8.030  1.0165  1.5635  1.0562
  139OSM   C16F15240   2.743   3.790   8.239 -0.1568 -0.4394 -0.4852
  139OSM   H16F15241   2.840   3.758   8.282 -0.1059 -0.9554 -0.9645
  139OSM   H16G15242   2.667   3.716   8.273 -0.8575 -0.3522 -1.7902
  139OSM   C17F15243   2.702   3.926   8.283  0.1670  0.2476  0.1032
  139OSM   H17F15244   2.609   3.955   8.229 -0.3191 -1.9664 -0.3592
  139OSM   H17G15245   2.781   3.998   8.251  0.4673 -0.2459 -0.2894
  139OSM   C18F15246   2.663   3.933   8.432  0.2508  0.7134 -0.7492
  139OSM   H18F15247   2.755   3.908   8.489  1.0677  0.3924 -2.1696
  139OSM   H18G15248   2.583   3.858   8.449 -0.2534  1.4700  0.3422
  139OSM   H18H15249   2.638   4.041   8.446  2.6896  1.1712  0.7365
  140OSM      N15250   5.401   5.129   6.754  0.4664 -0.4303  0.4674
  140OSM    C1515251   5.524   5.108   6.830 -0.1880 -0.0540 -1.0331
  140OSM   H15A15252   5.497   5.081   6.931 -2.7318  0.1778 -1.5812
  140OSM   H15B15253   5.593   5.191   6.833  0.1719 -0.3774  1.1302
  140OSM   H15C15254   5.584   5.027   6.791  0.0883 -0.6344  0.5200
  140OSM    C1415255   5.296   5.032   6.802  0.1551 -0.2565  0.1299
  140OSM   H14A15256   5.199   5.036   6.756 -0.3331  0.3836  1.1714
  140OSM   H14B15257   5.273   5.047   6.907  0.0359  2.3933 -0.2139
  140OSM   H14C15258   5.332   4.930   6.795  2.7108  0.4930  1.0528
  140OSM    C1315259   5.347   5.259   6.784 -0.0512 -0.2925 -0.3257
  140OSM   H13A15260   5.318   5.287   6.884 -1.3117 -1.0543 -0.4578
  140OSM   H13B15261   5.257   5.297   6.737 -1.6923  0.5554  3.1828
  140OSM   H13C15262   5.423   5.329   6.751 -0.5642  0.4855  0.1078
  140OSM    C1215263   5.428   5.121   6.602  0.9477  0.9345  0.4661
  140OSM   H12A15264   5.332   5.121   6.552  0.9480  1.1170  0.4636
  140OSM   H12B15265   5.467   5.022   6.584  0.2776  0.9796 -1.5443
  140OSM    C1115266   5.508   5.230   6.535 -0.1132  0.3110 -0.2125
  140OSM   H11A15267   5.447   5.322   6.551  0.0387 -0.1382  4.3090
  140OSM   H11B15268   5.516   5.217   6.425 -1.6107 -0.4427 -0.2656
  140OSM      P15269   5.761   5.153   6.529  0.3747 -0.5406 -0.3052
  140OSM    O1315270   5.786   5.028   6.610 -0.0277  0.3434  0.4812
  140OSM    O1415271   5.746   5.143   6.380 -0.3109 -0.1590  0.6164
  140OSM    O1115272   5.879   5.249   6.549 -0.3427  0.1289 -0.2076
  140OSM    O1215273   5.637   5.231   6.591 -0.3478 -0.1191 -0.2458
  140OSM    C1S15274   5.895   5.324   6.666 -0.2202  1.0467  0.1145
  140OSM    H1S15275   5.830   5.414   6.660 -0.7133  1.0490  3.3536
  140OSM    H1T15276   5.998   5.367   6.663 -0.5370  1.7328 -1.5767
  140OSM     NF15277   5.898   5.356   6.906  0.6691 -0.4888 -0.0333
  140OSM    HNF15278   5.986   5.399   6.925  0.8259 -1.5133  1.7876
  140OSM    C2S15279   5.904   5.252   6.809 -0.3344  0.1280 -0.5728
  140OSM    H2S15280   5.821   5.180   6.829  0.4019 -1.1439 -1.8974
  140OSM    C3S15281   6.032   5.160   6.825 -0.3584 -0.0882  0.6539
  140OSM    H3S15282   6.123   5.223   6.814 -0.4040 -0.1725 -0.3035
  140OSM     O315283   6.035   5.054   6.726  0.0539  0.0307  0.0424
  140OSM    HO315284   5.945   5.051   6.692 -0.6739  0.8452  1.7730
  140OSM    C4S15285   6.040   5.111   6.966 -0.6910  0.0198 -0.2239
  140OSM    H4S15286   6.081   5.186   7.035 -0.2884 -1.2804  0.9975
  140OSM    C5S15287   5.989   4.993   7.015  0.3564 -0.2614  0.6370
  140OSM    H5S15288   5.941   4.940   6.931  1.4289  3.2804 -2.5248
  140OSM    C6S15289   6.006   4.948   7.156  0.2431  0.0491  0.4111
  140OSM    H6S15290   6.105   4.897   7.156  1.5093  2.3339  2.0670
  140OSM    H6T15291   5.933   4.870   7.185  0.7257 -0.0457  1.4235
  140OSM    C7S15292   6.003   5.059   7.263  0.3821 -0.3670  0.0769
  140OSM    H7S15293   6.090   5.128   7.253 -0.8697  1.0412 -1.6205
  140OSM    H7T15294   6.011   5.020   7.367 -0.2443 -1.5022 -0.2821
  140OSM    C8S15295   5.868   5.142   7.262 -1.3896  0.1496  0.0196
  140OSM    H8S15296   5.782   5.074   7.275 -1.2591  0.2055  1.4197
  140OSM    H8T15297   5.865   5.209   7.173  1.1819 -1.6586 -1.5750
  140OSM    C9S15298   5.851   5.242   7.380 -0.4532 -0.4088  0.4949
  140OSM    H9S15299   5.858   5.184   7.475  0.9993  1.1999  1.4354
  140OSM    H9T15300   5.756   5.299   7.370 -0.7594 -0.7933  1.1146
  140OSM   C10S15301   5.957   5.348   7.389 -0.3083  0.2439  0.6617
  140OSM   H10S15302   5.987   5.389   7.290  0.4450 -0.6650  0.4921
  140OSM   H10T15303   6.043   5.288   7.426 -0.9913 -0.9936  0.2941
  140OSM   C11S15304   5.918   5.457   7.480  0.1859  0.0395 -0.4737
  140OSM   H11S15305   5.814   5.454   7.519 -0.0383  0.4875 -1.0206
  140OSM   H11T15306   5.925   5.558   7.434 -2.0522  0.6633  0.4211
  140OSM   C12S15307   6.013   5.465   7.601 -0.7562  0.2720 -0.2526
  140OSM   H12S15308   6.117   5.460   7.561 -1.0484 -0.4645 -0.9399
  140OSM   H12T15309   6.003   5.377   7.668 -3.2284  1.6083  1.2708
  140OSM   C13S15310   6.000   5.594   7.684  0.6465 -0.3326 -0.8911
  140OSM   H13S15311   5.904   5.592   7.739  1.9694 -2.9243  1.5917
  140OSM   H13T15312   6.020   5.680   7.616  2.1788  0.2351  0.2013
  140OSM   C14S15313   6.104   5.588   7.801  0.0585 -0.3259  0.4808
  140OSM   H14S15314   6.166   5.679   7.789  3.1595 -2.4748 -0.8429
  140OSM   H14T15315   6.171   5.499   7.800  0.7613  0.1168 -2.5130
  140OSM   C15S15316   6.022   5.580   7.929 -0.8403  0.3986  0.0660
  140OSM   H15S15317   6.095   5.551   8.008 -2.3337  0.7706  1.6429
  140OSM   H15T15318   5.952   5.493   7.930  1.0973 -1.4271  4.6577
  140OSM   C16S15319   5.953   5.704   7.987 -1.2648  0.0997  0.2363
  140OSM   H16S15320   5.856   5.706   7.933  0.2472  0.0787 -2.6478
  140OSM   H16T15321   6.009   5.790   7.945 -1.3727 -0.8599 -2.0030
  140OSM   C17S15322   5.923   5.701   8.137 -0.3347  0.4759 -1.1777
  140OSM   H17S15323   5.896   5.595   8.156 -2.0565  0.6868 -2.1576
  140OSM   H17T15324   5.839   5.768   8.167  2.1390  2.6009  1.4885
  140OSM   C18S15325   6.044   5.749   8.220 -0.1516 -0.1171  0.3611
  140OSM   H18S15326   6.039   5.731   8.329 -0.3906  0.2161  0.4101
  140OSM   H18T15327   6.058   5.859   8.205  0.2264 -0.0080  1.4200
  140OSM   H18U15328   6.133   5.694   8.183 -0.5192  1.2296 -2.9144
  140OSM    C1F15329   5.786   5.407   6.954  0.5074  0.3160  0.1593
  140OSM     OF15330   5.680   5.354   6.914 -0.6962  0.0978  0.6281
  140OSM    C2F15331   5.793   5.527   7.046 -0.0219  0.0520 -0.5263
  140OSM    H2F15332   5.886   5.585   7.026  0.8760 -1.1770 -0.0912
  140OSM    H2G15333   5.794   5.490   7.151 -2.9652 -2.1313 -1.1206
  140OSM    C3F15334   5.662   5.604   7.028 -0.1490 -0.2264  0.0989
  140OSM    H3F15335   5.574   5.550   7.068  0.0988  0.3159  1.4129
  140OSM    H3G15336   5.635   5.618   6.921  1.4297  2.3560 -0.0334
  140OSM    C4F15337   5.677   5.748   7.091 -0.5091 -0.1201 -0.1223
  140OSM    H4F15338   5.586   5.809   7.078  1.4385  2.7207 -1.4014
  140OSM    H4G15339   5.752   5.800   7.028  0.2292 -2.1089 -0.9848
  140OSM    C5F15340   5.700   5.764   7.245  0.2547 -0.4442  0.8914
  140OSM    H5F15341   5.702   5.872   7.273  2.6430  0.2888 -1.6711
  140OSM    H5G15342   5.803   5.723   7.261 -0.4520 -2.9397 -0.4691
  140OSM    C6F15343   5.598   5.688   7.325 -0.0614  0.4452 -0.3339
  140OSM    H6F15344   5.599   5.579   7.306 -1.5520  0.8357 -3.4670
  140OSM    H6G15345   5.496   5.727   7.301 -0.8085 -0.9477  0.4408
  140OSM    C7F15346   5.621   5.704   7.476 -0.4355  0.0665  0.4963
  140OSM    H7F15347   5.635   5.813   7.494 -1.2234 -0.0400  1.9348
  140OSM    H7G15348   5.711   5.643   7.499  1.0646  1.6751 -0.8402
  140OSM    C8F15349   5.498   5.663   7.560 -0.3481 -0.7327 -1.2937
  140OSM    H8F15350   5.477   5.555   7.543  1.0775 -1.5694  1.6481
  140OSM    H8G15351   5.409   5.726   7.536 -1.1012 -1.0724  0.4461
  140OSM    C9F15352   5.539   5.663   7.709  0.1877  1.1351 -0.4863
  140OSM    H9F15353   5.645   5.661   7.736  0.1368 -1.2268 -0.2812
  140OSM   C10F15354   5.460   5.678   7.813 -0.4275 -0.4111  0.2820
  140OSM   H10F15355   5.509   5.686   7.911 -0.0987 -0.4000  0.1158
  140OSM   C11F15356   5.307   5.698   7.813 -0.5747 -0.0274  0.0241
  140OSM   H11F15357   5.272   5.747   7.720  0.4044 -1.2464 -1.0334
  140OSM   H11G15358   5.272   5.750   7.905 -0.8335  0.6466 -0.4478
  140OSM   C12F15359   5.234   5.556   7.810  0.2298 -0.1831  0.2161
  140OSM   H12F15360   5.291   5.500   7.733  1.9886 -0.6108  1.7661
  140OSM   H12G15361   5.127   5.570   7.783 -0.2555 -0.4960  1.8720
  140OSM   C13F15362   5.233   5.480   7.944 -0.1676  0.4567 -0.1064
  140OSM   H13F15363   5.228   5.553   8.028  2.7664  0.3491  0.2711
  140OSM   H13G15364   5.329   5.426   7.958 -0.3200 -0.2430 -1.5766
  140OSM   C14F15365   5.125   5.373   7.952 -0.3701 -0.2901 -0.0343
  140OSM   H14F15366   5.131   5.287   7.883  0.4721 -0.5328  0.3267
  140OSM   H14G15367   5.034   5.428   7.922  0.5657  1.5692  0.3946
  140OSM   C15F15368   5.097   5.326   8.095  0.2740  0.9138  0.0469
  140OSM   H15F15369   5.056   5.410   8.155  0.0450  0.6741  0.2283
  140OSM   H15G15370   5.191   5.296   8.146 -0.4074  2.2584  2.2025
  140OSM   C16F15371   5.000   5.199   8.100 -0.2330  0.2594 -0.1941
  140OSM   H16F15372   5.027   5.121   8.027  1.2048  1.1657 -0.6732
  140OSM   H16G15373   4.903   5.250   8.080 -0.8310 -0.7293  0.1289
  140OSM   C17F15374   4.992   5.147   8.241  0.0214  0.1415  0.0608
  140OSM   H17F15375   4.965   5.229   8.311 -1.0126  0.0406 -0.2108
  140OSM   H17G15376   5.092   5.112   8.274  0.3488  0.4644 -0.5622
  140OSM   C18F15377   4.878   5.043   8.255 -0.1848 -0.0738  0.0235
  140OSM   H18F15378   4.891   4.999   8.357  1.1814 -1.3894 -0.6863
  140OSM   H18G15379   4.904   4.958   8.189  2.9451 -1.0377  2.2359
  140OSM   H18H15380   4.781   5.096   8.249 -0.2447  0.1893  2.3628
  141OSM      N15381   5.127   0.173   6.281  0.2565  0.3468 -0.2630
  141OSM    C1515382   5.010   0.191   6.184 -0.7806  0.2730 -0.4504
  141OSM   H15A15383   4.981   0.096   6.141 -0.9663 -1.2243  2.6584
  141OSM   H15B15384   5.044   0.267   6.115  1.5274 -0.1434  0.1253
  141OSM   H15C15385   4.925   0.226   6.241 -0.2621 -1.1216  1.2813
  141OSM    C1415386   5.232   0.093   6.205  0.2642 -0.3220  0.6545
  141OSM   H14A15387   5.317   0.075   6.269 -0.0482 -0.4536  1.0432
  141OSM   H14B15388   5.261   0.130   6.108 -0.8385  0.5374  0.6325
  141OSM   H14C15389   5.188  -0.005   6.194  1.0329 -0.7307  1.1183
  141OSM    C1315390   5.183   0.305   6.330  0.3001  0.4624  0.4441
  141OSM   H13A15391   5.113   0.353   6.396 -1.1115 -1.7053  0.6262
  141OSM   H13B15392   5.191   0.375   6.249  0.9140 -0.6195 -0.4666
  141OSM   H13C15393   5.275   0.291   6.385  0.2368 -0.8365  0.2681
  141OSM    C1215394   5.069   0.090   6.398  0.0272 -0.3315  0.4063
  141OSM   H12A15395   5.157   0.050   6.447 -1.1943 -0.9958  2.1660
  141OSM   H12B15396   5.024  -0.001   6.360 -1.3310  0.2644  0.5213
  141OSM    C1115397   4.977   0.145   6.505  0.0621  0.3862 -0.7474
  141OSM   H11A15398   5.043   0.220   6.554  0.2981 -0.5386  0.4043
  141OSM   H11B15399   4.955   0.070   6.584 -0.1303  0.3636 -0.8224
  141OSM      P15400   4.726   0.110   6.431 -0.1240 -0.0968 -0.3486
  141OSM    O1315401   4.647   0.158   6.313  0.3671  0.6338  0.0583
  141OSM    O1415402   4.753  -0.036   6.435 -0.1373  0.3329 -0.0377
  141OSM    O1115403   4.651   0.145   6.564  0.0071 -0.0897 -0.4179
  141OSM    O1215404   4.854   0.199   6.443  0.3892  0.2605  0.1136
  141OSM    C1S15405   4.667   0.262   6.643 -0.0631 -0.1043 -0.6670
  141OSM    H1S15406   4.599   0.340   6.605 -0.1584 -1.2317 -2.9787
  141OSM    H1T15407   4.772   0.299   6.651 -0.9415  2.4572 -0.4140
  141OSM     NF15408   4.639   0.362   6.882  0.8931 -0.9467  0.4441
  141OSM    HNF15409   4.710   0.361   6.952  2.7182  0.1845 -1.2512
  141OSM    C2S15410   4.628   0.236   6.792 -0.1067 -0.1640  0.1570
  141OSM    H2S15411   4.520   0.210   6.799  0.2620 -1.6927  0.5386
  141OSM    C3S15412   4.708   0.123   6.854 -0.0177 -0.1775  0.4400
  141OSM    H3S15413   4.814   0.156   6.857 -0.2855  0.6337  1.1690
  141OSM     O315414   4.700   0.006   6.774  0.3427  0.8504  0.0644
  141OSM    HO315415   4.659   0.028   6.690  0.0228  1.1259  0.2876
  141OSM    C4S15416   4.668   0.098   6.999  0.4757  0.4715 -0.0343
  141OSM    H4S15417   4.733   0.133   7.080 -0.6419  4.3792 -0.6366
  141OSM    C5S15418   4.557   0.029   7.034  0.1741  0.1682  0.5898
  141OSM    H5S15419   4.500  -0.031   6.961 -0.0977  1.3516 -0.1847
  141OSM    C6S15420   4.527  -0.001   7.175  0.2063 -0.6289  0.7018
  141OSM    H6S15421   4.622  -0.023   7.229  1.7838  1.3909 -1.0946
  141OSM    H6T15422   4.459  -0.089   7.180  1.1954 -1.4164  0.8333
  141OSM    C7S15423   4.462   0.118   7.243 -0.2755  0.8817  0.1959
  141OSM    H7S15424   4.381   0.157   7.179 -0.0160 -1.9004 -2.0606
  141OSM    H7T15425   4.532   0.204   7.243  0.3264  0.4915 -2.7126
  141OSM    C8S15426   4.401   0.080   7.384  0.0126 -0.2980  0.4109
  141OSM    H8S15427   4.338  -0.011   7.373 -0.1832 -0.5191  2.8517
  141OSM    H8T15428   4.318   0.151   7.407 -1.3860 -2.1231  1.2008
  141OSM    C9S15429   4.500   0.057   7.494  0.7149 -0.0651  0.9118
  141OSM    H9S15430   4.557   0.151   7.512  1.5886 -0.5926  0.9614
  141OSM    H9T15431   4.581  -0.016   7.470 -0.0839 -0.3960 -0.8805
  141OSM   C10S15432   4.441  -0.003   7.619 -0.5018 -0.9936  0.1726
  141OSM   H10S15433   4.516  -0.069   7.668 -0.0004 -1.0776 -0.6917
  141OSM   H10T15434   4.349  -0.064   7.606 -1.8483  0.9937 -0.0619
  141OSM   C11S15435   4.415   0.106   7.717  0.3606 -0.0473 -0.6766
  141OSM   H11S15436   4.337   0.177   7.684 -0.8139 -0.4024  1.1760
  141OSM   H11T15437   4.503   0.171   7.736  0.5443 -0.6483  0.7103
  141OSM   C12S15438   4.360   0.042   7.852  0.2495 -0.1326 -0.3200
  141OSM   H12S15439   4.446  -0.020   7.885  0.8742  0.3042 -1.0788
  141OSM   H12T15440   4.273  -0.021   7.826 -1.2128  1.9895 -0.8337
  141OSM   C13S15441   4.329   0.156   7.954 -0.2942  0.9710 -0.0986
  141OSM   H13S15442   4.235   0.210   7.929  0.8119  1.8104 -2.9333
  141OSM   H13T15443   4.410   0.232   7.962  0.0817  0.4492  1.3621
  141OSM   C14S15444   4.318   0.105   8.097 -0.4519 -0.3669  0.5657
  141OSM   H14S15445   4.420   0.066   8.116  1.5968  2.9918 -2.3043
  141OSM   H14T15446   4.246   0.021   8.101  1.1226 -1.7334  2.9117
  141OSM   C15S15447   4.285   0.214   8.206  0.5169 -0.4030  0.7188
  141OSM   H15S15448   4.177   0.239   8.204  0.8471  1.0478  0.1206
  141OSM   H15T15449   4.344   0.305   8.181 -0.3636 -0.6972 -3.0896
  141OSM   C16S15450   4.309   0.176   8.354 -0.6244 -0.1842  0.1740
  141OSM   H16S15451   4.243   0.093   8.386  0.1034 -1.1905 -0.8254
  141OSM   H16T15452   4.296   0.255   8.431 -0.2803 -0.8761  0.9661
  141OSM   C17S15453   4.451   0.131   8.372  0.1068  0.0136 -0.0083
  141OSM   H17S15454   4.525   0.201   8.326  1.7203 -1.9358 -0.5431
  141OSM   H17T15455   4.463   0.026   8.337 -1.3914  0.1098 -0.8973
  141OSM   C18S15456   4.486   0.108   8.519  0.1109  0.3633 -0.8262
  141OSM   H18S15457   4.438   0.014   8.554 -0.0176 -0.0762 -2.1209
  141OSM   H18T15458   4.440   0.187   8.582 -2.4174 -1.5336 -0.1264
  141OSM   H18U15459   4.590   0.070   8.521 -0.9152 -3.0098 -2.6100
  141OSM    C1F15460   4.554   0.461   6.868 -0.0681  0.9520 -0.4302
  141OSM     OF15461   4.471   0.467   6.783 -0.4863 -0.2314 -0.2955
  141OSM    C2F15462   4.561   0.566   6.981  0.6903 -0.4088 -0.1457
  141OSM    H2F15463   4.661   0.613   6.995  0.3487  0.0278  0.9719
  141OSM    H2G15464   4.530   0.518   7.076  0.1501 -1.4192 -0.8158
  141OSM    C3F15465   4.474   0.684   6.932  0.1922 -1.0211 -0.3513
  141OSM    H3F15466   4.366   0.663   6.915 -0.0156 -1.2856  1.2180
  141OSM    H3G15467   4.520   0.715   6.835  0.3847  0.1879  0.1123
  141OSM    C4F15468   4.480   0.802   7.027  0.3580 -0.3577 -0.7334
  141OSM    H4F15469   4.454   0.893   6.970  0.3279  0.8783  1.1617
  141OSM    H4G15470   4.586   0.821   7.054  0.0802 -0.1978  0.2818
  141OSM    C5F15471   4.388   0.796   7.144 -0.0876  0.9386  0.1486
  141OSM    H5F15472   4.413   0.705   7.203 -0.5475 -0.8159 -2.1987
  141OSM    H5G15473   4.287   0.770   7.107  0.9504 -1.8585 -0.9736
  141OSM    C6F15474   4.388   0.922   7.228 -0.0906  0.2565  0.6191
  141OSM    H6F15475   4.310   0.991   7.190 -1.2729 -1.3111  0.1029
  141OSM    H6G15476   4.485   0.977   7.221  0.3398 -0.7126 -1.7106
  141OSM    C7F15477   4.354   0.892   7.373 -0.1227 -0.8339 -0.0090
  141OSM    H7F15478   4.434   0.833   7.423  0.4962  0.1704  0.2133
  141OSM    H7G15479   4.262   0.834   7.393 -0.3627 -0.1413  0.9701
  141OSM    C8F15480   4.327   1.026   7.447 -0.4470  0.5122  0.5750
  141OSM    H8F15481   4.227   1.031   7.496  0.4385  0.4769  2.4397
  141OSM    H8G15482   4.320   1.106   7.370 -1.4650  0.2649  0.3875
  141OSM    C9F15483   4.443   1.070   7.529  0.0221 -0.6659 -0.1413
  141OSM    H9F15484   4.518   1.133   7.479 -0.6118  0.3523  0.1608
  141OSM   C10F15485   4.469   1.029   7.655  0.1637  0.5147 -0.0266
  141OSM   H10F15486   4.571   1.052   7.690  0.9354  1.7954 -2.8245
  141OSM   C11F15487   4.391   0.934   7.751 -0.6145 -0.1430  0.7476
  141OSM   H11F15488   4.438   0.833   7.743  0.4534  0.4465 -0.8988
  141OSM   H11G15489   4.287   0.924   7.712  0.3054 -1.9983 -1.4662
  141OSM   C12F15490   4.388   1.023   7.882  0.3669 -0.1619 -0.1080
  141OSM   H12F15491   4.332   1.117   7.864 -0.6136 -0.4656  1.2215
  141OSM   H12G15492   4.489   1.042   7.925  0.4670 -2.1849  0.6848
  141OSM   C13F15493   4.306   0.959   8.002  0.0233 -0.1530  0.3303
  141OSM   H13F15494   4.372   0.882   8.046  1.1126 -0.0037 -0.9568
  141OSM   H13G15495   4.213   0.910   7.964  1.2448  0.5781 -4.2312
  141OSM   C14F15496   4.256   1.071   8.097 -0.7210  0.5452 -0.5401
  141OSM   H14F15497   4.209   1.153   8.039  0.9248  1.9002 -0.0551
  141OSM   H14G15498   4.343   1.124   8.140 -1.0540  0.5984  0.0799
  141OSM   C15F15499   4.157   1.017   8.212  0.3211 -0.0213 -0.3551
  141OSM   H15F15500   4.215   0.949   8.278  0.6659  0.1726 -0.4558
  141OSM   H15G15501   4.070   0.968   8.164  0.5068  0.0576 -0.7735
  141OSM   C16F15502   4.093   1.145   8.288 -0.0359  1.2234  0.7565
  141OSM   H16F15503   4.029   1.198   8.214 -1.4195  1.1311  1.8478
  141OSM   H16G15504   4.174   1.208   8.329  0.9113 -1.1671  2.8414
  141OSM   C17F15505   4.010   1.109   8.409  0.1154 -0.6584 -0.2231
  141OSM   H17F15506   4.070   1.049   8.481 -0.4778 -0.7983  0.1612
  141OSM   H17G15507   3.920   1.050   8.384 -0.0742 -0.2109 -0.6112
  141OSM   C18F15508   3.988   1.237   8.485 -0.1147 -0.1970 -0.1419
  141OSM   H18F15509   3.992   1.319   8.410 -1.5548  0.0940  0.0663
  141OSM   H18G15510   4.072   1.261   8.552 -0.3115  2.3897 -0.7001
  141OSM   H18H15511   3.891   1.249   8.538 -0.4143 -0.1338 -0.6935
  142OSM      N15512   5.556   3.361   6.290 -0.6172  0.2087 -0.5780
  142OSM    C1515513   5.656   3.278   6.212 -0.1708 -0.0907 -0.5479
  142OSM   H15A15514   5.712   3.217   6.282  0.1015 -0.2852 -0.9311
  142OSM   H15B15515   5.732   3.341   6.167 -1.1838  0.9833 -0.8047
  142OSM   H15C15516   5.605   3.211   6.144 -0.3682 -1.7087  1.1112
  142OSM    C1415517   5.630   3.445   6.390 -0.2204  0.1397 -0.0165
  142OSM   H14A15518   5.692   3.380   6.449 -1.9866 -0.6765  1.0292
  142OSM   H14B15519   5.557   3.493   6.453  0.4531  0.6805  0.3553
  142OSM   H14C15520   5.699   3.512   6.341 -0.1224 -0.5962 -0.9083
  142OSM    C1315521   5.483   3.462   6.206  0.1640  0.4682  0.3880
  142OSM   H13A15522   5.449   3.406   6.121  1.2578 -0.0553  0.2780
  142OSM   H13B15523   5.556   3.530   6.165  0.2847 -0.6183 -1.3032
  142OSM   H13C15524   5.404   3.525   6.243 -2.0660 -0.7893 -1.9252
  142OSM    C1215525   5.451   3.270   6.351 -0.1247 -0.1294 -0.0614
  142OSM   H12A15526   5.397   3.206   6.282 -1.8642  1.2584 -0.0508
  142OSM   H12B15527   5.385   3.335   6.407  1.2129  0.0507  1.3898
  142OSM    C1115528   5.501   3.170   6.460  0.0155 -0.1410 -1.0858
  142OSM   H11A15529   5.416   3.115   6.506 -0.2610  1.5280  0.5296
  142OSM   H11B15530   5.533   3.230   6.548  1.6818  0.1486 -1.8661
  142OSM      P15531   5.585   2.936   6.369  0.0190 -0.3435 -0.1192
  142OSM    O1315532   5.475   2.931   6.268  0.2162 -0.4476 -0.0436
  142OSM    O1415533   5.715   2.886   6.315  0.2004 -0.0160 -0.0356
  142OSM    O1115534   5.544   2.846   6.493 -0.8720  0.1173 -0.1684
  142OSM    O1215535   5.606   3.078   6.426  0.4835  0.0038  0.0611
  142OSM    C1S15536   5.634   2.819   6.602 -0.4142 -0.2724  0.6047
  142OSM    H1S15537   5.731   2.873   6.590 -0.8098  0.3134 -0.0556
  142OSM    H1T15538   5.647   2.709   6.615  0.5816 -0.2053  0.2743
  142OSM     NF15539   5.660   2.864   6.855  0.0758  0.0015  0.2730
  142OSM    HNF15540   5.656   2.776   6.902 -1.0538 -0.6893 -1.0302
  142OSM    C2S15541   5.572   2.880   6.734 -0.6783  0.2856 -0.2933
  142OSM    H2S15542   5.546   2.985   6.709 -4.1583 -0.5937 -0.9161
  142OSM    C3S15543   5.436   2.816   6.762 -0.1452 -0.3918  0.3179
  142OSM    H3S15544   5.444   2.710   6.794 -0.5428  0.2187  2.6168
  142OSM     O315545   5.340   2.819   6.658  0.7817  0.1245  0.1029
  142OSM    HO315546   5.395   2.828   6.580 -0.6109 -2.2119 -1.2641
  142OSM    C4S15547   5.373   2.889   6.886 -1.3789  0.1982 -0.2790
  142OSM    H4S15548   5.326   2.987   6.869 -0.2753  0.8157  0.1646
  142OSM    C5S15549   5.402   2.848   7.014 -0.5308 -0.2901 -0.4001
  142OSM    H5S15550   5.453   2.752   7.025 -0.5497 -0.2907 -0.3161
  142OSM    C6S15551   5.361   2.910   7.146 -0.2704  0.5001 -0.8487
  142OSM    H6S15552   5.332   3.016   7.128  0.7308  1.2924  1.6991
  142OSM    H6T15553   5.450   2.917   7.212 -0.3361  1.9779 -0.8729
  142OSM    C7S15554   5.251   2.827   7.219 -0.3815 -0.4167 -0.3748
  142OSM    H7S15555   5.268   2.718   7.232  0.6986 -0.4115 -1.5248
  142OSM    H7T15556   5.162   2.839   7.154  1.0004  0.3462 -2.1806
  142OSM    C8S15557   5.218   2.890   7.360  0.6099 -0.7822 -0.5463
  142OSM    H8S15558   5.174   2.992   7.347  0.7556 -0.6774 -0.2180
  142OSM    H8T15559   5.303   2.896   7.432  2.1188 -0.7261 -2.2633
  142OSM    C9S15560   5.109   2.813   7.439 -0.7269  0.2197  0.0713
  142OSM    H9S15561   5.107   2.703   7.425 -0.4975  0.3750 -1.3417
  142OSM    H9T15562   5.017   2.850   7.389 -0.4815  0.3801 -0.2675
  142OSM   C10S15563   5.100   2.840   7.587 -0.3855 -0.3454 -0.0385
  142OSM   H10S15564   5.119   2.947   7.610 -1.1183  0.0438 -1.1959
  142OSM   H10T15565   5.178   2.790   7.649 -0.3850 -1.9374 -1.2498
  142OSM   C11S15566   4.959   2.831   7.641 -0.4679 -0.4760  0.4361
  142OSM   H11S15567   4.908   2.733   7.632  2.0750 -1.9069  0.5505
  142OSM   H11T15568   4.904   2.916   7.595  0.9104  0.0280 -0.3394
  142OSM   C12S15569   4.965   2.858   7.791  0.0297 -0.2447  0.1633
  142OSM   H12S15570   5.026   2.950   7.799 -1.2588  0.6300  0.3255
  142OSM   H12T15571   5.015   2.780   7.852  1.7972 -0.8297 -1.9047
  142OSM   C13S15572   4.832   2.890   7.856  0.4305 -0.1100  0.4768
  142OSM   H13S15573   4.784   2.957   7.782 -2.2510 -0.0055  2.1845
  142OSM   H13T15574   4.846   2.950   7.948  1.3769 -1.7951  1.4790
  142OSM   C14S15575   4.745   2.771   7.892  0.8132  0.2298 -0.1822
  142OSM   H14S15576   4.796   2.692   7.951  1.1595 -1.5762 -2.7175
  142OSM   H14T15577   4.707   2.720   7.801 -1.8279 -0.1504  1.0375
  142OSM   C15S15578   4.613   2.818   7.952 -0.0646 -0.1848  0.5085
  142OSM   H15S15579   4.556   2.887   7.886  0.8818  1.2844  1.1713
  142OSM   H15T15580   4.640   2.866   8.049 -0.9372 -0.0626  0.6985
  142OSM   C16S15581   4.531   2.692   7.980  0.1004 -0.9009 -0.6492
  142OSM   H16S15582   4.584   2.639   8.062  1.4388  1.6506  0.2497
  142OSM   H16T15583   4.528   2.623   7.893 -1.5111 -1.4977 -0.1698
  142OSM   C17S15584   4.393   2.718   8.039 -0.0021  0.2901 -0.1777
  142OSM   H17S15585   4.336   2.626   8.068  0.4976  0.5021  1.5882
  142OSM   H17T15586   4.324   2.763   7.965 -1.3170  1.6996  1.7918
  142OSM   C18S15587   4.387   2.809   8.161 -0.0123  0.4236 -0.2595
  142OSM   H18S15588   4.374   2.912   8.121 -1.9435 -0.0677 -1.0362
  142OSM   H18T15589   4.469   2.795   8.234 -0.9155  3.0146  1.4248
  142OSM   H18U15590   4.292   2.780   8.210  0.5008 -1.3319 -0.2327
  142OSM    C1F15591   5.767   2.938   6.864 -0.4730  0.3581  0.0921
  142OSM     OF15592   5.781   3.037   6.790  0.1470 -0.2011  0.1781
  142OSM    C2F15593   5.875   2.890   6.951  0.4469  0.4358 -0.2464
  142OSM    H2F15594   5.970   2.938   6.919  0.0453  0.2574 -1.7722
  142OSM    H2G15595   5.877   2.779   6.948  0.8733  0.4612 -2.1917
  142OSM    C3F15596   5.842   2.914   7.101  0.0751 -0.4557  0.0177
  142OSM    H3F15597   5.757   2.854   7.138 -0.1627  1.2651  2.4828
  142OSM    H3G15598   5.820   3.020   7.127  0.4767 -0.3748  0.0483
  142OSM    C4F15599   5.952   2.865   7.199  0.2190  0.1593  0.7179
  142OSM    H4F15600   6.052   2.906   7.171  0.1247 -1.6362 -2.9240
  142OSM    H4G15601   5.961   2.757   7.173  0.5130  0.5632 -0.9832
  142OSM    C5F15602   5.920   2.897   7.343 -0.6140 -0.2772 -0.2833
  142OSM    H5F15603   5.821   2.852   7.366 -0.5279 -1.0026 -1.2683
  142OSM    H5G15604   5.914   3.008   7.353 -0.2049  0.0071 -2.6193
  142OSM    C6F15605   6.023   2.841   7.447 -0.3155 -0.2138  0.8315
  142OSM    H6F15606   6.116   2.898   7.429  0.9638 -1.1787  3.7290
  142OSM    H6G15607   6.052   2.734   7.443 -1.5402 -0.8620  4.7172
  142OSM    C7F15608   5.969   2.878   7.591 -0.4275  0.0582  0.0325
  142OSM    H7F15609   5.871   2.826   7.602  0.6609 -2.4577 -1.2931
  142OSM    H7G15610   5.955   2.988   7.587 -1.2333 -0.0774 -1.4159
  142OSM    C8F15611   6.061   2.828   7.698 -0.1848 -0.6353  0.3029
  142OSM    H8F15612   6.163   2.833   7.656 -1.3570 -1.7268 -3.0354
  142OSM    H8G15613   6.045   2.719   7.714  1.9271 -0.9301  0.6489
  142OSM    C9F15614   6.047   2.905   7.825  0.0384  0.7828 -0.4330
  142OSM    H9F15615   6.133   2.972   7.836 -0.7459  1.7205  0.1533
  142OSM   C10F15616   5.946   2.895   7.911 -0.2948  0.4947  0.0014
  142OSM   H10F15617   5.946   2.969   7.992 -1.6572 -0.6960  1.1584
  142OSM   C11F15618   5.825   2.807   7.912 -1.0705 -0.5807  0.1900
  142OSM   H11F15619   5.832   2.730   7.832  0.1474 -0.7671  0.4536
  142OSM   H11G15620   5.739   2.875   7.894 -0.6891  1.1960  4.0675
  142OSM   C12F15621   5.810   2.744   8.050  0.5773  0.1442  0.3738
  142OSM   H12F15622   5.900   2.695   8.093 -0.0940 -0.8927  0.6206
  142OSM   H12G15623   5.737   2.663   8.033 -1.5973  2.3909 -1.8285
  142OSM   C13F15624   5.739   2.844   8.141 -0.4162  0.7610 -0.1960
  142OSM   H13F15625   5.649   2.874   8.084 -0.0070  0.2822 -1.1112
  142OSM   H13G15626   5.804   2.931   8.166  0.0712  0.1727  0.6331
  142OSM   C14F15627   5.694   2.764   8.267 -0.4932  0.2241  0.2976
  142OSM   H14F15628   5.677   2.659   8.235  1.0478 -0.4548  1.5275
  142OSM   H14G15629   5.598   2.805   8.303 -1.6346 -1.6140 -0.4803
  142OSM   C15F15630   5.800   2.754   8.381 -0.1128 -0.6292  0.0438
  142OSM   H15F15631   5.892   2.709   8.337 -1.5654 -4.3705  0.5003
  142OSM   H15G15632   5.760   2.683   8.456 -0.6254  0.2423  0.6168
  142OSM   C16F15633   5.837   2.884   8.462 -0.1497  0.0558 -0.6315
  142OSM   H16F15634   5.879   2.960   8.392  1.0935 -1.4324 -1.5915
  142OSM   H16G15635   5.915   2.854   8.535 -1.2198 -0.9531  0.1338
  142OSM   C17F15636   5.720   2.935   8.546 -0.4959 -0.4744 -0.4919
  142OSM   H17F15637   5.653   2.978   8.468  1.7358  0.2714 -2.1067
  142OSM   H17G15638   5.758   3.022   8.604 -1.5116 -0.5067  0.2500
  142OSM   C18F15639   5.642   2.845   8.633 -0.3631 -0.0100  0.1444
  142OSM   H18F15640   5.564   2.796   8.572 -1.3868  1.0822  0.5401
  142OSM   H18G15641   5.584   2.896   8.713  0.5063  1.6044 -0.2247
  142OSM   H18H15642   5.710   2.772   8.684  0.4490  2.3974  2.7560
  143OSM      N15643   1.245   4.646   6.112  0.3799 -0.2015 -0.1076
  143OSM    C1515644   1.347   4.698   6.013  0.3480 -0.0879  0.1721
  143OSM   H15A15645   1.442   4.653   6.037  0.0869 -0.2514  0.9116
  143OSM   H15B15646   1.365   4.804   6.011  0.7444 -0.0630 -3.6814
  143OSM   H15C15647   1.307   4.675   5.915 -0.4711  2.4455 -0.1510
  143OSM    C1415648   1.121   4.725   6.084 -0.3421  0.3794 -0.1090
  143OSM   H14A15649   1.143   4.828   6.108  0.7527  0.5852 -1.8385
  143OSM   H14B15650   1.053   4.691   6.162 -1.8119 -1.4135 -2.0799
  143OSM   H14C15651   1.065   4.703   5.994 -2.6945  2.3668  0.7156
  143OSM    C1315652   1.223   4.502   6.072 -0.0571  0.0439 -0.3227
  143OSM   H13A15653   1.302   4.432   6.097 -1.4055 -1.4899 -0.2415
  143OSM   H13B15654   1.214   4.486   5.966  2.4446 -0.7061 -0.4962
  143OSM   H13C15655   1.139   4.466   6.128  0.4368  0.7537  0.9307
  143OSM    C1215656   1.300   4.657   6.250  0.3434  0.0251  0.3881
  143OSM   H12A15657   1.219   4.627   6.314 -1.4735  1.4244 -1.1429
  143OSM   H12B15658   1.321   4.760   6.274 -0.7795  0.9267 -2.1674
  143OSM    C1115659   1.413   4.562   6.291  0.2251  0.4117 -0.3781
  143OSM   H11A15660   1.393   4.454   6.278 -1.0823  0.6194 -0.2667
  143OSM   H11B15661   1.431   4.573   6.400  0.2892 -1.0158 -0.2223
  143OSM      P15662   1.623   4.716   6.263  0.4762 -0.0957  0.2364
  143OSM    O1315663   1.742   4.723   6.176  0.0194  0.5629  0.0346
  143OSM    O1415664   1.540   4.842   6.256  0.0760  0.4652 -0.3795
  143OSM    O1115665   1.663   4.679   6.411 -0.2232  0.2821  0.0511
  143OSM    O1215666   1.532   4.594   6.216  0.1578 -0.2488 -0.2531
  143OSM    C1S15667   1.705   4.545   6.435  0.1650 -0.1841 -0.4245
  143OSM    H1S15668   1.799   4.524   6.380  0.2218 -0.7404 -0.1273
  143OSM    H1T15669   1.630   4.469   6.403 -0.8527 -1.0790  3.4591
  143OSM     NF15670   1.770   4.386   6.619 -0.2555 -0.2418 -0.6084
  143OSM    HNF15671   1.707   4.310   6.632 -0.7596  0.1578 -0.7083
  143OSM    C2S15672   1.711   4.515   6.593 -0.6501 -0.1439  0.6554
  143OSM    H2S15673   1.782   4.588   6.635  0.9863 -0.3871 -1.4958
  143OSM    C3S15674   1.564   4.516   6.649  0.3432 -0.8863  0.5656
  143OSM    H3S15675   1.503   4.442   6.593 -0.5566  0.7707 -0.7357
  143OSM     O315676   1.499   4.650   6.630  0.0933  0.5044  0.0735
  143OSM    HO315677   1.567   4.691   6.576 -0.0541 -1.7082 -1.9849
  143OSM    C4S15678   1.580   4.485   6.796  0.3312  0.3684 -0.2210
  143OSM    H4S15679   1.659   4.537   6.852 -0.1882  0.5173  0.3862
  143OSM    C5S15680   1.518   4.377   6.856 -0.1391 -0.7208  0.9563
  143OSM    H5S15681   1.448   4.315   6.799  0.2488 -0.2423 -0.0645
  143OSM    C6S15682   1.536   4.336   7.003  0.2939 -0.1086 -0.1777
  143OSM    H6S15683   1.645   4.348   7.020  0.2652  0.9800 -0.6314
  143OSM    H6T15684   1.514   4.228   7.011  1.2251 -0.3273 -0.4533
  143OSM    C7S15685   1.475   4.425   7.116  0.4157  0.3759 -0.0785
  143OSM    H7S15686   1.365   4.413   7.127  0.3652  1.0212  0.1737
  143OSM    H7T15687   1.507   4.528   7.089  0.2399  0.1112 -1.3324
  143OSM    C8S15688   1.551   4.404   7.250 -0.0735  0.6980  0.3505
  143OSM    H8S15689   1.661   4.400   7.236 -0.3364 -2.1935 -1.6865
  143OSM    H8T15690   1.521   4.303   7.284 -3.1413  0.4884 -2.3912
  143OSM    C9S15691   1.519   4.504   7.369 -0.3279  0.8994  0.5968
  143OSM    H9S15692   1.413   4.491   7.399  0.1890  0.9447  2.5541
  143OSM    H9T15693   1.537   4.609   7.337 -2.8374  1.0995 -0.4433
  143OSM   C10S15694   1.626   4.495   7.483 -0.2780  0.2289  0.5246
  143OSM   H10S15695   1.732   4.505   7.449  0.2937 -3.4927  0.8368
  143OSM   H10T15696   1.642   4.393   7.524  1.9683 -0.3388 -1.5024
  143OSM   C11S15697   1.597   4.594   7.599  0.7874  0.3039  0.3677
  143OSM   H11S15698   1.488   4.614   7.598  0.9083  1.0513  1.2536
  143OSM   H11T15699   1.645   4.693   7.586 -0.8131  1.0848  0.1783
  143OSM   C12S15700   1.621   4.542   7.737  0.1971 -0.4098 -0.2226
  143OSM   H12S15701   1.723   4.503   7.754  0.2343  0.1530  0.9261
  143OSM   H12T15702   1.555   4.454   7.752 -0.2100 -0.2540 -1.0085
  143OSM   C13S15703   1.581   4.633   7.849  0.2545  0.5655  0.2133
  143OSM   H13S15704   1.470   4.631   7.846  0.2775 -0.2210 -0.3528
  143OSM   H13T15705   1.620   4.736   7.828  2.2189 -0.0869  0.4273
  143OSM   C14S15706   1.622   4.577   7.985 -0.6084  0.2299 -0.1541
  143OSM   H14S15707   1.731   4.557   7.994 -0.5227  0.9645  0.4770
  143OSM   H14T15708   1.588   4.471   7.990 -0.8517  0.0951 -3.0858
  143OSM   C15S15709   1.575   4.662   8.101 -0.4596 -0.1186  0.3315
  143OSM   H15S15710   1.476   4.709   8.080 -0.5492  0.6176  2.1814
  143OSM   H15T15711   1.652   4.741   8.115 -1.2521  0.6499  0.4112
  143OSM   C16S15712   1.545   4.582   8.228  0.2928  0.2735 -0.3122
  143OSM   H16S15713   1.531   4.650   8.314  0.6932  0.7889 -0.6436
  143OSM   H16T15714   1.635   4.518   8.246 -0.0440 -0.0221  0.3470
  143OSM   C17S15715   1.422   4.499   8.206 -0.1972  0.1115 -0.1129
  143OSM   H17S15716   1.454   4.407   8.153 -1.0396  1.3700 -2.9964
  143OSM   H17T15717   1.352   4.547   8.135 -1.1005  0.6928  1.1334
  143OSM   C18S15718   1.345   4.466   8.334  0.2741 -0.0569 -0.4714
  143OSM   H18S15719   1.306   4.556   8.385  3.4364  0.5425  1.1719
  143OSM   H18T15720   1.395   4.405   8.413  1.7668  2.4457  0.6254
  143OSM   H18U15721   1.253   4.410   8.309 -0.3747  2.1124 -3.5027
  143OSM    C1F15722   1.896   4.363   6.630  0.1822 -0.1101  0.0687
  143OSM     OF15723   1.979   4.462   6.637  0.3685  0.2804  0.6780
  143OSM    C2F15724   1.933   4.220   6.621 -0.6386 -0.5472 -0.7710
  143OSM    H2F15725   1.942   4.177   6.519 -1.3292 -0.2287 -0.9738
  143OSM    H2G15726   1.860   4.162   6.682 -0.0985 -1.6664 -1.1572
  143OSM    C3F15727   2.073   4.209   6.686  0.1759  0.5786 -0.1152
  143OSM    H3F15728   2.099   4.289   6.759  1.0317  1.2356 -1.1232
  143OSM    H3G15729   2.146   4.192   6.604 -0.6786 -1.0793 -0.5698
  143OSM    C4F15730   2.086   4.086   6.777 -0.3825 -0.2830 -0.3421
  143OSM    H4F15731   2.193   4.072   6.801 -0.5083  1.5564  1.5948
  143OSM    H4G15732   2.064   3.995   6.717 -0.0504  0.4026 -1.5321
  143OSM    C5F15733   1.995   4.083   6.904 -0.6429  0.0573  0.3674
  143OSM    H5F15734   1.970   3.975   6.915  1.2925 -0.3382  1.4306
  143OSM    H5G15735   1.901   4.139   6.891 -0.0043  1.6296  2.1475
  143OSM    C6F15736   2.053   4.138   7.031  0.3244  0.2621 -0.1792
  143OSM    H6F15737   2.106   4.233   7.006 -0.2925  1.7175  3.4786
  143OSM    H6G15738   2.120   4.070   7.088 -2.2035 -0.1103  2.5751
  143OSM    C7F15739   1.944   4.167   7.138  0.0587  1.2786  0.4932
  143OSM    H7F15740   1.895   4.070   7.160  0.3431  0.5979 -1.6223
  143OSM    H7G15741   1.865   4.228   7.089 -0.1948  0.6675  0.1290
  143OSM    C8F15742   1.996   4.224   7.275 -0.0900 -0.0246 -0.2044
  143OSM    H8F15743   1.910   4.277   7.322  0.0153  0.8336 -0.9404
  143OSM    H8G15744   2.080   4.293   7.251  1.3318 -1.6552 -0.0974
  143OSM    C9F15745   2.062   4.124   7.365  0.2446  0.4827 -0.1764
  143OSM    H9F15746   2.171   4.109   7.359  0.1315 -1.1732  1.1775
  143OSM   C10F15747   1.993   4.058   7.458  0.0069 -0.3196  0.6227
  143OSM   H10F15748   2.047   3.989   7.525  0.5457 -1.3573 -0.8256
  143OSM   C11F15749   1.847   4.071   7.484 -0.5555 -0.7453  0.3920
  143OSM   H11F15750   1.801   4.072   7.383 -0.4258  2.3663  0.2831
  143OSM   H11G15751   1.819   4.165   7.535  0.1148  0.0672 -0.6966
  143OSM   C12F15752   1.792   3.946   7.552  0.1840  0.6727  0.4048
  143OSM   H12F15753   1.830   3.849   7.511  1.1131  1.4202 -0.5635
  143OSM   H12G15754   1.684   3.932   7.528  0.3491  1.2566 -0.7744
  143OSM   C13F15755   1.794   3.944   7.709  0.1628  0.2072  1.0624
  143OSM   H13F15756   1.725   4.023   7.745 -0.8729  0.3196 -1.0693
  143OSM   H13G15757   1.893   3.973   7.749  1.0797 -0.2259 -0.7892
  143OSM   C14F15758   1.756   3.804   7.766 -0.4015  0.7287 -0.1233
  143OSM   H14F15759   1.807   3.722   7.711 -2.0985  0.5395 -1.5064
  143OSM   H14G15760   1.647   3.784   7.764 -0.7110  2.3150 -1.7623
  143OSM   C15F15761   1.796   3.802   7.914  0.3161  0.5460 -0.0137
  143OSM   H15F15762   1.894   3.852   7.933  0.2012  0.0355  2.3073
  143OSM   H15G15763   1.814   3.696   7.945 -0.1706  0.3148 -0.5146
  143OSM   C16F15764   1.680   3.861   8.001 -0.0005 -0.5061 -0.2096
  143OSM   H16F15765   1.607   3.777   8.001 -0.0972 -0.4231 -0.3071
  143OSM   H16G15766   1.620   3.940   7.949  1.0083 -1.2096 -2.5714
  143OSM   C17F15767   1.719   3.908   8.141 -0.4264 -0.3598 -0.1039
  143OSM   H17F15768   1.799   3.983   8.125  0.4442 -1.0046  1.0829
  143OSM   H17G15769   1.760   3.839   8.218 -2.6752 -1.5830  0.0865
  143OSM   C18F15770   1.608   3.982   8.212 -0.2014  0.5435  0.2080
  143OSM   H18F15771   1.665   4.015   8.302  1.3556  0.3525 -0.6678
  143OSM   H18G15772   1.525   3.911   8.233  0.3499 -0.4476 -0.8756
  143OSM   H18H15773   1.575   4.068   8.150  0.2405  0.0379 -0.7412
  144OSM      N15774   0.356   3.736   5.973  0.0342 -0.0926  0.2439
  144OSM    C1515775   0.504   3.716   5.986 -0.6274  0.8949 -1.1460
  144OSM   H15A15776   0.541   3.636   5.924 -2.1577 -0.8958  0.1365
  144OSM   H15B15777   0.520   3.683   6.088  1.8428  2.0644 -1.0919
  144OSM   H15C15778   0.556   3.807   5.960  2.2761 -0.4661 -0.4679
  144OSM    C1415779   0.301   3.833   6.084 -0.7130  0.3137 -0.3385
  144OSM   H14A15780   0.195   3.824   6.071 -0.6895  0.5665 -0.7373
  144OSM   H14B15781   0.336   3.934   6.065 -2.5807  0.9911 -0.3194
  144OSM   H14C15782   0.329   3.798   6.182 -1.1735  1.4644  0.2245
  144OSM    C1315783   0.335   3.793   5.833 -0.5366  0.6454  0.1890
  144OSM   H13A15784   0.365   3.896   5.821  1.8442  0.0156  0.2061
  144OSM   H13B15785   0.228   3.790   5.816 -0.6546 -0.4023  0.9899
  144OSM   H13C15786   0.375   3.730   5.756 -2.3081  0.4166 -0.5796
  144OSM    C1215787   0.286   3.604   5.995  0.0232  0.2039 -0.7642
  144OSM   H12A15788   0.302   3.574   6.097  1.6651 -0.3735 -1.1686
  144OSM   H12B15789   0.319   3.525   5.930 -3.1468 -1.7859 -0.1813
  144OSM    C1115790   0.137   3.610   5.968  0.4902 -0.0352  0.4126
  144OSM   H11A15791   0.111   3.502   5.961  1.9800 -0.5319  1.9229
  144OSM   H11B15792   0.119   3.667   5.874  0.8221 -1.0215 -0.2700
  144OSM      P15793  -0.088   3.707   6.072 -0.1111  0.1694 -0.2239
  144OSM    O1315794  -0.139   3.744   5.938 -0.2403  0.2344  0.7343
  144OSM    O1415795  -0.158   3.598   6.142 -1.0746 -0.2212 -0.0761
  144OSM    O1115796  -0.079   3.843   6.152  0.8005 -0.5952 -0.1075
  144OSM    O1215797   0.067   3.668   6.074  0.0348 -0.6479  0.2020
  144OSM    C1S15798  -0.182   3.893   6.234  0.6347  0.5455  0.1600
  144OSM    H1S15799  -0.283   3.869   6.194  0.0199  4.7652 -1.4244
  144OSM    H1T15800  -0.180   4.004   6.242  1.2871  0.6023 -0.6483
  144OSM     NF15801  -0.273   3.856   6.448 -0.8491 -0.4394 -0.0639
  144OSM    HNF15802  -0.284   3.949   6.483  1.0864  0.3376 -1.3406
  144OSM    C2S15803  -0.152   3.840   6.370  0.5773  0.4687 -0.0322
  144OSM    H2S15804  -0.122   3.733   6.361  1.3797  0.4874  1.9854
  144OSM    C3S15805  -0.030   3.918   6.428 -0.8957  0.6710  0.8661
  144OSM    H3S15806  -0.058   4.025   6.441  0.2437  1.0046  0.6832
  144OSM     O315807   0.082   3.918   6.346 -0.4150 -0.5845  0.1551
  144OSM    HO315808   0.050   3.888   6.261 -3.9724  0.7510  0.8362
  144OSM    C4S15809   0.023   3.855   6.547  0.2880 -0.0187 -0.4256
  144OSM    H4S15810   0.054   3.750   6.534 -0.1187 -0.3486  1.1132
  144OSM    C5S15811   0.046   3.918   6.667  0.0568 -0.9375 -0.1361
  144OSM    H5S15812   0.031   4.027   6.670  0.9579 -0.8183  1.0255
  144OSM    C6S15813   0.122   3.853   6.782 -0.1914  0.3201  0.4743
  144OSM    H6S15814   0.179   3.939   6.824  2.2200 -1.1278  0.3333
  144OSM    H6T15815   0.204   3.786   6.749  1.3918  2.4702 -0.2045
  144OSM    C7S15816   0.035   3.774   6.884 -0.4210  0.0987 -0.7889
  144OSM    H7S15817   0.005   3.689   6.820  0.9394  0.4857 -1.9956
  144OSM    H7T15818  -0.060   3.828   6.906  0.1851  0.2552  1.7368
  144OSM    C8S15819   0.115   3.719   7.004  0.2004  0.5004  1.0766
  144OSM    H8S15820   0.223   3.719   6.977  0.0887 -0.6267  0.6102
  144OSM    H8T15821   0.073   3.619   7.026 -0.7004  0.6232  0.0120
  144OSM    C9S15822   0.113   3.814   7.116  0.4723 -0.2450 -0.3402
  144OSM    H9S15823   0.007   3.842   7.138  0.9633  2.3677 -0.9397
  144OSM    H9T15824   0.170   3.908   7.099  2.3921 -1.6633 -2.2399
  144OSM   C10S15825   0.168   3.749   7.245 -0.1825  0.4397  0.1957
  144OSM   H10S15826   0.277   3.737   7.228 -0.6077 -1.2854 -1.5911
  144OSM   H10T15827   0.117   3.653   7.268 -2.7488  1.8356  0.8115
  144OSM   C11S15828   0.160   3.824   7.379 -0.8528  0.0542 -0.0718
  144OSM   H11S15829   0.058   3.822   7.423 -1.0248 -1.4155 -0.4926
  144OSM   H11T15830   0.206   3.925   7.374 -0.8804  0.0931  0.4062
  144OSM   C12S15831   0.241   3.745   7.486 -0.3239  0.0024  0.3353
  144OSM   H12S15832   0.329   3.696   7.439 -0.6261 -0.5342  0.3105
  144OSM   H12T15833   0.171   3.666   7.521  0.7386 -0.7086  0.8940
  144OSM   C13S15834   0.297   3.830   7.598  0.7594  0.0616  0.4722
  144OSM   H13S15835   0.336   3.923   7.552 -1.0778 -0.3614 -2.2207
  144OSM   H13T15836   0.377   3.778   7.654 -0.4683 -1.3925  0.9542
  144OSM   C14S15837   0.200   3.869   7.706  1.0797  0.6997 -0.5522
  144OSM   H14S15838   0.158   3.773   7.741  0.9406  0.5043 -1.2412
  144OSM   H14T15839   0.113   3.923   7.664  0.4983 -1.2701 -2.0048
  144OSM   C15S15840   0.239   3.942   7.837 -0.2984  0.2504 -0.4026
  144OSM   H15S15841   0.295   3.877   7.908  1.3678  1.2275 -0.7546
  144OSM   H15T15842   0.146   3.972   7.890 -0.1361  0.9683 -0.5080
  144OSM   C16S15843   0.321   4.071   7.809 -0.2004 -0.2951  0.1184
  144OSM   H16S15844   0.281   4.124   7.719  0.6461 -0.3663 -0.3081
  144OSM   H16T15845   0.418   4.034   7.770 -0.4766 -1.7645  0.7852
  144OSM   C17S15846   0.313   4.180   7.911 -0.1891 -0.2424  0.2400
  144OSM   H17S15847   0.207   4.208   7.930 -0.2254  0.2160 -0.5659
  144OSM   H17T15848   0.370   4.271   7.884 -1.5829  1.0404  1.4298
  144OSM   C18S15849   0.374   4.124   8.046 -0.2472  0.2451  0.8422
  144OSM   H18S15850   0.478   4.090   8.028 -0.5519 -0.3242  0.0787
  144OSM   H18T15851   0.313   4.044   8.094  0.0205 -0.5204 -0.0641
  144OSM   H18U15852   0.364   4.199   8.128 -0.0127  1.6590 -0.3904
  144OSM    C1F15853  -0.373   3.768   6.459 -0.5423  0.1736 -0.2925
  144OSM     OF15854  -0.378   3.661   6.402 -0.3408  0.2404 -0.1977
  144OSM    C2F15855  -0.482   3.817   6.543 -0.1983  0.0831 -0.3877
  144OSM    H2F15856  -0.573   3.827   6.480 -0.4883 -0.3257 -0.0455
  144OSM    H2G15857  -0.456   3.920   6.574 -0.3334 -0.5522  2.1033
  144OSM    C3F15858  -0.499   3.728   6.663 -0.1651  0.4457 -0.5444
  144OSM    H3F15859  -0.549   3.633   6.633 -0.7383  0.5071  0.1932
  144OSM    H3G15860  -0.577   3.775   6.726 -0.6719  0.5114 -1.2124
  144OSM    C4F15861  -0.371   3.704   6.750  0.0970  0.2994 -0.6803
  144OSM    H4F15862  -0.327   3.803   6.775 -0.2433  0.3491 -0.2718
  144OSM    H4G15863  -0.300   3.642   6.690  1.3290 -0.7013  1.6776
  144OSM    C5F15864  -0.399   3.631   6.887  0.1369  0.4303 -0.3251
  144OSM    H5F15865  -0.459   3.542   6.863  0.3460  0.6619 -1.8154
  144OSM    H5G15866  -0.452   3.700   6.956  0.7590  2.4797 -1.7766
  144OSM    C6F15867  -0.268   3.599   6.960  0.2858 -0.6757  0.8544
  144OSM    H6F15868  -0.224   3.696   6.991 -0.8974 -0.1517  0.9842
  144OSM    H6G15869  -0.195   3.549   6.893 -1.2616  1.1601 -2.3953
  144OSM    C7F15870  -0.302   3.514   7.083  0.6293 -0.7426 -0.5260
  144OSM    H7F15871  -0.364   3.427   7.052 -1.6081  1.0242 -1.2677
  144OSM    H7G15872  -0.378   3.573   7.139 -0.0274 -0.0307 -2.1109
  144OSM    C8F15873  -0.184   3.471   7.162 -0.5387 -0.2378 -0.0821
  144OSM    H8F15874  -0.105   3.433   7.094 -0.7850 -1.2046  0.1509
  144OSM    H8G15875  -0.217   3.381   7.219 -0.6731  0.6718  1.3210
  144OSM    C9F15876  -0.139   3.577   7.260  0.0029 -0.2951  0.6978
  144OSM    H9F15877  -0.118   3.674   7.213  0.7263 -0.7209  0.1371
  144OSM   C10F15878  -0.146   3.568   7.391  0.5039  0.2372 -0.1249
  144OSM   H10F15879  -0.119   3.655   7.453  2.9332 -1.5193  1.5054
  144OSM   C11F15880  -0.182   3.444   7.479  0.1544  0.2393  0.5236
  144OSM   H11F15881  -0.176   3.350   7.419 -2.7164 -0.3129  0.9495
  144OSM   H11G15882  -0.289   3.444   7.511  0.6226  1.9203  2.2482
  144OSM   C12F15883  -0.096   3.415   7.600 -0.7945  0.1098  0.7361
  144OSM   H12F15884  -0.146   3.332   7.654 -0.5614 -0.3975  0.1846
  144OSM   H12G15885  -0.076   3.505   7.661  1.6578 -1.7962  3.0106
  144OSM   C13F15886   0.038   3.347   7.555  0.1238  0.1909 -0.2517
  144OSM   H13F15887   0.078   3.409   7.472  0.0071  2.1913  1.0919
  144OSM   H13G15888   0.008   3.251   7.508 -0.4686  1.4575 -2.5967
  144OSM   C14F15889   0.146   3.321   7.658  0.5076 -1.1176 -0.0313
  144OSM   H14F15890   0.168   3.425   7.690 -2.0569  0.1420 -1.9267
  144OSM   H14G15891   0.232   3.276   7.605  2.1038  0.7906  0.8150
  144OSM   C15F15892   0.104   3.238   7.778  0.2836 -0.0831  0.1605
  144OSM   H15F15893   0.085   3.132   7.752  0.8895 -0.0764 -0.3208
  144OSM   H15G15894   0.003   3.270   7.811  1.0900  2.0183  0.8015
  144OSM   C16F15895   0.211   3.258   7.886  0.1291 -0.0098  0.0094
  144OSM   H16F15896   0.209   3.366   7.913 -1.3409 -0.0258  0.0778
  144OSM   H16G15897   0.308   3.234   7.839 -0.4343 -0.2830 -1.0530
  144OSM   C17F15898   0.186   3.172   8.007  0.0192  0.2391 -0.0585
  144OSM   H17F15899   0.133   3.083   7.967 -1.8873  1.1702  0.3093
  144OSM   H17G15900   0.115   3.223   8.076 -2.9627 -0.1041 -2.6846
  144OSM   C18F15901   0.322   3.124   8.064  0.3196  0.0282 -0.3114
  144OSM   H18F15902   0.300   3.053   8.146  1.1252 -0.2936 -0.3612
  144OSM   H18G15903   0.385   3.207   8.103 -0.3862  1.1826 -1.5210
  144OSM   H18H15904   0.384   3.069   7.989 -2.2201 -1.8014 -1.1948
  145SAPE     N15905   4.211   5.057  11.044 -0.5709 -0.5199  0.7117
  145SAPE   HN115906   4.162   5.105  11.123 -3.2067  0.3143 -1.2611
  145SAPE   HN215907   4.148   5.000  10.984  0.0970  2.8060 -3.7000
  145SAPE   HN315908   4.292   4.996  11.065  0.1787  0.0157 -0.5379
  145SAPE   C1215909   4.265   5.164  10.953 -0.4188  0.5363  0.4446
  145SAPE  H12A15910   4.321   5.239  11.013 -2.0827  2.7846 -0.6294
  145SAPE  H12B15911   4.176   5.214  10.908 -0.2681 -0.2190 -0.7365
  145SAPE   C1115912   4.341   5.102  10.836  0.3130 -0.2359 -1.5176
  145SAPE  H11A15913   4.266   5.055  10.769 -1.7743 -1.9359  1.7728
  145SAPE  H11B15914   4.412   5.023  10.868 -1.7459 -2.3412 -1.8807
  145SAPE     P15915   4.544   5.206  10.695  0.3536  0.1283 -0.1878
  145SAPE   O1315916   4.574   5.342  10.644 -0.8644 -0.2494  0.3158
  145SAPE   O1415917   4.643   5.141  10.782 -0.4238 -0.4762  0.2590
  145SAPE   O1215918   4.411   5.211  10.773  0.2353  0.0264  0.1910
  145SAPE   O1115919   4.526   5.114  10.572  0.3486  0.3628  0.4775
  145SAPE    C115920   4.407   5.113  10.493 -0.4174 -0.4869  0.9605
  145SAPE    HA15921   4.356   5.022  10.530 -0.1707 -1.2795 -0.5908
  145SAPE    HB15922   4.336   5.198  10.498 -2.3793 -1.9822 -0.4396
  145SAPE    C215923   4.447   5.102  10.344  0.4615  0.4220  0.4471
  145SAPE    HS15924   4.352   5.129  10.293  0.0877  1.3248  1.5722
  145SAPE   O2115925   4.493   4.965  10.317  0.0678  0.3382 -0.1421
  145SAPE   C2115926   4.449   4.912  10.205  0.8358  0.0601 -0.1967
  145SAPE   O2215927   4.374   4.969  10.125 -0.4812 -0.1803  0.0421
  145SAPE   C2215928   4.503   4.773  10.192 -0.5427 -0.4704  0.6193
  145SAPE   H2R15929   4.540   4.773  10.087  0.9767 -0.6481  1.1416
  145SAPE   H2S15930   4.581   4.743  10.264 -1.1899  0.9339  1.9617
  145SAPE    C315931   4.556   5.205  10.304  0.2471  0.4493  1.2740
  145SAPE    HX15932   4.649   5.170  10.355  1.9098 -0.3425 -1.9787
  145SAPE    HY15933   4.529   5.307  10.338 -0.4837  0.2881  1.1906
  145SAPE   O3115934   4.573   5.203  10.156 -0.4652  0.1721 -0.2393
  145SAPE   C3115935   4.494   5.281  10.091  0.4464 -0.0128  0.6842
  145SAPE   O3215936   4.416   5.359  10.142 -0.8466 -0.9203  0.6768
  145SAPE   C3215937   4.496   5.260   9.936  0.2704  0.3392 -0.1924
  145SAPE   H2X15938   4.476   5.153   9.913 -0.1918  0.2031  0.7898
  145SAPE   H2Y15939   4.603   5.274   9.912  0.6164 -0.0553  1.0077
  145SAPE   C2315940   4.402   4.661  10.206  0.4121  0.6929 -0.3237
  145SAPE   H3R15941   4.317   4.668  10.135 -1.6502 -0.8893  1.8198
  145SAPE   H3S15942   4.354   4.662  10.307 -0.3091 -0.2528 -0.6479
  145SAPE   C2415943   4.471   4.523  10.197 -0.5384  0.7094  0.2030
  145SAPE   H4R15944   4.553   4.518  10.272  0.6296  2.1013 -0.9383
  145SAPE   H4S15945   4.523   4.518  10.099 -1.6344  2.6707 -0.5353
  145SAPE   C2515946   4.373   4.408  10.213 -0.1079 -0.3646  0.1108
  145SAPE   H5R15947   4.306   4.419  10.300 -1.6311 -0.8548 -0.9550
  145SAPE   C2615948   4.352   4.294  10.135 -0.2613 -0.1950 -0.7413
  145SAPE   H6R15949   4.280   4.219  10.170 -0.2161  0.0020 -0.2119
  145SAPE   C2715950   4.430   4.244  10.017 -0.1684  0.1166  0.1729
  145SAPE   H7R15951   4.375   4.150   9.997 -0.8306  0.1361  1.7401
  145SAPE   H7S15952   4.536   4.220  10.040  0.1281 -1.7978 -2.6911
  145SAPE   C2815953   4.443   4.336   9.898  0.5064 -0.4917 -0.0275
  145SAPE   H8R15954   4.455   4.442   9.924 -5.5648  0.9602 -1.5504
  145SAPE   C2915955   4.463   4.304   9.769 -0.3071  0.2979 -0.3757
  145SAPE   H9R15956   4.456   4.383   9.692  1.1005  1.1681  0.3355
  145SAPE  C21015957   4.482   4.162   9.716  0.0908 -0.3475  0.1618
  145SAPE  H10R15958   4.450   4.077   9.780  2.2598  0.3294  2.2601
  145SAPE  H10S15959   4.588   4.129   9.711  1.1153  2.5843  0.8487
  145SAPE  C21115960   4.421   4.154   9.581  0.4258  0.0151  0.5547
  145SAPE  H11R15961   4.320   4.110   9.583  0.5141 -0.2182  0.0743
  145SAPE  C21215962   4.483   4.160   9.462  0.3683  0.7487 -0.0295
  145SAPE  H12R15963   4.425   4.157   9.368  2.9219  0.5526 -1.7041
  145SAPE  C21315964   4.629   4.202   9.452  0.3828  0.3600 -0.3280
  145SAPE  H13R15965   4.696   4.114   9.457  0.1378  0.1209 -1.1810
  145SAPE  H13S15966   4.659   4.273   9.533 -0.2479 -1.5651  1.6865
  145SAPE  C21415967   4.649   4.262   9.316 -0.0051 -0.0728  0.2411
  145SAPE  H14R15968   4.720   4.203   9.255 -1.8004 -0.0549 -1.9888
  145SAPE  C21515969   4.592   4.369   9.257  0.0617 -0.1128  0.8734
  145SAPE  H15R15970   4.605   4.389   9.150 -1.1945 -0.4566  0.6450
  145SAPE  C21615971   4.490   4.459   9.314  0.2389 -0.1439 -0.7945
  145SAPE  H16R15972   4.439   4.423   9.406 -0.8032 -1.2534 -1.7757
  145SAPE  H16S15973   4.414   4.471   9.233  0.3947  1.3134 -0.7453
  145SAPE  C21715974   4.555   4.601   9.332  0.1245  0.8681  0.4035
  145SAPE  H17R15975   4.659   4.591   9.369 -0.1787 -1.4556  0.7938
  145SAPE  H17S15976   4.500   4.658   9.410  0.0481 -0.9683  1.7693
  145SAPE  C21815977   4.553   4.693   9.208 -0.2259  0.1891  0.1369
  145SAPE  H18R15978   4.446   4.703   9.183 -0.3081  1.5425  0.9194
  145SAPE  H18S15979   4.596   4.647   9.117 -1.6844  2.2239 -1.6607
  145SAPE  C21915980   4.612   4.832   9.234  0.2234 -0.2809  0.3780
  145SAPE  H19R15981   4.722   4.817   9.237  0.3323  0.1091 -1.0124
  145SAPE  H19S15982   4.579   4.870   9.333  1.8582  1.2871  0.3806
  145SAPE  C22015983   4.582   4.949   9.139 -0.0935  0.0529 -0.2652
  145SAPE  H20R15984   4.472   4.966   9.127  0.0999  0.9191 -0.9418
  145SAPE  H20S15985   4.622   4.920   9.040 -0.4177 -1.2309 -0.0399
  145SAPE  H20T15986   4.618   5.051   9.167 -0.3406 -0.1172  0.7366
  145SAPE   C3315987   4.400   5.342   9.848  0.2309 -0.2869 -0.2815
  145SAPE   H3X15988   4.429   5.449   9.854 -0.0683 -0.2805  3.7985
  145SAPE   H3Y15989   4.294   5.335   9.880  0.9269  0.0791  2.3600
  145SAPE   C3415990   4.408   5.315   9.697 -0.9211  0.6094 -0.8675
  145SAPE   H4X15991   4.516   5.308   9.672 -0.4559  0.0136  1.0940
  145SAPE   H4Y15992   4.369   5.403   9.643 -1.5320 -0.4292 -2.1694
  145SAPE   C3515993   4.338   5.184   9.660 -0.0941  0.1096 -0.1710
  145SAPE   H5X15994   4.232   5.173   9.691 -0.0388  2.1625  0.8700
  145SAPE   H5Y15995   4.400   5.104   9.706 -0.2276 -0.9979 -1.8084
  145SAPE   C3615996   4.342   5.160   9.500  0.0066  0.7277  0.4238
  145SAPE   H6X15997   4.450   5.145   9.478 -0.3473  1.0894 -1.8600
  145SAPE   H6Y15998   4.321   5.258   9.452 -1.3863 -0.0337 -0.5911
  145SAPE   C3715999   4.249   5.050   9.449 -0.5969  0.1841  0.5404
  145SAPE   H7X16000   4.146   5.063   9.489 -0.3114 -1.0479  1.7885
  145SAPE   H7Y16001   4.292   4.952   9.480  0.5899  0.8190  0.9512
  145SAPE   C3816002   4.245   5.056   9.302  0.6678 -0.7039  0.2460
  145SAPE   H8X16003   4.341   5.094   9.264 -0.6174  1.0443 -1.4186
  145SAPE   H8Y16004   4.170   5.127   9.262 -1.5223 -2.8836  0.2003
  145SAPE   C3916005   4.206   4.922   9.233 -0.6807  0.2357 -0.2197
  145SAPE   H9X16006   4.276   4.836   9.234 -1.7193 -0.6336  0.4509
  145SAPE   H9Y16007   4.204   4.943   9.124  0.3401 -0.0647 -0.3073
  145SAPE  C31016008   4.062   4.884   9.264  0.1952  0.5437  0.2231
  145SAPE  H10X16009   3.990   4.968   9.261  3.6742  3.7568 -0.0460
  145SAPE  H10Y16010   4.058   4.849   9.370 -1.8272  2.8409  0.9737
  145SAPE  C31116011   4.022   4.759   9.178  0.0854  0.1647  0.3722
  145SAPE  H11X16012   3.937   4.701   9.220  0.6242 -1.0824 -0.1861
  145SAPE  H11Y16013   4.114   4.696   9.174  0.6769  1.0433 -0.6107
  145SAPE  C31216014   3.979   4.820   9.048 -0.6151 -0.6263  0.0166
  145SAPE  H12X16015   4.072   4.833   8.988  1.9371 -0.6459  3.6758
  145SAPE  H12Y16016   3.920   4.912   9.064 -1.0534 -1.3880  3.3685
  145SAPE  C31316017   3.890   4.729   8.963 -0.9306 -0.3269 -0.8047
  145SAPE  H13X16018   3.844   4.788   8.882 -2.0542 -0.1567 -0.0594
  145SAPE  H13Y16019   3.806   4.696   9.028 -1.7594  1.9378 -0.6671
  145SAPE  C31416020   3.967   4.606   8.892  0.2642 -0.7736  0.3236
  145SAPE  H14X16021   3.975   4.535   8.977  0.2807  0.1000  1.0783
  145SAPE  H14Y16022   4.072   4.637   8.871  0.4251 -0.5565  1.3661
  145SAPE  C31516023   3.887   4.561   8.765  0.2797  0.6988 -0.2281
  145SAPE  H15X16024   3.893   4.641   8.689  2.0612  0.6748 -0.1527
  145SAPE  H15Y16025   3.783   4.557   8.802  0.2293  1.9094 -0.1968
  145SAPE  C31616026   3.945   4.433   8.706 -0.3721  0.5754  0.1269
  145SAPE  H16X16027   3.947   4.349   8.779  0.3070 -0.3850 -0.9628
  145SAPE  H16Y16028   4.054   4.439   8.687 -0.4564 -1.7301 -1.4712
  145SAPE  C31716029   3.865   4.381   8.585 -0.3662 -0.1718 -0.6656
  145SAPE  H17X16030   3.793   4.307   8.628  0.5182 -0.4840  0.3272
  145SAPE  H17Y16031   3.936   4.328   8.518  0.6349 -1.7572  1.5251
  145SAPE  C31816032   3.803   4.487   8.489  0.0907  0.4422 -0.4246
  145SAPE  H18X16033   3.876   4.571   8.479  0.0007  1.1887  3.6267
  145SAPE  H18Y16034   3.707   4.523   8.532 -0.5809  2.2326 -3.1690
  145SAPE  H18Z16035   3.786   4.426   8.398  1.6811 -2.4162  1.0642
  146SAPE     N16036   4.279   6.345  10.603 -0.3072 -0.3862  0.2799
  146SAPE   HN116037   4.195   6.318  10.548 -0.0366  1.2551 -1.0247
  146SAPE   HN216038   4.257   6.432  10.656 -1.9675  0.8135 -2.2084
  146SAPE   HN316039   4.354   6.372  10.536 -1.9045 -0.2694 -1.5153
  146SAPE   C1216040   4.323   6.225  10.686 -0.0772 -0.3277  0.3598
  146SAPE  H12A16041   4.377   6.159  10.614  1.7963  1.2541  0.2230
  146SAPE  H12B16042   4.227   6.188  10.727 -0.0725  0.6244  1.2646
  146SAPE   C1116043   4.419   6.272  10.798 -0.0445  0.2992 -0.1797
  146SAPE  H11A16044   4.431   6.187  10.867  0.2016  1.5766  1.3985
  146SAPE  H11B16045   4.365   6.349  10.857 -0.3323 -1.0919  1.4475
  146SAPE     P16046   4.678   6.236  10.753 -0.1689  0.0725  0.1113
  146SAPE   O1316047   4.790   6.309  10.693 -0.1170 -0.8387  0.2048
  146SAPE   O1416048   4.695   6.193  10.891 -0.4183  0.1827 -0.5458
  146SAPE   O1216049   4.545   6.318  10.746  0.4560  0.3328 -0.3274
  146SAPE   O1116050   4.659   6.115  10.663 -0.5458 -0.3108  0.4562
  146SAPE    C116051   4.766   6.042  10.596  0.5714 -0.0801  1.2111
  146SAPE    HA16052   4.863   6.091  10.617  0.7339 -0.6858  1.9338
  146SAPE    HB16053   4.770   5.938  10.636  2.3418 -1.1766 -1.5066
  146SAPE    C216054   4.749   6.044  10.443  0.7590  0.2293 -0.3407
  146SAPE    HS16055   4.840   6.003  10.393  0.3637 -3.1031  1.3841
  146SAPE   O2116056   4.721   6.179  10.393 -0.3949  0.2396  0.6010
  146SAPE   C2116057   4.833   6.249  10.364  0.2593  0.2295  0.0577
  146SAPE   O2216058   4.946   6.207  10.388  0.0798 -0.1150  0.2630
  146SAPE   C2216059   4.793   6.377  10.290  0.1332  0.1888  0.6705
  146SAPE   H2R16060   4.701   6.366  10.228  1.7691  0.6749 -2.0449
  146SAPE   H2S16061   4.773   6.451  10.370  0.3719 -1.5133  2.3687
  146SAPE    C316062   4.627   5.954  10.396 -0.2055  0.3594  0.0846
  146SAPE    HX16063   4.540   6.016  10.428  1.0176  1.3216  1.6956
  146SAPE    HY16064   4.618   5.868  10.465  1.5138  0.5533  0.5945
  146SAPE   O3116065   4.628   5.911  10.256  0.4750 -1.0919 -0.0689
  146SAPE   C3116066   4.725   5.825  10.220 -0.1837 -0.4820  0.3789
  146SAPE   O3216067   4.810   5.783  10.296 -0.2347 -1.2752 -0.2080
  146SAPE   C3216068   4.720   5.794  10.064 -0.3547 -0.5768  0.8722
  146SAPE   H2X16069   4.818   5.835  10.034 -0.5941 -1.4984 -1.3790
  146SAPE   H2Y16070   4.636   5.858  10.030  1.1691  2.2623  2.1171
  146SAPE   C2316071   4.906   6.429  10.196 -0.4401  0.2043  0.5105
  146SAPE   H3R16072   5.005   6.433  10.248  0.5922 -3.3001 -0.9084
  146SAPE   H3S16073   4.877   6.535  10.178  2.0015  0.3963 -3.6639
  146SAPE   C2416074   4.910   6.361  10.059 -0.4772 -0.5004  0.5166
  146SAPE   H4R16075   4.976   6.417   9.990  0.7731  0.0848  2.1087
  146SAPE   H4S16076   4.806   6.375  10.024  0.1370  0.3433 -1.0660
  146SAPE   C2516077   4.951   6.216  10.054  0.0279 -0.7473 -0.8912
  146SAPE   H5R16078   5.046   6.202  10.108 -1.1876  1.9830  2.2607
  146SAPE   C2616079   4.885   6.122   9.993  1.1425  0.0640  0.4258
  146SAPE   H6R16080   4.925   6.020   9.993  1.1937  0.0825  0.7118
  146SAPE   C2716081   4.753   6.135   9.916  0.2446 -0.2362 -0.6859
  146SAPE   H7R16082   4.736   6.057   9.839 -2.5116  2.8824 -3.5424
  146SAPE   H7S16083   4.755   6.226   9.853  2.6564  0.4944  0.3254
  146SAPE   C2816084   4.637   6.136  10.012 -0.0377  0.5213  0.0528
  146SAPE   H8R16085   4.657   6.146  10.120  0.2627  1.8499 -0.1070
  146SAPE   C2916086   4.511   6.113   9.963  0.0577 -0.7252 -0.3019
  146SAPE   H9R16087   4.430   6.110  10.038 -0.3773  1.6663 -0.5897
  146SAPE  C21016088   4.472   6.097   9.822 -0.1944 -0.3902  0.5727
  146SAPE  H10R16089   4.456   5.989   9.805 -1.9567 -0.0628 -0.0517
  146SAPE  H10S16090   4.559   6.128   9.760 -0.2686 -1.0875  0.1176
  146SAPE  C21116091   4.353   6.174   9.766 -0.1264  0.4738 -0.1418
  146SAPE  H11R16092   4.309   6.255   9.827 -0.3585  0.3407 -0.1315
  146SAPE  C21216093   4.315   6.162   9.639 -0.0221  0.3804  1.1314
  146SAPE  H12R16094   4.237   6.227   9.598 -1.1181 -1.2634  0.4976
  146SAPE  C21316095   4.363   6.070   9.528  0.0265  0.6607 -0.4445
  146SAPE  H13R16096   4.300   6.075   9.437 -0.7516 -0.9971 -0.0242
  146SAPE  H13S16097   4.362   5.969   9.575  0.0516  0.0913 -1.6511
  146SAPE  C21416098   4.511   6.093   9.485 -0.3481  0.5216 -0.1335
  146SAPE  H14R16099   4.591   6.067   9.555 -0.0415 -1.3496 -1.1030
  146SAPE  C21516100   4.553   6.139   9.366  0.2303 -0.3994  0.5323
  146SAPE  H15R16101   4.659   6.152   9.342  0.0668  0.0740  0.0745
  146SAPE  C21616102   4.471   6.180   9.248  0.4412  0.8853  0.1472
  146SAPE  H16R16103   4.488   6.288   9.233  0.6200  1.1492  2.0067
  146SAPE  H16S16104   4.361   6.185   9.263  0.2328 -1.3464 -0.2538
  146SAPE  C21716105   4.506   6.117   9.107 -0.5528 -0.1259 -0.0358
  146SAPE  H17R16106   4.612   6.113   9.074  0.3121 -1.3995  2.6783
  146SAPE  H17S16107   4.445   6.178   9.036  1.0845  0.2350 -1.1941
  146SAPE  C21816108   4.469   5.967   9.090 -0.2250 -0.5398 -0.7492
  146SAPE  H18R16109   4.358   5.956   9.095 -0.0699 -2.3592 -0.4035
  146SAPE  H18S16110   4.522   5.912   9.171  1.5335 -2.0606 -2.7997
  146SAPE  C21916111   4.524   5.910   8.960 -0.0729 -0.6881 -0.2950
  146SAPE  H19R16112   4.490   5.805   8.950 -1.9619 -0.0062 -1.4544
  146SAPE  H19S16113   4.635   5.904   8.964  0.0565  1.5396  0.7546
  146SAPE  C22016114   4.474   5.978   8.831 -0.1668  0.4969  0.4022
  146SAPE  H20R16115   4.505   6.084   8.828  2.9958 -0.3245  0.5481
  146SAPE  H20S16116   4.363   5.978   8.839 -0.1226  1.6664  1.1937
  146SAPE  H20T16117   4.503   5.929   8.736 -1.8795  0.1643  0.0191
  146SAPE   C3316118   4.695   5.650  10.034  0.0835  0.6333  0.4490
  146SAPE   H3X16119   4.611   5.600  10.087 -0.7622  1.9624  0.3934
  146SAPE   H3Y16120   4.787   5.591  10.053  0.8356  2.0018  1.1591
  146SAPE   C3416121   4.652   5.619   9.888 -0.0652 -0.4823 -0.2133
  146SAPE   H4X16122   4.553   5.666   9.870  1.4347  2.5530 -1.1913
  146SAPE   H4Y16123   4.639   5.510   9.870 -0.5196 -0.7721  1.6800
  146SAPE   C3516124   4.755   5.670   9.777 -0.0319  0.3287 -0.1168
  146SAPE   H5X16125   4.860   5.640   9.797  0.0080 -0.1461 -0.9985
  146SAPE   H5Y16126   4.752   5.781   9.781 -1.3642  0.2704  1.4763
  146SAPE   C3616127   4.717   5.638   9.632  0.3579  1.1474 -0.3009
  146SAPE   H6X16128   4.704   5.527   9.632  0.6619  1.1090 -0.9168
  146SAPE   H6Y16129   4.802   5.654   9.562  2.6309 -0.1626  1.9664
  146SAPE   C3716130   4.593   5.711   9.585  0.0972 -0.2072 -1.1982
  146SAPE   H7X16131   4.619   5.819   9.587 -0.0909 -0.0584 -3.9627
  146SAPE   H7Y16132   4.507   5.684   9.650  1.2587  0.3555  0.6723
  146SAPE   C3816133   4.570   5.660   9.440 -0.6761 -0.6149 -0.7102
  146SAPE   H8X16134   4.673   5.671   9.399  0.2847  1.3413  1.9794
  146SAPE   H8Y16135   4.492   5.724   9.394 -1.4772 -0.3085  0.9755
  146SAPE   C3916136   4.543   5.507   9.410  0.0727 -0.5807 -0.3175
  146SAPE   H9X16137   4.438   5.475   9.431 -0.0721  0.0738 -0.0058
  146SAPE   H9Y16138   4.603   5.454   9.487  2.0511 -0.0625 -1.4366
  146SAPE  C31016139   4.587   5.464   9.269  0.4427 -0.0155  0.6738
  146SAPE  H10X16140   4.562   5.356   9.256 -0.2415  0.0894  1.0950
  146SAPE  H10Y16141   4.698   5.466   9.263  0.3986  1.8856 -4.0895
  146SAPE  C31116142   4.512   5.535   9.153  0.2405  0.1315  0.2788
  146SAPE  H11X16143   4.560   5.635   9.139 -1.0265  0.9885  1.7340
  146SAPE  H11Y16144   4.405   5.543   9.180 -0.3817 -3.2457 -0.6958
  146SAPE  C31216145   4.523   5.458   9.024  0.1041 -1.2053 -0.3515
  146SAPE  H12X16146   4.622   5.411   9.007  1.3490 -0.2232  3.1914
  146SAPE  H12Y16147   4.528   5.535   8.944 -1.1767  1.7096  2.1451
  146SAPE  C31316148   4.408   5.356   9.002 -0.0898 -0.2019 -0.4465
  146SAPE  H13X16149   4.310   5.407   9.015  0.9935  1.3784  2.4560
  146SAPE  H13Y16150   4.409   5.283   9.085 -2.0299  0.1486 -0.0593
  146SAPE  C31416151   4.421   5.274   8.875  0.2610  0.2327  0.5942
  146SAPE  H14X16152   4.500   5.195   8.885  0.5572  0.4269 -0.1174
  146SAPE  H14Y16153   4.461   5.334   8.791  1.7893 -0.5043  0.7486
  146SAPE  C31516154   4.282   5.216   8.831 -0.5686 -0.0869 -0.0025
  146SAPE  H15X16155   4.231   5.310   8.802 -0.2708  0.8645  2.4176
  146SAPE  H15Y16156   4.226   5.165   8.912 -1.4787 -0.4869 -0.8526
  146SAPE  C31616157   4.294   5.130   8.708  0.9356 -0.0106 -0.0819
  146SAPE  H16X16158   4.354   5.038   8.727 -1.0100 -1.4299 -0.4335
  146SAPE  H16Y16159   4.354   5.191   8.638 -1.0965  1.6675 -0.4521
  146SAPE  C31716160   4.157   5.088   8.653  0.2207 -0.2643  0.5696
  146SAPE  H17X16161   4.108   5.036   8.738 -0.2097 -2.0523 -0.7228
  146SAPE  H17Y16162   4.179   5.006   8.581  0.3904 -1.2116  1.6749
  146SAPE  C31816163   4.067   5.189   8.583 -0.3694 -0.1844 -0.1872
  146SAPE  H18X16164   3.981   5.131   8.545 -0.3850 -0.3327  0.0767
  146SAPE  H18Y16165   4.122   5.243   8.502 -0.6232 -0.5019 -0.5798
  146SAPE  H18Z16166   4.041   5.272   8.651  1.5689  0.4043 -0.1071
  147SAPE     N16167   4.803   1.258  10.777 -0.1939 -0.0651 -0.0161
  147SAPE   HN116168   4.833   1.325  10.851  0.0901  0.6152 -0.7424
  147SAPE   HN216169   4.878   1.223  10.714  0.8780 -0.1320  1.2320
  147SAPE   HN316170   4.730   1.312  10.728 -1.0883 -0.2807  1.0333
  147SAPE   C1216171   4.769   1.133  10.854  0.6298  0.1119 -0.0148
  147SAPE  H12A16172   4.717   1.175  10.942  1.5654 -0.3949  0.7993
  147SAPE  H12B16173   4.864   1.086  10.887  1.2254  0.1560 -1.5932
  147SAPE   C1116174   4.679   1.042  10.764 -0.6718 -0.0165 -0.2158
  147SAPE  H11A16175   4.648   0.953  10.823 -1.4925  1.0762  1.0602
  147SAPE  H11B16176   4.747   0.997  10.688 -1.7062 -3.7178  0.8569
  147SAPE     P16177   4.442   1.143  10.779  0.0695 -0.1682  0.3823
  147SAPE   O1316178   4.472   1.123  10.924 -0.1654  0.1545 -0.3785
  147SAPE   O1416179   4.399   1.277  10.735  0.6899  0.0166 -0.9128
  147SAPE   O1216180   4.567   1.104  10.697 -0.2210 -0.1648 -0.3854
  147SAPE   O1116181   4.338   1.038  10.732 -0.0435  0.3429  0.0200
  147SAPE    C116182   4.371   0.934  10.638  0.4957  0.4691  0.0673
  147SAPE    HA16183   4.466   0.881  10.656  0.7294  0.9753  0.3413
  147SAPE    HB16184   4.298   0.852  10.654  0.5659  0.4902  0.4923
  147SAPE    C216185   4.342   0.981  10.488  0.0973  0.1718 -0.2109
  147SAPE    HS16186   4.341   0.900  10.412 -0.9673 -2.5900  2.5314
  147SAPE   O2116187   4.429   1.091  10.444  0.6095  0.6125  0.4829
  147SAPE   C2116188   4.550   1.044  10.411  0.0728 -0.2448 -0.4198
  147SAPE   O2216189   4.577   0.929  10.386 -0.4112  0.4195 -0.2549
  147SAPE   C2216190   4.664   1.154  10.402  0.4534 -0.0657  0.2396
  147SAPE   H2R16191   4.641   1.234  10.476 -0.5802 -1.3231  1.3152
  147SAPE   H2S16192   4.754   1.102  10.443  0.3709 -0.3051  0.1183
  147SAPE    C316193   4.192   1.026  10.490  0.2314  0.0859  0.2552
  147SAPE    HX16194   4.203   1.119  10.550  2.3501 -1.9143  3.2437
  147SAPE    HY16195   4.123   0.964  10.550 -2.3581  2.6238  0.1388
  147SAPE   O3116196   4.148   1.057  10.354  0.1842 -0.4152  0.3584
  147SAPE   C3116197   4.075   0.965  10.294  0.7396  0.1802 -0.3027
  147SAPE   O3216198   4.024   0.869  10.346 -0.5227  0.1714  0.4455
  147SAPE   C3216199   4.072   1.006  10.150  0.1359  0.1909  0.5911
  147SAPE   H2X16200   4.133   1.098  10.136 -1.4171  1.5541  2.2944
  147SAPE   H2Y16201   3.966   1.036  10.132 -0.2257 -1.0668  0.5698
  147SAPE   C2316202   4.686   1.205  10.257  0.5619  0.4058 -0.1933
  147SAPE   H3R16203   4.682   1.114  10.192  1.0163  0.2268  0.0271
  147SAPE   H3S16204   4.791   1.240  10.245  0.6620  0.1206 -0.1616
  147SAPE   C2416205   4.593   1.325  10.208 -0.6916 -0.2736  0.6092
  147SAPE   H4R16206   4.628   1.374  10.116 -0.6858  1.8344  1.6794
  147SAPE   H4S16207   4.594   1.403  10.287  1.0828  1.1744 -0.7652
  147SAPE   C2516208   4.451   1.283  10.197  0.1486  0.1642  1.3333
  147SAPE   H5R16209   4.401   1.233  10.281 -1.3116 -1.8161 -0.5788
  147SAPE   C2616210   4.380   1.285  10.075  0.0070 -0.4664 -0.4981
  147SAPE   H6R16211   4.273   1.260  10.070 -0.5853  1.8652 -0.8288
  147SAPE   C2716212   4.423   1.318   9.936  0.4730 -0.1871  0.0917
  147SAPE   H7R16213   4.513   1.382   9.929 -1.5521  2.7052 -2.1637
  147SAPE   H7S16214   4.346   1.380   9.885 -0.4266 -0.7972  0.6813
  147SAPE   C2816215   4.456   1.198   9.860 -0.0243 -0.0153 -0.6184
  147SAPE   H8R16216   4.513   1.125   9.920 -1.7474 -0.3659  0.6803
  147SAPE   C2916217   4.421   1.170   9.727  0.6824  0.0961 -0.9708
  147SAPE   H9R16218   4.450   1.069   9.695 -1.2554 -0.6362 -0.5587
  147SAPE  C21016219   4.340   1.270   9.646  0.0779 -0.0597  0.5329
  147SAPE  H10R16220   4.250   1.308   9.699 -0.9090 -2.4490  0.6833
  147SAPE  H10S16221   4.305   1.213   9.557  1.6962 -1.3030  0.6537
  147SAPE  C21116222   4.415   1.388   9.595  0.1563  0.0430  0.1963
  147SAPE  H11R16223   4.395   1.474   9.661 -0.2665 -0.2434  0.4383
  147SAPE  C21216224   4.488   1.398   9.483  0.1286  0.0960 -0.5845
  147SAPE  H12R16225   4.549   1.488   9.468 -0.2507  0.2632 -1.1679
  147SAPE  C21316226   4.495   1.287   9.386  0.7369  0.2247  0.0692
  147SAPE  H13R16227   4.403   1.315   9.331 -0.7192  1.0410  2.7676
  147SAPE  H13S16228   4.463   1.185   9.415 -1.0794  1.4253  2.5970
  147SAPE  C21416229   4.628   1.289   9.309  0.3100 -0.0565  0.8731
  147SAPE  H14R16230   4.706   1.237   9.366  1.8680  1.8123  0.5346
  147SAPE  C21516231   4.646   1.341   9.183  0.0208 -0.2931  0.4415
  147SAPE  H15R16232   4.749   1.347   9.143 -0.6011  0.6683 -1.1131
  147SAPE  C21616233   4.536   1.394   9.098 -0.6187  0.4774  0.0507
  147SAPE  H16R16234   4.464   1.446   9.164 -2.5752 -0.9451 -0.8680
  147SAPE  H16S16235   4.469   1.314   9.060 -2.9439  1.6712  1.3946
  147SAPE  C21716236   4.580   1.483   8.974  0.0577 -0.6735 -0.4667
  147SAPE  H17R16237   4.589   1.417   8.886 -0.3161 -1.9011  0.3833
  147SAPE  H17S16238   4.672   1.537   9.006 -0.2915 -1.3578  1.8934
  147SAPE  C21816239   4.480   1.602   8.937 -0.0770 -0.3267  0.1983
  147SAPE  H18R16240   4.389   1.547   8.903  0.0674 -0.7089  0.4190
  147SAPE  H18S16241   4.526   1.655   8.851 -1.5073  0.1842 -0.2931
  147SAPE  C21916242   4.442   1.683   9.056  0.4303  0.8376 -0.0949
  147SAPE  H19R16243   4.388   1.626   9.135  0.1269  1.7214  0.3539
  147SAPE  H19S16244   4.372   1.762   9.021 -1.7643 -1.3058 -0.7518
  147SAPE  C22016245   4.555   1.757   9.121 -0.3660 -0.1160 -0.1427
  147SAPE  H20R16246   4.639   1.686   9.140  0.5533  1.0914  0.4286
  147SAPE  H20S16247   4.527   1.798   9.221 -0.2681  0.4179 -0.3337
  147SAPE  H20T16248   4.606   1.827   9.052  2.5602 -1.5199  0.4522
  147SAPE   C3316249   4.100   0.900  10.041 -1.0777 -0.7891 -0.9399
  147SAPE   H3X16250   4.015   0.830  10.051  0.1390 -2.3828 -1.3421
  147SAPE   H3Y16251   4.198   0.855  10.068 -0.4500  2.1627  2.4092
  147SAPE   C3416252   4.118   0.956   9.904  0.2114 -0.0972  0.5184
  147SAPE   H4X16253   4.211   1.015   9.897  0.0079  0.2692  0.8489
  147SAPE   H4Y16254   4.032   1.024   9.883  0.7147 -0.0645 -1.6507
  147SAPE   C3516255   4.091   0.855   9.789  0.1758 -0.1132 -0.1659
  147SAPE   H5X16256   3.991   0.807   9.791  0.7713 -1.4033 -0.5308
  147SAPE   H5Y16257   4.153   0.765   9.811 -0.0390  0.3168  2.4721
  147SAPE   C3616258   4.119   0.908   9.657  0.0723  0.9866  0.4851
  147SAPE   H6X16259   4.119   0.821   9.588 -0.4908 -1.3864  3.2842
  147SAPE   H6Y16260   4.222   0.948   9.667  0.6194 -0.2103 -0.1278
  147SAPE   C3716261   4.022   1.008   9.601  0.3909  0.4773  0.2736
  147SAPE   H7X16262   4.016   1.087   9.679  0.0517 -0.5045  1.2605
  147SAPE   H7Y16263   3.919   0.970   9.589  0.3588  0.8745 -0.8066
  147SAPE   C3816264   4.071   1.073   9.467 -0.1282  1.3176 -0.9022
  147SAPE   H8X16265   4.182   1.080   9.467 -0.1189  2.0531 -3.1735
  147SAPE   H8Y16266   4.038   1.179   9.460 -1.7771  0.7271 -3.2571
  147SAPE   C3916267   4.040   0.981   9.346 -0.8499 -0.4030  0.6847
  147SAPE   H9X16268   3.934   0.950   9.353 -1.4160  0.3062 -2.9068
  147SAPE   H9Y16269   4.105   0.891   9.345 -0.0448  0.1671  0.2455
  147SAPE  C31016270   4.060   1.058   9.217 -0.0383  0.2808  1.5253
  147SAPE  H10X16271   4.162   1.102   9.219 -0.1252  0.6352 -0.2886
  147SAPE  H10Y16272   3.988   1.142   9.217  1.8468  2.0342 -0.7081
  147SAPE  C31116273   4.056   0.970   9.095  0.6084 -0.2785  0.1379
  147SAPE  H11X16274   3.955   0.924   9.082  0.0168  0.9134  0.4085
  147SAPE  H11Y16275   4.133   0.890   9.090 -0.2502 -1.0864 -0.8335
  147SAPE  C31216276   4.070   1.065   8.967  0.2211  0.3242 -0.9145
  147SAPE  H12X16277   3.999   1.150   8.972  0.5634  0.5742 -0.0529
  147SAPE  H12Y16278   4.035   1.000   8.885 -0.0614 -1.5172  0.5856
  147SAPE  C31316279   4.211   1.110   8.940 -0.6291  0.2476 -0.4394
  147SAPE  H13X16280   4.291   1.034   8.952  1.3053  2.1825 -0.4074
  147SAPE  H13Y16281   4.235   1.192   9.010  0.2651 -1.8728  1.8592
  147SAPE  C31416282   4.214   1.175   8.800  0.7318 -0.3215  0.2067
  147SAPE  H14X16283   4.115   1.218   8.777  0.5661 -1.5041 -1.4774
  147SAPE  H14Y16284   4.219   1.087   8.732  1.4694  0.5915 -0.9538
  147SAPE  C31516285   4.331   1.271   8.782  0.4185  0.2005 -0.0976
  147SAPE  H15X16286   4.424   1.216   8.806  0.0975  0.2592  1.3880
  147SAPE  H15Y16287   4.329   1.360   8.849 -1.2840 -0.3418  0.6358
  147SAPE  C31616288   4.325   1.321   8.634 -0.0385 -0.3511  1.5707
  147SAPE  H16X16289   4.242   1.392   8.614 -0.4215 -1.1016  0.3872
  147SAPE  H16Y16290   4.327   1.236   8.562  0.3551  1.5148 -0.7613
  147SAPE  C31716291   4.463   1.388   8.596 -0.6007  0.3493 -0.7230
  147SAPE  H17X16292   4.536   1.309   8.624 -0.7995  0.4899  0.1951
  147SAPE  H17Y16293   4.483   1.463   8.675  4.7470 -0.8806 -0.5285
  147SAPE  C31816294   4.490   1.430   8.448  0.2784 -0.2429 -0.4532
  147SAPE  H18X16295   4.571   1.506   8.444 -0.8729  1.0155 -0.7881
  147SAPE  H18Y16296   4.396   1.478   8.412 -0.4024 -0.7133  0.6324
  147SAPE  H18Z16297   4.515   1.338   8.391 -0.8833  0.4935 -2.2562
  148SAPE     N16298   0.177   2.774  10.706  0.1258  0.3494  0.9460
  148SAPE   HN116299   0.178   2.876  10.685 -0.4802  0.0728 -0.5345
  148SAPE   HN216300   0.124   2.751  10.793 -2.4755 -1.6546 -1.0136
  148SAPE   HN316301   0.272   2.733  10.717 -0.2898 -1.2858 -1.1079
  148SAPE   C1216302   0.102   2.699  10.600 -0.2053  0.0277 -0.4735
  148SAPE  H12A16303   0.064   2.600  10.634 -1.6497  0.8933  0.5790
  148SAPE  H12B16304   0.166   2.682  10.512 -1.3368  1.0472 -1.5237
  148SAPE   C1116305  -0.019   2.772  10.541  0.5417 -0.1131 -0.1800
  148SAPE  H11A16306  -0.044   2.722  10.445 -0.5726 -0.7502  0.4196
  148SAPE  H11B16307   0.009   2.876  10.512  1.7324  0.2765  2.0781
  148SAPE     P16308  -0.244   2.674  10.633 -0.4443  0.3449 -0.1281
  148SAPE   O1316309  -0.192   2.538  10.663 -0.2798  0.5183  0.5535
  148SAPE   O1416310  -0.350   2.725  10.718  0.2722 -0.2342 -0.1211
  148SAPE   O1216311  -0.121   2.777  10.636  0.2784 -0.3087  0.0157
  148SAPE   O1116312  -0.287   2.684  10.480  0.0403  0.3921  0.0450
  148SAPE    C116313  -0.325   2.816  10.430 -0.1199  0.1484 -0.2131
  148SAPE    HA16314  -0.343   2.892  10.508 -0.4018 -1.3491  1.2285
  148SAPE    HB16315  -0.236   2.845  10.369  1.7473 -0.6533  2.0108
  148SAPE    C216316  -0.440   2.800  10.330  0.3759 -0.1326 -0.1550
  148SAPE    HS16317  -0.531   2.762  10.381  0.6198 -0.5808 -0.0522
  148SAPE   O2116318  -0.392   2.714  10.225 -0.5425  0.2790  0.1638
  148SAPE   C2116319  -0.488   2.637  10.183 -0.5880  0.6073  0.0377
  148SAPE   O2216320  -0.602   2.633  10.224  0.2005  0.0512  0.0605
  148SAPE   C2216321  -0.433   2.557  10.069 -1.1193  0.5561 -0.3555
  148SAPE   H2R16322  -0.335   2.602  10.041 -1.2012  1.3149  0.5371
  148SAPE   H2S16323  -0.404   2.455  10.101  1.5066  0.3622 -2.8923
  148SAPE    C316324  -0.487   2.945  10.275 -0.2268  0.0813  0.0198
  148SAPE    HX16325  -0.392   2.991  10.241 -0.0985 -1.2800 -1.5618
  148SAPE    HY16326  -0.527   2.996  10.365  0.1972 -0.5640  0.5891
  148SAPE   O3116327  -0.575   2.923  10.166  0.7423 -0.3413 -0.5176
  148SAPE   C3116328  -0.575   3.024  10.078  0.0430  0.0691  0.6472
  148SAPE   O3216329  -0.515   3.127  10.088  0.1365  0.2831  0.1365
  148SAPE   C3216330  -0.660   2.983   9.961 -1.2447 -0.4891 -0.3075
  148SAPE   H2X16331  -0.762   2.947   9.989 -1.7039 -0.6316 -2.0649
  148SAPE   H2Y16332  -0.607   2.895   9.918 -1.1179 -0.6463  0.1607
  148SAPE   C2316333  -0.529   2.545   9.949 -0.3072  0.9165  0.9619
  148SAPE   H3R16334  -0.532   2.637   9.886 -0.0246 -0.3540 -1.0002
  148SAPE   H3S16335  -0.633   2.532   9.986 -0.8751 -0.5991 -1.0022
  148SAPE   C2416336  -0.489   2.430   9.852  0.2582 -0.0037 -0.4266
  148SAPE   H4R16337  -0.378   2.423   9.853  0.3562  0.9439 -2.2214
  148SAPE   H4S16338  -0.513   2.466   9.750  1.4420  3.6604  0.4521
  148SAPE   C2516339  -0.559   2.305   9.908  0.5807 -0.2505 -0.4373
  148SAPE   H5R16340  -0.568   2.300  10.017 -2.4969 -2.6558 -0.6685
  148SAPE   C2616341  -0.611   2.204   9.834  0.8416 -0.0596 -0.3202
  148SAPE   H6R16342  -0.665   2.123   9.886  0.7522  1.5746  2.3472
  148SAPE   C2716343  -0.589   2.192   9.688 -0.5401  0.5973 -0.0439
  148SAPE   H7R16344  -0.516   2.109   9.681 -1.0283  0.0178  1.3659
  148SAPE   H7S16345  -0.552   2.289   9.649  0.0416  1.5954  2.7627
  148SAPE   C2816346  -0.699   2.149   9.600  0.5829 -0.8350 -0.0980
  148SAPE   H8R16347  -0.767   2.079   9.650 -0.5169 -1.1448 -1.9331
  148SAPE   C2916348  -0.731   2.196   9.479  0.1291  0.0281  0.3590
  148SAPE   H9R16349  -0.821   2.146   9.440 -0.4394  0.5076  1.0171
  148SAPE  C21016350  -0.658   2.298   9.391 -0.5460  0.4420 -0.0928
  148SAPE  H10R16351  -0.560   2.316   9.439  0.8961 -2.5556 -1.6607
  148SAPE  H10S16352  -0.714   2.393   9.401 -0.2626  0.5206  0.8612
  148SAPE  C21116353  -0.623   2.246   9.259  0.7055  0.6410  0.1484
  148SAPE  H11R16354  -0.553   2.161   9.258 -0.3082 -0.2208  0.2535
  148SAPE  C21216355  -0.661   2.310   9.147 -0.5035 -0.1462 -0.3299
  148SAPE  H12R16356  -0.615   2.274   9.053  4.0599  1.5720  0.9523
  148SAPE  C21316357  -0.745   2.431   9.129  0.1754 -0.1052 -0.2539
  148SAPE  H13R16358  -0.715   2.469   9.029 -0.1604 -3.7851 -1.9046
  148SAPE  H13S16359  -0.725   2.511   9.204 -2.3757  1.6541 -1.3039
  148SAPE  C21416360  -0.891   2.389   9.128  0.0281  0.6171  0.1842
  148SAPE  H14R16361  -0.931   2.386   9.230 -0.9412  0.3749 -0.1894
  148SAPE  C21516362  -0.971   2.338   9.035 -0.2965  0.4987 -0.6983
  148SAPE  H15R16363  -1.077   2.327   9.065  0.4264 -1.0732  1.5198
  148SAPE  C21616364  -0.933   2.315   8.897 -0.7857 -0.2427  0.2401
  148SAPE  H16R16365  -0.977   2.219   8.863 -0.2981 -0.0484 -0.9973
  148SAPE  H16S16366  -0.824   2.303   8.877 -0.6355  1.5169 -0.1810
  148SAPE  C21716367  -0.962   2.432   8.802  0.0751  0.3282 -0.0747
  148SAPE  H17R16368  -0.887   2.505   8.840  2.4494 -1.6994 -0.5724
  148SAPE  H17S16369  -1.068   2.458   8.822 -0.0513  0.1756 -0.5474
  148SAPE  C21816370  -0.933   2.400   8.652  0.1126  0.7357  0.7586
  148SAPE  H18R16371  -0.843   2.335   8.641 -0.0944  0.8016 -2.6326
  148SAPE  H18S16372  -0.905   2.489   8.592  0.4579  0.2544  0.1911
  148SAPE  C21916373  -1.053   2.341   8.577  0.5724 -0.0251  0.2042
  148SAPE  H19R16374  -1.076   2.382   8.476 -0.1949  0.1375  0.4367
  148SAPE  H19S16375  -1.146   2.359   8.635 -0.5747 -1.1357 -1.2045
  148SAPE  C22016376  -1.043   2.189   8.540  0.3620  0.1906 -0.5062
  148SAPE  H20R16377  -0.978   2.166   8.453  0.1957 -0.0695 -0.5656
  148SAPE  H20S16378  -1.141   2.141   8.517  1.5131 -1.3618 -2.5690
  148SAPE  H20T16379  -1.003   2.133   8.627 -2.3756 -0.6987  0.2801
  148SAPE   C3316380  -0.681   3.098   9.852  0.1982 -0.2986 -0.7667
  148SAPE   H3X16381  -0.716   3.040   9.764  1.0204 -3.1849  0.6585
  148SAPE   H3Y16382  -0.585   3.149   9.828 -0.4791  0.4096 -2.0357
  148SAPE   C3416383  -0.788   3.201   9.895 -0.4932  0.6386 -0.6493
  148SAPE   H4X16384  -0.783   3.234  10.001  3.6006  1.2439 -0.8858
  148SAPE   H4Y16385  -0.887   3.150   9.892 -0.1709 -0.5245  2.9758
  148SAPE   C3516386  -0.783   3.322   9.801 -0.7800 -0.4386 -0.0152
  148SAPE   H5X16387  -0.699   3.385   9.837 -0.1985 -1.9304  1.3899
  148SAPE   H5Y16388  -0.875   3.383   9.808 -1.6508 -1.3033 -2.6966
  148SAPE   C3616389  -0.762   3.295   9.655 -0.3918 -0.3256  0.1995
  148SAPE   H6X16390  -0.663   3.246   9.663  0.5376  1.1873 -1.3109
  148SAPE   H6Y16391  -0.749   3.398   9.617  0.4985 -0.2414  0.6975
  148SAPE   C3716392  -0.871   3.207   9.602 -0.1506  0.3040 -0.1028
  148SAPE   H7X16393  -0.972   3.250   9.617 -1.6855 -3.1138  0.2198
  148SAPE   H7Y16394  -0.880   3.108   9.653 -2.5868  0.0207 -0.9874
  148SAPE   C3816395  -0.841   3.163   9.457  0.2181  0.0779 -0.2005
  148SAPE   H8X16396  -0.915   3.085   9.428  2.0672 -2.1828  0.7764
  148SAPE   H8Y16397  -0.741   3.116   9.454 -0.0455 -0.7139  1.8482
  148SAPE   C3916398  -0.848   3.274   9.353 -0.2112 -0.8589 -0.1830
  148SAPE   H9X16399  -0.769   3.344   9.387  0.0710 -1.3316  0.1534
  148SAPE   H9Y16400  -0.948   3.322   9.352 -0.6392 -1.7466 -0.7958
  148SAPE  C31016401  -0.822   3.221   9.213 -0.1857 -0.1998  0.1188
  148SAPE  H10X16402  -0.915   3.162   9.206 -1.0024  1.0344  0.2362
  148SAPE  H10Y16403  -0.732   3.157   9.211 -1.4176 -1.9861  0.1564
  148SAPE  C31116404  -0.808   3.330   9.104 -0.6014  0.0170 -0.1190
  148SAPE  H11X16405  -0.710   3.382   9.108 -0.4233  0.0183 -2.9155
  148SAPE  H11Y16406  -0.889   3.401   9.131 -0.1111  0.6532 -0.3136
  148SAPE  C31216407  -0.817   3.277   8.965 -0.5129 -0.1661 -0.4545
  148SAPE  H12X16408  -0.918   3.252   8.926 -0.6659 -0.6730  0.2439
  148SAPE  H12Y16409  -0.765   3.179   8.956  0.8522  0.6500 -2.0439
  148SAPE  C31316410  -0.759   3.376   8.860  0.0694 -0.5210  0.7718
  148SAPE  H13X16411  -0.773   3.321   8.765  2.4374 -0.3232  0.2586
  148SAPE  H13Y16412  -0.650   3.379   8.878  0.0631 -1.9364  1.1753
  148SAPE  C31416413  -0.824   3.519   8.863 -0.0403  0.6441 -0.4172
  148SAPE  H14X16414  -0.796   3.557   8.963 -0.1665 -0.6823  0.1284
  148SAPE  H14Y16415  -0.936   3.521   8.862 -0.2036 -2.5478  0.7721
  148SAPE  C31516416  -0.756   3.607   8.765 -0.7713 -0.6377 -0.1240
  148SAPE  H15X16417  -0.830   3.619   8.683 -1.2532  1.7728  0.5874
  148SAPE  H15Y16418  -0.663   3.561   8.725 -0.5655 -3.4253  3.0436
  148SAPE  C31616419  -0.717   3.748   8.802 -0.6229  0.4987 -0.3016
  148SAPE  H16X16420  -0.639   3.795   8.739  0.0983 -0.2800 -0.0139
  148SAPE  H16Y16421  -0.675   3.743   8.905  0.1271  0.9037 -0.5776
  148SAPE  C31716422  -0.831   3.855   8.800 -0.0830 -0.2364 -0.8577
  148SAPE  H17X16423  -0.916   3.815   8.859  0.9344 -0.7942  0.2808
  148SAPE  H17Y16424  -0.869   3.867   8.696 -2.2659  0.1838 -0.0521
  148SAPE  C31816425  -0.782   3.992   8.857  0.4716  0.1631  0.5456
  148SAPE  H18X16426  -0.715   4.053   8.792 -1.6723  0.0535 -1.9088
  148SAPE  H18Y16427  -0.737   3.975   8.957  0.5295 -0.1289  0.4704
  148SAPE  H18Z16428  -0.877   4.050   8.865  0.6111  0.3545  0.8610
  149SAPE     N16429   2.820   5.333  11.230 -0.1824 -0.3884  0.1432
  149SAPE   HN116430   2.767   5.255  11.274 -1.5854  0.5409  0.1673
  149SAPE   HN216431   2.924   5.327  11.242 -0.3234  0.0518  1.8325
  149SAPE   HN316432   2.779   5.417  11.274 -1.9563 -1.2718  0.2406
  149SAPE   C1216433   2.791   5.323  11.081 -0.7876 -0.4197 -0.4191
  149SAPE  H12A16434   2.688   5.364  11.073 -0.4929  0.3595 -0.2931
  149SAPE  H12B16435   2.800   5.214  11.061  1.7318 -0.9362  2.7649
  149SAPE   C1116436   2.892   5.411  11.007  0.1969 -0.7985  0.2601
  149SAPE  H11A16437   2.903   5.511  11.055  1.2552 -0.5293 -0.5009
  149SAPE  H11B16438   2.854   5.408  10.903  2.6508  0.0909 -0.7282
  149SAPE     P16439   3.084   5.242  10.920 -0.0398 -0.2561 -0.1994
  149SAPE   O1316440   3.210   5.187  10.960 -0.0677 -0.0626  0.2693
  149SAPE   O1416441   2.978   5.148  10.883 -0.6237 -0.4575 -0.8025
  149SAPE   O1216442   3.022   5.345  11.025 -0.1963  0.5714  0.6514
  149SAPE   O1116443   3.111   5.344  10.808  0.5689 -0.6722 -0.0820
  149SAPE    C116444   3.202   5.458  10.828  0.3500 -0.4449 -0.8538
  149SAPE    HA16445   3.139   5.549  10.832 -1.3534 -1.5683 -0.8701
  149SAPE    HB16446   3.249   5.464  10.928 -2.2601 -0.8502  0.4919
  149SAPE    C216447   3.315   5.474  10.716 -0.0708 -0.2058 -0.2469
  149SAPE    HS16448   3.374   5.567  10.732 -0.5665  0.3184 -1.3811
  149SAPE   O2116449   3.256   5.472  10.586  0.2770 -0.8861 -0.5408
  149SAPE   C2116450   3.215   5.594  10.544  0.6764  0.7268 -0.2673
  149SAPE   O2216451   3.213   5.696  10.604 -0.4538  0.0103  0.0135
  149SAPE   C2216452   3.139   5.585  10.407  0.3130 -0.1436 -0.7672
  149SAPE   H2R16453   3.135   5.480  10.370 -3.2098 -0.4742  0.1964
  149SAPE   H2S16454   3.036   5.622  10.427  1.1958  3.0041 -1.5910
  149SAPE    C316455   3.417   5.354  10.733 -0.4406 -0.1582 -0.1786
  149SAPE    HX16456   3.355   5.264  10.712 -0.5066  0.3083 -2.0919
  149SAPE    HY16457   3.439   5.352  10.842  4.4220 -0.3352 -0.9353
  149SAPE   O3116458   3.532   5.368  10.646  0.1518 -0.0385 -0.0494
  149SAPE   C3116459   3.590   5.255  10.597 -0.5773 -0.6207 -0.2140
  149SAPE   O3216460   3.561   5.142  10.629  0.4915 -0.4959  0.5333
  149SAPE   C3216461   3.668   5.303  10.470 -0.4402 -0.3679 -0.7918
  149SAPE   H2X16462   3.710   5.212  10.421  0.8708 -1.0543  1.4549
  149SAPE   H2Y16463   3.752   5.363  10.509 -1.6387  0.8714 -0.0140
  149SAPE   C2316464   3.202   5.691  10.322  0.1261 -0.4117 -0.0174
  149SAPE   H3R16465   3.310   5.670  10.308 -0.1145 -1.6077 -0.1946
  149SAPE   H3S16466   3.196   5.792  10.370  2.2592  0.2203 -0.9703
  149SAPE   C2416467   3.129   5.692  10.183  0.0097 -0.5281 -0.7190
  149SAPE   H4R16468   3.022   5.696  10.211  0.3111  0.0169  0.3922
  149SAPE   H4S16469   3.157   5.592  10.142 -1.0118  0.2561 -3.5802
  149SAPE   C2516470   3.161   5.807  10.099  0.2697 -0.5269  0.2066
  149SAPE   H5R16471   3.184   5.900  10.154  0.9332 -1.1907  1.0828
  149SAPE   C2616472   3.173   5.805   9.966  0.4997  0.1504  0.3324
  149SAPE   H6R16473   3.203   5.893   9.907 -1.0441  0.0497 -0.6296
  149SAPE   C2716474   3.144   5.685   9.876 -0.3430  0.3812  0.1864
  149SAPE   H7R16475   3.042   5.697   9.835 -0.7187  1.3187  1.3374
  149SAPE   H7S16476   3.148   5.590   9.933  1.5008 -0.6934 -1.6161
  149SAPE   C2816477   3.251   5.661   9.770 -0.1901  0.2092  0.0039
  149SAPE   H8R16478   3.357   5.679   9.793  0.2502 -1.1991 -0.8132
  149SAPE   C2916479   3.234   5.664   9.637 -1.0036 -0.0640 -0.1068
  149SAPE   H9R16480   3.320   5.657   9.568  0.5726  1.4138  1.5977
  149SAPE  C21016481   3.106   5.683   9.558  0.5963  0.3230  0.0453
  149SAPE  H10R16482   3.135   5.733   9.463  0.7574 -3.2943 -1.9894
  149SAPE  H10S16483   3.036   5.750   9.612 -0.6628 -0.6447 -0.3314
  149SAPE  C21116484   3.036   5.548   9.526 -0.0992 -0.0334 -0.0713
  149SAPE  H11R16485   3.049   5.472   9.605 -0.5124  0.3560  0.3715
  149SAPE  C21216486   2.960   5.521   9.416  0.2418 -0.3650  0.6807
  149SAPE  H12R16487   2.912   5.423   9.411 -1.3146  0.4320 -1.8678
  149SAPE  C21316488   2.930   5.617   9.302  0.6687 -0.3641  0.0784
  149SAPE  H13R16489   2.986   5.587   9.210 -1.6276 -2.0784 -0.8799
  149SAPE  H13S16490   2.963   5.717   9.337  0.1393 -0.2074  0.1321
  149SAPE  C21416491   2.783   5.606   9.268 -0.1296 -0.7106 -1.3614
  149SAPE  H14R16492   2.753   5.506   9.233 -0.6639  0.2477 -3.8852
  149SAPE  C21516493   2.691   5.702   9.291 -0.0194 -0.3383  0.4248
  149SAPE  H15R16494   2.588   5.699   9.253 -1.0027  1.6092  2.7106
  149SAPE  C21616495   2.713   5.835   9.359 -0.1907  0.4876 -0.3109
  149SAPE  H16R16496   2.646   5.907   9.308 -1.4446  1.0621  1.9923
  149SAPE  H16S16497   2.817   5.873   9.360 -0.4887  1.3011  0.0126
  149SAPE  C21716498   2.672   5.822   9.506 -0.2817  1.7147 -0.0733
  149SAPE  H17R16499   2.739   5.748   9.555  0.5697  1.8852 -0.9576
  149SAPE  H17S16500   2.570   5.780   9.520 -0.5130  2.4870  0.5873
  149SAPE  C21816501   2.669   5.957   9.580  0.4517 -0.5502 -0.0689
  149SAPE  H18R16502   2.774   5.994   9.590 -0.0867  0.6824  1.2224
  149SAPE  H18S16503   2.623   5.956   9.681 -0.4387  0.9661 -0.4332
  149SAPE  C21916504   2.575   6.060   9.508 -0.1097 -0.0615  0.3850
  149SAPE  H19R16505   2.482   6.006   9.482  0.6193 -1.4093  0.4574
  149SAPE  H19S16506   2.637   6.091   9.420  1.0862 -0.1827  1.1645
  149SAPE  C22016507   2.529   6.178   9.593 -0.3385 -0.2665  0.0598
  149SAPE  H20R16508   2.487   6.259   9.529 -1.5621 -0.6911  0.3045
  149SAPE  H20S16509   2.610   6.208   9.663  0.2190  0.2159 -0.7611
  149SAPE  H20T16510   2.453   6.146   9.666  0.0791  2.4850  1.8297
  149SAPE   C3316511   3.582   5.376  10.359  0.4932  0.3342  0.6490
  149SAPE   H3X16512   3.636   5.399  10.264  0.7469  0.3757  0.8047
  149SAPE   H3Y16513   3.533   5.471  10.389 -0.5094  0.5074 -1.3442
  149SAPE   C3416514   3.465   5.275  10.321 -0.2094 -0.2007 -0.6068
  149SAPE   H4X16515   3.391   5.272  10.404  1.6607  1.5102  1.2335
  149SAPE   H4Y16516   3.508   5.177  10.294  0.9868 -0.5317  2.1772
  149SAPE   C3516517   3.396   5.322  10.192  0.5725 -0.1156  0.6730
  149SAPE   H5X16518   3.393   5.433  10.191 -0.7135 -0.0799 -2.2857
  149SAPE   H5Y16519   3.290   5.292  10.205  0.4124  0.9085  1.8663
  149SAPE   C3616520   3.450   5.267  10.062 -0.2568 -0.2250 -0.5911
  149SAPE   H6X16521   3.454   5.155  10.062  1.4921 -0.2233  0.9139
  149SAPE   H6Y16522   3.552   5.306  10.043 -0.2542 -0.7815 -1.7915
  149SAPE   C3716523   3.367   5.309   9.937  0.2744 -0.2243  0.1019
  149SAPE   H7X16524   3.351   5.419   9.935 -2.3673 -0.5731 -1.1390
  149SAPE   H7Y16525   3.264   5.269   9.945  0.2396  0.0085  0.9759
  149SAPE   C3816526   3.422   5.249   9.804 -0.2932  0.4292 -0.1843
  149SAPE   H8X16527   3.432   5.140   9.820 -1.2982  0.4358  0.5387
  149SAPE   H8Y16528   3.524   5.282   9.773  0.8846 -2.6713  0.0243
  149SAPE   C3916529   3.331   5.284   9.680  1.3858 -0.2169 -0.1988
  149SAPE   H9X16530   3.312   5.394   9.686  0.3149 -0.3906 -0.1105
  149SAPE   H9Y16531   3.232   5.233   9.678  0.0506  2.2118 -2.0097
  149SAPE  C31016532   3.400   5.265   9.544  0.2218  0.6165 -0.2076
  149SAPE  H10X16533   3.427   5.157   9.545  0.3076  0.6373 -0.3679
  149SAPE  H10Y16534   3.488   5.331   9.534  0.1855  0.5249 -1.2480
  149SAPE  C31116535   3.295   5.289   9.445 -0.0821 -0.2713 -0.5715
  149SAPE  H11X16536   3.258   5.389   9.475  0.5637 -0.5590  1.3081
  149SAPE  H11Y16537   3.212   5.216   9.456  0.5640 -1.0772 -0.9122
  149SAPE  C31216538   3.347   5.291   9.306  0.4682 -0.2297 -0.1060
  149SAPE  H12X16539   3.375   5.185   9.286  0.3934 -0.4044  0.6739
  149SAPE  H12Y16540   3.436   5.355   9.289  0.3913 -0.3668 -1.0365
  149SAPE  C31316541   3.230   5.321   9.208  0.3598  0.0840  0.0942
  149SAPE  H13X16542   3.195   5.425   9.224 -0.2574 -0.2663  1.0474
  149SAPE  H13Y16543   3.140   5.261   9.229  2.3003 -3.8229 -1.7146
  149SAPE  C31416544   3.254   5.292   9.062  0.3938 -0.8959  0.0214
  149SAPE  H14X16545   3.231   5.186   9.041 -2.5552 -0.0487 -1.5187
  149SAPE  H14Y16546   3.362   5.306   9.039  0.5092  1.3695  1.6237
  149SAPE  C31516547   3.158   5.379   8.982  0.1313  0.0184  0.2882
  149SAPE  H15X16548   3.053   5.386   9.017 -0.0786  1.6124 -0.5652
  149SAPE  H15Y16549   3.167   5.334   8.881 -0.0059  2.4581 -0.8870
  149SAPE  C31616550   3.210   5.521   8.951 -0.6697  0.0709 -0.5541
  149SAPE  H16X16551   3.309   5.505   8.903  0.3565  2.1156  0.7498
  149SAPE  H16Y16552   3.230   5.589   9.036 -0.0852  0.6067 -1.1104
  149SAPE  C31716553   3.127   5.599   8.855  0.2673 -0.2099 -0.6283
  149SAPE  H17X16554   3.020   5.594   8.883  0.7451  1.3768  1.6730
  149SAPE  H17Y16555   3.138   5.549   8.756 -1.0435  1.0244 -1.4403
  149SAPE  C31816556   3.167   5.739   8.848 -0.3285 -0.1143  0.1472
  149SAPE  H18X16557   3.104   5.793   8.773 -0.3209 -1.3074 -0.7408
  149SAPE  H18Y16558   3.269   5.752   8.806 -1.0782 -0.0599 -1.7722
  149SAPE  H18Z16559   3.158   5.789   8.947  2.3508 -1.9572  1.4534
  150SAPE     N16560   3.140   4.176  11.089 -0.2773 -0.9682  0.1265
  150SAPE   HN116561   3.178   4.083  11.114 -0.8872 -0.6157  2.6647
  150SAPE   HN216562   3.189   4.237  11.157  1.4865 -2.2356  0.0488
  150SAPE   HN316563   3.040   4.178  11.118  0.4118 -2.8988  2.9549
  150SAPE   C1216564   3.173   4.214  10.946  0.6713 -0.2012  0.2237
  150SAPE  H12A16565   3.152   4.322  10.930  2.6123  0.0327 -1.1069
  150SAPE  H12B16566   3.117   4.145  10.879 -0.9894  2.4098 -1.2495
  150SAPE   C1116567   3.326   4.193  10.921  0.6154  0.0870 -0.7137
  150SAPE  H11A16568   3.334   4.170  10.812 -2.2463  0.5472 -1.1013
  150SAPE  H11B16569   3.360   4.101  10.973 -0.5735  0.1471  0.2058
  150SAPE     P16570   3.505   4.391  10.871 -0.0042 -0.1120 -0.2509
  150SAPE   O1316571   3.469   4.534  10.891  0.5180  0.4386 -0.3262
  150SAPE   O1416572   3.639   4.346  10.909 -0.5580  0.3238  0.1805
  150SAPE   O1216573   3.404   4.306  10.961 -0.4859  0.6824  0.4673
  150SAPE   O1116574   3.468   4.344  10.729 -0.1505  0.4919 -0.1007
  150SAPE    C116575   3.444   4.431  10.618  0.4540  0.4755  0.3730
  150SAPE    HA16576   3.509   4.521  10.620  0.5885  0.4397 -1.1183
  150SAPE    HB16577   3.475   4.380  10.524  2.3867  2.3777 -0.1152
  150SAPE    C216578   3.297   4.459  10.595 -0.3078  0.2634 -0.4617
  150SAPE    HS16579   3.263   4.518  10.683 -0.1436 -0.1134 -0.1441
  150SAPE   O2116580   3.230   4.330  10.587  0.4931 -0.0904  0.7176
  150SAPE   C2116581   3.098   4.334  10.593  0.0401 -0.7510 -0.0161
  150SAPE   O2216582   3.038   4.439  10.613  0.0034  0.0384  0.0875
  150SAPE   C2216583   3.048   4.197  10.571  0.6110  0.0960  0.5634
  150SAPE   H2R16584   3.101   4.124  10.636  1.1884  0.4387  0.4880
  150SAPE   H2S16585   2.943   4.194  10.606  0.5207 -0.4324  0.2419
  150SAPE    C316586   3.268   4.542  10.467  0.5544  0.5027 -0.6242
  150SAPE    HX16587   3.323   4.638  10.467  1.3826  0.0517 -1.9317
  150SAPE    HY16588   3.164   4.581  10.455 -0.4202 -1.8362 -0.3946
  150SAPE   O3116589   3.291   4.470  10.349 -0.3802  0.3510 -0.1757
  150SAPE   C3116590   3.412   4.478  10.298  0.4362 -0.7494 -0.1430
  150SAPE   O3216591   3.507   4.540  10.349 -0.8400  0.1597  0.3086
  150SAPE   C3216592   3.417   4.418  10.157 -0.1452  0.3265 -1.0479
  150SAPE   H2X16593   3.309   4.402  10.137 -0.4872  1.0492  0.0611
  150SAPE   H2Y16594   3.485   4.331  10.147 -0.0592  0.5244 -2.3432
  150SAPE   C2316595   3.071   4.147  10.419  0.2327 -0.0863 -0.1022
  150SAPE   H3R16596   3.026   4.046  10.409  2.4154 -1.0214 -1.1255
  150SAPE   H3S16597   3.178   4.124  10.398  0.3810 -0.0127  0.5375
  150SAPE   C2416598   3.022   4.243  10.310  0.4455 -0.0789 -0.6697
  150SAPE   H4R16599   3.078   4.215  10.218  2.6198 -1.6116  1.0170
  150SAPE   H4S16600   3.053   4.349  10.323 -0.7466  0.2526 -0.4682
  150SAPE   C2516601   2.878   4.245  10.295 -0.6233 -0.5001  0.3064
  150SAPE   H5R16602   2.827   4.299  10.376 -0.4516 -0.4823  0.4049
  150SAPE   C2616603   2.816   4.211  10.180 -0.0329  0.2072  0.6310
  150SAPE   H6R16604   2.706   4.212  10.174  0.0080  0.7048 -0.0751
  150SAPE   C2716605   2.879   4.147  10.056  0.1141  0.5121  0.0038
  150SAPE   H7R16606   2.796   4.097  10.001  1.0975 -0.7171 -0.4174
  150SAPE   H7S16607   2.928   4.054  10.092  1.7833  0.2666 -2.6305
  150SAPE   C2816608   2.977   4.227   9.972  0.0540 -0.7949  0.4911
  150SAPE   H8R16609   3.005   4.320  10.024  0.1832 -0.8091  0.4466
  150SAPE   C2916610   3.009   4.214   9.839 -0.3604  0.3774 -0.0518
  150SAPE   H9R16611   3.089   4.277   9.797 -0.4345 -0.7473 -1.9712
  150SAPE  C21016612   2.968   4.098   9.750 -0.7921  0.3004 -0.7251
  150SAPE  H10R16613   2.905   4.029   9.809  1.0169 -0.5447  0.3245
  150SAPE  H10S16614   3.060   4.040   9.724  0.3728  1.7677 -0.0617
  150SAPE  C21116615   2.897   4.143   9.633 -0.4879 -0.0797  0.4146
  150SAPE  H11R16616   2.799   4.187   9.656 -1.7452 -1.8467 -1.1688
  150SAPE  C21216617   2.923   4.122   9.502 -0.0905  0.1309  0.2830
  150SAPE  H12R16618   2.861   4.181   9.433  0.6132  3.3652  2.1827
  150SAPE  C21316619   3.039   4.049   9.436  0.6594  0.7369 -0.3662
  150SAPE  H13R16620   3.014   3.994   9.342  0.6151 -1.1608  0.7063
  150SAPE  H13S16621   3.074   3.970   9.506 -5.0787 -0.0894  2.1162
  150SAPE  C21416622   3.161   4.140   9.412 -0.6312  0.2653 -0.0524
  150SAPE  H14R16623   3.209   4.190   9.498  0.5568  0.1283 -0.6161
  150SAPE  C21516624   3.227   4.155   9.298  0.6351  0.9968  0.4946
  150SAPE  H15R16625   3.310   4.226   9.282  2.6073 -1.6150 -1.9557
  150SAPE  C21616626   3.191   4.083   9.166  0.5634 -0.4713 -0.0354
  150SAPE  H16R16627   3.173   4.158   9.087  1.5412 -0.0472  0.1189
  150SAPE  H16S16628   3.098   4.022   9.166  0.1291  0.1835 -0.7872
  150SAPE  C21716629   3.305   3.980   9.139 -0.5187 -0.1827  0.1217
  150SAPE  H17R16630   3.330   3.919   9.229  2.4450 -1.3906 -1.3653
  150SAPE  H17S16631   3.396   4.038   9.114 -1.3328  1.3241  0.5467
  150SAPE  C21816632   3.283   3.878   9.023 -0.8155  0.2551  0.6011
  150SAPE  H18R16633   3.248   3.930   8.931  0.9488  1.1531  0.3953
  150SAPE  H18S16634   3.195   3.819   9.057 -2.0876  0.0878 -2.6348
  150SAPE  C21916635   3.405   3.791   8.990  0.0578 -0.6605  0.6471
  150SAPE  H19R16636   3.496   3.849   8.968  0.0603  0.1652  2.6621
  150SAPE  H19S16637   3.364   3.742   8.899 -2.3290 -0.9351  1.7721
  150SAPE  C22016638   3.433   3.685   9.092 -0.2464  0.8750 -0.3659
  150SAPE  H20R16639   3.357   3.605   9.094  2.0748 -1.4828 -0.2895
  150SAPE  H20S16640   3.447   3.723   9.196 -1.0507  0.1775  0.0089
  150SAPE  H20T16641   3.531   3.635   9.077 -0.0067  0.4670  2.1348
  150SAPE   C3316642   3.452   4.530  10.054  0.0300 -0.2327 -0.3135
  150SAPE   H3X16643   3.534   4.595  10.091  0.4324  0.1022 -1.7688
  150SAPE   H3Y16644   3.362   4.593  10.038  0.2551  0.6411  1.5251
  150SAPE   C3416645   3.494   4.470   9.916 -0.0741 -0.3264 -0.0583
  150SAPE   H4X16646   3.572   4.394   9.941 -0.9241 -1.5757 -1.0426
  150SAPE   H4Y16647   3.536   4.550   9.852 -3.3114  1.3534 -0.2393
  150SAPE   C3516648   3.384   4.393   9.841 -0.0507  0.6613 -0.1374
  150SAPE   H5X16649   3.295   4.458   9.831 -1.3138 -0.8140  1.1608
  150SAPE   H5Y16650   3.341   4.319   9.911  1.0174  1.3172  1.2668
  150SAPE   C3616651   3.416   4.331   9.705  0.0007  0.4894 -0.1235
  150SAPE   H6X16652   3.334   4.267   9.667 -2.9305  2.4354  2.4888
  150SAPE   H6Y16653   3.515   4.284   9.727  1.0735  1.8715 -1.7913
  150SAPE   C3716654   3.444   4.435   9.601 -0.5341 -0.1293 -0.4268
  150SAPE   H7X16655   3.518   4.501   9.651 -0.4459  0.5215 -1.3884
  150SAPE   H7Y16656   3.347   4.489   9.594 -1.0230 -0.8088  0.8924
  150SAPE   C3816657   3.486   4.381   9.455  0.9050  0.7261 -0.3834
  150SAPE   H8X16658   3.525   4.471   9.403 -0.2097  1.6871  0.3921
  150SAPE   H8Y16659   3.391   4.337   9.418 -0.7202  1.0908  2.9529
  150SAPE   C3916660   3.603   4.278   9.445  0.4233  0.6706 -0.1236
  150SAPE   H9X16661   3.578   4.210   9.361  0.0918  2.1363 -1.2611
  150SAPE   H9Y16662   3.600   4.204   9.527 -5.0960 -0.0227 -0.5555
  150SAPE  C31016663   3.737   4.352   9.441 -0.1148 -0.3569 -0.3354
  150SAPE  H10X16664   3.742   4.422   9.528 -3.6455 -0.0738 -0.2205
  150SAPE  H10Y16665   3.723   4.420   9.354 -0.9981  0.7711  0.6484
  150SAPE  C31116666   3.861   4.272   9.399 -0.2567  0.1151 -0.0323
  150SAPE  H11X16667   3.816   4.197   9.330 -0.0688 -1.7349  1.7702
  150SAPE  H11Y16668   3.885   4.201   9.481 -2.7237 -2.4119 -1.3111
  150SAPE  C31216669   3.976   4.361   9.353 -0.7722  0.5483  0.0090
  150SAPE  H12X16670   3.995   4.438   9.430  1.2036 -0.0384  0.1698
  150SAPE  H12Y16671   3.940   4.402   9.256 -1.9780 -2.2011 -0.8250
  150SAPE  C31316672   4.111   4.281   9.338 -0.7700  0.6037 -0.6618
  150SAPE  H13X16673   4.142   4.239   9.436  1.2793 -0.1502 -1.5698
  150SAPE  H13Y16674   4.187   4.352   9.299  0.8450 -1.3524 -1.2707
  150SAPE  C31416675   4.098   4.160   9.238 -0.0954 -0.4210  0.1102
  150SAPE  H14X16676   4.012   4.096   9.267 -0.2085 -1.2077 -1.8458
  150SAPE  H14Y16677   4.189   4.097   9.230  1.2025  1.3525  0.1361
  150SAPE  C31516678   4.062   4.220   9.097 -0.0756  0.2381 -0.1323
  150SAPE  H15X16679   4.137   4.297   9.069  0.3986 -0.1567  0.0479
  150SAPE  H15Y16680   3.963   4.270   9.101 -0.5403 -0.7166  0.8725
  150SAPE  C31616681   4.071   4.120   8.978 -0.2424  0.2722 -0.2041
  150SAPE  H16X16682   4.173   4.078   8.990  0.3142  1.4686 -0.6461
  150SAPE  H16Y16683   4.076   4.169   8.879  2.2566 -0.0644 -0.3181
  150SAPE  C31716684   3.958   4.007   8.998 -0.1800 -0.0896  0.6243
  150SAPE  H17X16685   3.957   3.963   9.101  0.2499  1.2969  1.2496
  150SAPE  H17Y16686   3.977   3.935   8.917 -0.0423  0.9720 -0.3112
  150SAPE  C31816687   3.816   4.049   8.961  0.0255 -0.1165  0.3164
  150SAPE  H18X16688   3.762   4.097   9.046 -2.3182  1.4280 -1.9133
  150SAPE  H18Y16689   3.763   3.959   8.922 -2.3768  1.3721 -0.0677
  150SAPE  H18Z16690   3.830   4.120   8.877  1.6753 -0.7430  0.0247
  151SAPE     N16691   2.645   1.206  10.722 -0.0739 -0.6107  0.1717
  151SAPE   HN116692   2.636   1.174  10.821  0.1144 -0.6691  0.1708
  151SAPE   HN216693   2.747   1.209  10.698 -0.8902 -1.3290 -4.2882
  151SAPE   HN316694   2.619   1.306  10.724  0.4186 -0.4890  0.8306
  151SAPE   C1216695   2.568   1.114  10.638 -0.5211  0.5783 -0.5402
  151SAPE  H12A16696   2.588   1.136  10.531  0.0403  0.3666 -0.4802
  151SAPE  H12B16697   2.461   1.133  10.663 -0.1120  0.8566  1.0833
  151SAPE   C1116698   2.608   0.965  10.649  0.0855  0.0907  0.2561
  151SAPE  H11A16699   2.545   0.900  10.584  1.1013 -1.6039  0.8821
  151SAPE  H11B16700   2.573   0.938  10.751  0.8491  0.2057  0.5567
  151SAPE     P16701   2.824   0.931  10.489  0.3715 -0.1863 -0.5233
  151SAPE   O1316702   2.966   0.930  10.504 -0.0932  0.1864 -0.3097
  151SAPE   O1416703   2.772   0.799  10.434  0.4956  0.3260 -0.3018
  151SAPE   O1216704   2.752   0.950  10.634  0.2637  0.1658 -0.0284
  151SAPE   O1116705   2.773   1.048  10.400  0.0183  0.0494  1.2418
  151SAPE    C116706   2.771   1.020  10.259  0.7658 -0.0737  0.1663
  151SAPE    HA16707   2.866   0.978  10.221 -0.0759 -0.4895 -1.5552
  151SAPE    HB16708   2.680   0.965  10.225  0.2225  1.1737 -0.4984
  151SAPE    C216709   2.762   1.154  10.181 -0.1327 -0.1311  0.4697
  151SAPE    HS16710   2.688   1.226  10.222  1.2366  2.1708 -0.8930
  151SAPE   O2116711   2.729   1.110  10.044  0.1561 -0.1678 -0.1121
  151SAPE   C2116712   2.596   1.099  10.027 -0.3610  0.1817 -0.4328
  151SAPE   O2216713   2.508   1.117  10.111 -0.1557  0.1861  0.5406
  151SAPE   C2216714   2.571   1.066   9.875 -0.2011  0.2019  0.5864
  151SAPE   H2R16715   2.632   0.975   9.855 -1.1680 -0.3846  0.2110
  151SAPE   H2S16716   2.463   1.042   9.863 -0.5342  2.0034 -0.4850
  151SAPE    C316717   2.888   1.239  10.188  0.2652 -0.5761 -0.8053
  151SAPE    HX16718   2.960   1.161  10.155  2.0997  0.9701 -0.6200
  151SAPE    HY16719   2.906   1.270  10.293  0.8125 -2.1454 -0.3964
  151SAPE   O3116720   2.900   1.350  10.097  0.0698 -0.4958  0.5006
  151SAPE   C3116721   3.023   1.413  10.094 -0.2180  0.2100 -0.2096
  151SAPE   O3216722   3.121   1.376  10.157 -0.3086 -0.3034 -0.1385
  151SAPE   C3216723   3.027   1.535  10.007  0.5246  0.6255 -0.3726
  151SAPE   H2X16724   3.063   1.620  10.068 -0.2976  1.2321 -0.7097
  151SAPE   H2Y16725   2.926   1.549   9.961 -0.1166 -0.1630  0.7359
  151SAPE   C2316726   2.611   1.179   9.782  0.4286  0.2456 -0.2039
  151SAPE   H3R16727   2.722   1.178   9.773  0.6418 -1.5362  1.7504
  151SAPE   H3S16728   2.586   1.277   9.827 -3.0030 -0.3849 -0.4466
  151SAPE   C2416729   2.542   1.161   9.644 -0.0722 -0.3294  0.1325
  151SAPE   H4R16730   2.554   1.253   9.583 -1.1620  0.1145  0.5635
  151SAPE   H4S16731   2.435   1.148   9.668  0.2892  0.1329  2.2256
  151SAPE   C2516732   2.597   1.039   9.578  0.8502 -0.3251 -0.0924
  151SAPE   H5R16733   2.675   0.984   9.634  1.1048 -0.4112 -0.5264
  151SAPE   C2616734   2.534   0.983   9.469  0.3477  0.2776 -1.0150
  151SAPE   H6R16735   2.573   0.892   9.422 -1.8697 -0.5331 -1.3840
  151SAPE   C2716736   2.416   1.039   9.405  0.9021 -0.1389  0.1381
  151SAPE   H7R16737   2.371   1.129   9.453 -1.6171 -0.5919 -1.2109
  151SAPE   H7S16738   2.334   0.965   9.403  0.7731  0.0067  0.0115
  151SAPE   C2816739   2.465   1.096   9.274  0.4984 -0.5299 -0.1787
  151SAPE   H8R16740   2.539   1.178   9.276 -0.4310  0.3982  3.0800
  151SAPE   C2916741   2.412   1.060   9.154  0.4541  0.1762 -0.1035
  151SAPE   H9R16742   2.450   1.115   9.067  1.0726  1.7485  1.1259
  151SAPE  C21016743   2.305   0.959   9.129  0.6985 -0.0989 -0.7698
  151SAPE  H10R16744   2.256   0.987   9.033 -2.1463 -0.1532  0.5721
  151SAPE  H10S16745   2.234   0.958   9.214  2.8463 -1.1808  1.1434
  151SAPE  C21116746   2.377   0.828   9.123 -0.5434  0.4795 -0.0129
  151SAPE  H11R16747   2.470   0.824   9.181 -2.3454 -0.5587  3.0605
  151SAPE  C21216748   2.331   0.710   9.076 -0.6992 -0.4920  0.8643
  151SAPE  H12R16749   2.400   0.625   9.083  1.6871  1.4171  1.6705
  151SAPE  C21316750   2.200   0.686   9.010  0.5255  0.1910 -0.0487
  151SAPE  H13R16751   2.131   0.762   9.053  0.7222  0.7765 -0.7393
  151SAPE  H13S16752   2.170   0.587   9.051 -0.2771  0.5886  0.3552
  151SAPE  C21416753   2.200   0.684   8.857  0.1093 -0.1498 -0.6551
  151SAPE  H14R16754   2.215   0.786   8.821  0.2268  0.0517 -0.0569
  151SAPE  C21516755   2.164   0.578   8.777 -0.6102  0.0320  0.3460
  151SAPE  H15R16756   2.153   0.597   8.669 -0.6679 -5.6429 -0.9377
  151SAPE  C21616757   2.127   0.438   8.822 -0.3688 -0.8223  0.6320
  151SAPE  H16R16758   2.101   0.421   8.929  1.6321 -2.8867  0.8496
  151SAPE  H16S16759   2.208   0.365   8.805  0.5185  0.1279  0.6804
  151SAPE  C21716760   2.004   0.383   8.754  0.8484 -0.2768 -0.7182
  151SAPE  H17R16761   1.995   0.276   8.783  2.2244 -0.6940 -1.7172
  151SAPE  H17S16762   2.019   0.390   8.644 -0.3838  0.1994 -0.8739
  151SAPE  C21816763   1.868   0.455   8.770 -0.3234 -1.0012  0.2369
  151SAPE  H18R16764   1.804   0.398   8.698  1.2176 -1.4049 -0.8554
  151SAPE  H18S16765   1.879   0.559   8.733 -0.7030 -0.4477  1.6254
  151SAPE  C21916766   1.802   0.445   8.909  0.0821  0.0016 -0.7508
  151SAPE  H19R16767   1.878   0.483   8.981  0.5173 -2.0719 -0.0301
  151SAPE  H19S16768   1.802   0.341   8.948  2.8022 -0.0801 -0.7462
  151SAPE  C22016769   1.672   0.517   8.921 -0.1142 -0.2322  0.6952
  151SAPE  H20R16770   1.591   0.471   8.862 -0.4352 -0.3734  1.2392
  151SAPE  H20S16771   1.681   0.627   8.904 -0.0827 -0.1419  1.2685
  151SAPE  H20T16772   1.637   0.514   9.027  0.4357  2.2158  1.0169
  151SAPE   C3316773   3.132   1.510   9.889  0.5302  0.1526 -0.1891
  151SAPE   H3X16774   3.197   1.425   9.919 -0.9381 -0.3463  1.8372
  151SAPE   H3Y16775   3.182   1.604   9.858  0.3834  0.8985  1.6806
  151SAPE   C3416776   3.071   1.446   9.764 -0.0822 -0.6655 -0.2407
  151SAPE   H4X16777   3.015   1.351   9.775 -0.9748 -0.1801 -0.4950
  151SAPE   H4Y16778   3.151   1.440   9.686 -1.0044 -0.6144 -1.2121
  151SAPE   C3516779   2.989   1.551   9.692 -0.0344 -0.3272 -0.5772
  151SAPE   H5X16780   3.043   1.648   9.686  1.2524 -1.0890 -1.8616
  151SAPE   H5Y16781   2.892   1.565   9.746  0.2664  0.7282 -0.2914
  151SAPE   C3616782   2.961   1.520   9.540 -0.0805  0.7259 -0.8852
  151SAPE   H6X16783   3.062   1.501   9.497  0.6411  0.0078  1.0110
  151SAPE   H6Y16784   2.906   1.596   9.481 -0.2685  0.3934 -1.1455
  151SAPE   C3716785   2.889   1.379   9.524 -0.8315  0.6635  0.5867
  151SAPE   H7X16786   2.801   1.382   9.591 -2.4999  1.1343 -1.5432
  151SAPE   H7Y16787   2.963   1.303   9.557 -1.9347 -0.8344 -0.2692
  151SAPE   C3816788   2.834   1.355   9.384 -0.0956  0.9783  0.9054
  151SAPE   H8X16789   2.761   1.432   9.353 -1.0527  0.4420  1.7799
  151SAPE   H8Y16790   2.776   1.262   9.404  3.4664 -1.8944 -0.7959
  151SAPE   C3916791   2.941   1.336   9.281  0.0870  0.2172  0.0585
  151SAPE   H9X16792   3.028   1.287   9.330 -0.3750 -0.5287  0.1508
  151SAPE   H9Y16793   2.987   1.425   9.235  1.0228  0.1670  0.8689
  151SAPE  C31016794   2.886   1.255   9.161  0.3204 -0.2459  0.5326
  151SAPE  H10X16795   2.810   1.324   9.119 -0.1060 -0.5583  0.7822
  151SAPE  H10Y16796   2.835   1.166   9.205 -1.4691  0.5071  0.0801
  151SAPE  C31116797   2.994   1.215   9.068 -0.5197 -0.2459  0.4856
  151SAPE  H11X16798   2.979   1.106   9.053 -3.1422  0.3987 -2.7376
  151SAPE  H11Y16799   3.091   1.241   9.114  0.3861 -1.6987 -0.5566
  151SAPE  C31216800   2.989   1.273   8.921 -0.6866  0.1159  0.4051
  151SAPE  H12X16801   3.001   1.383   8.938 -1.4079 -0.0786  2.4714
  151SAPE  H12Y16802   2.886   1.252   8.886 -1.0929  0.6025  1.2698
  151SAPE  C31316803   3.088   1.209   8.829 -0.1518  0.3660 -0.4679
  151SAPE  H13X16804   3.083   1.100   8.851 -4.5034  0.5536  0.4540
  151SAPE  H13Y16805   3.196   1.236   8.839 -0.3671  0.5956  1.7754
  151SAPE  C31416806   3.043   1.226   8.685 -0.2336 -0.0536  0.2058
  151SAPE  H14X16807   3.021   1.334   8.672 -3.7177 -0.8740 -2.1264
  151SAPE  H14Y16808   2.942   1.181   8.671 -2.5371  4.5017  0.3417
  151SAPE  C31516809   3.153   1.192   8.581 -0.4298 -0.1978  0.1345
  151SAPE  H15X16810   3.184   1.085   8.581  4.0059  0.9028  0.6920
  151SAPE  H15Y16811   3.249   1.241   8.610  0.2797 -1.2767 -0.3261
  151SAPE  C31616812   3.112   1.226   8.438  0.6399 -0.1158 -0.3375
  151SAPE  H16X16813   3.114   1.336   8.422 -1.3098 -0.1783 -1.3053
  151SAPE  H16Y16814   3.008   1.189   8.425 -0.3303  2.1578  0.3286
  151SAPE  C31716815   3.209   1.160   8.341 -0.7377  0.5517 -0.3737
  151SAPE  H17X16816   3.165   1.149   8.240  1.3930 -1.3859 -1.1559
  151SAPE  H17Y16817   3.240   1.057   8.367 -1.2955  0.9601  2.1767
  151SAPE  C31816818   3.334   1.249   8.327  0.5371 -0.0779  0.3975
  151SAPE  H18X16819   3.402   1.202   8.254  0.5770 -2.4478  1.8559
  151SAPE  H18Y16820   3.397   1.264   8.418  0.8997  2.1965 -0.1623
  151SAPE  H18Z16821   3.305   1.351   8.293  1.4178 -0.7274 -2.4990
  152SAPE     N16822   3.393   2.146  10.573 -0.0100 -0.0527 -0.0664
  152SAPE   HN116823   3.460   2.195  10.510  0.0016  0.7231  0.5385
  152SAPE   HN216824   3.321   2.206  10.616  0.7587  1.3156 -0.6285
  152SAPE   HN316825   3.454   2.100  10.644 -2.4327 -1.2632  1.3667
  152SAPE   C1216826   3.325   2.033  10.509  0.8460 -0.0909 -0.3338
  152SAPE  H12A16827   3.245   2.075  10.444  0.9736 -0.1539 -0.5317
  152SAPE  H12B16828   3.281   1.970  10.589  0.6231  1.6688  0.9797
  152SAPE   C1116829   3.409   1.940  10.426  0.6203  0.4207  0.2530
  152SAPE  H11A16830   3.468   1.995  10.351  2.3653  0.5371  1.6536
  152SAPE  H11B16831   3.346   1.875  10.362  2.0353 -1.0545  0.3205
  152SAPE     P16832   3.457   1.716  10.545 -0.1049  0.3869 -0.0901
  152SAPE   O1316833   3.561   1.658  10.634  0.2867 -0.1881  0.3320
  152SAPE   O1416834   3.320   1.706  10.599 -0.2397  0.1469  0.3987
  152SAPE   O1216835   3.502   1.868  10.506  0.9261  0.5378 -0.0557
  152SAPE   O1116836   3.457   1.620  10.416 -0.1750 -0.5795 -0.1895
  152SAPE    C116837   3.568   1.603  10.333  0.3952 -0.0377 -0.0610
  152SAPE    HA16838   3.663   1.630  10.383 -0.3996  1.1254  0.8606
  152SAPE    HB16839   3.567   1.493  10.318 -2.8761 -0.2138  0.7332
  152SAPE    C216840   3.555   1.671  10.191  0.6456  0.1532  0.0091
  152SAPE    HS16841   3.628   1.618  10.125  1.8197 -0.4023  1.6655
  152SAPE   O2116842   3.587   1.810  10.198 -0.3661  0.1568 -0.1131
  152SAPE   C2116843   3.725   1.840  10.189  0.7306  0.1950  0.1257
  152SAPE   O2216844   3.804   1.754  10.165 -0.3169  0.3283  0.0946
  152SAPE   C2216845   3.756   1.985  10.206 -0.5839  0.8066 -0.1381
  152SAPE   H2R16846   3.685   2.032  10.277 -0.4072  0.5997  0.1766
  152SAPE   H2S16847   3.861   1.986  10.244 -0.3985  1.2120 -0.6342
  152SAPE    C316848   3.414   1.640  10.127  0.4883  0.0199  0.4716
  152SAPE    HX16849   3.335   1.691  10.185 -1.6301 -0.8905 -1.4484
  152SAPE    HY16850   3.387   1.532  10.129 -4.1993  0.9758 -0.7138
  152SAPE   O3116851   3.415   1.680   9.989 -0.2685 -0.1518 -0.0345
  152SAPE   C3116852   3.478   1.596   9.902  0.1306  0.6781 -0.0882
  152SAPE   O3216853   3.537   1.497   9.937  0.1541  0.0078  0.3349
  152SAPE   C3216854   3.452   1.660   9.759  0.6386 -0.1233  0.2105
  152SAPE   H2X16855   3.510   1.753   9.744  0.5086  0.1173  1.1320
  152SAPE   H2Y16856   3.344   1.686   9.758  0.7868  0.9889 -3.4406
  152SAPE   C2316857   3.759   2.062  10.073  0.6893  0.5254  0.1856
  152SAPE   H3R16858   3.777   2.167  10.107  2.0274 -0.2748  2.0947
  152SAPE   H3S16859   3.669   2.050  10.009  0.5074 -3.6358  0.9602
  152SAPE   C2416860   3.879   2.027   9.979 -0.1461  0.3375 -0.2636
  152SAPE   H4R16861   3.965   2.009  10.048 -0.3937  0.4778  0.0832
  152SAPE   H4S16862   3.907   2.120   9.926 -0.0614  0.8601  0.6734
  152SAPE   C2516863   3.860   1.908   9.887  0.3219 -0.4582 -0.2688
  152SAPE   H5R16864   3.877   1.810   9.934  1.1861 -0.9920 -1.6300
  152SAPE   C2616865   3.820   1.908   9.760  0.6544  0.4284  0.4169
  152SAPE   H6R16866   3.825   1.810   9.711  1.9369  0.9693 -0.5982
  152SAPE   C2716867   3.789   2.033   9.676  0.1208  0.6186 -0.0182
  152SAPE   H7R16868   3.868   2.049   9.599  1.1858 -0.9857  0.7002
  152SAPE   H7S16869   3.809   2.124   9.737  1.4683  0.0612  0.4085
  152SAPE   C2816870   3.657   2.030   9.610 -0.0078  0.7513  0.5749
  152SAPE   H8R16871   3.577   2.073   9.673 -0.0146  2.8703 -0.8046
  152SAPE   C2916872   3.625   1.989   9.484 -0.7786 -0.2328  0.2937
  152SAPE   H9R16873   3.521   1.984   9.448 -0.4063  0.4370 -0.9510
  152SAPE  C21016874   3.732   1.944   9.385 -0.6292  0.1884  0.0621
  152SAPE  H10R16875   3.813   1.885   9.434  0.3637  1.5317  0.1198
  152SAPE  H10S16876   3.780   2.032   9.336  1.0918 -0.7717 -0.0414
  152SAPE  C21116877   3.682   1.851   9.277  0.2135 -0.0284  0.1850
  152SAPE  H11R16878   3.624   1.770   9.324 -0.1350 -0.3572 -0.7948
  152SAPE  C21216879   3.697   1.857   9.142  0.4438  0.2468 -1.3965
  152SAPE  H12R16880   3.646   1.783   9.080  1.6838 -0.2734 -1.8211
  152SAPE  C21316881   3.774   1.945   9.050  0.1281 -0.4821  0.1658
  152SAPE  H13R16882   3.861   1.888   9.012 -0.3681 -0.6092 -0.7985
  152SAPE  H13S16883   3.817   2.030   9.108 -2.0404  1.7292 -1.2873
  152SAPE  C21416884   3.683   1.994   8.936 -0.9074 -0.0910  0.1320
  152SAPE  H14R16885   3.575   1.975   8.939 -0.5432 -2.5633 -0.3248
  152SAPE  C21516886   3.729   2.047   8.821  0.3827 -0.5380 -0.5357
  152SAPE  H15R16887   3.653   2.072   8.746 -2.5566 -1.1358  2.0225
  152SAPE  C21616888   3.872   2.074   8.781  0.3541  0.2094  0.7189
  152SAPE  H16R16889   3.919   1.996   8.716  2.5836 -0.2683  2.7720
  152SAPE  H16S16890   3.938   2.073   8.870 -0.0699 -1.8209  1.0654
  152SAPE  C21716891   3.861   2.208   8.700 -0.4125  0.4530 -0.1889
  152SAPE  H17R16892   3.811   2.297   8.745 -0.6113  1.0135 -1.4815
  152SAPE  H17S16893   3.801   2.182   8.610  0.9834 -0.7245 -0.8253
  152SAPE  C21816894   4.001   2.242   8.648  0.1745  0.0286  0.2025
  152SAPE  H18R16895   4.039   2.158   8.585 -0.2114 -1.2887  1.6864
  152SAPE  H18S16896   4.058   2.256   8.742  2.7811 -2.4818 -0.8566
  152SAPE  C21916897   4.011   2.380   8.579  0.4284  0.6146  0.4138
  152SAPE  H19R16898   3.947   2.371   8.488  0.4534  0.3529  0.4209
  152SAPE  H19S16899   4.115   2.403   8.550 -0.1355  0.3003 -2.1124
  152SAPE  C22016900   3.961   2.489   8.675  0.3205  0.5782 -0.2502
  152SAPE  H20R16901   4.004   2.587   8.647 -0.5711  0.8223 -0.7857
  152SAPE  H20S16902   4.000   2.463   8.776  1.6230  0.3076 -0.8049
  152SAPE  H20T16903   3.852   2.503   8.692  0.3348  1.3686 -0.7606
  152SAPE   C3316904   3.469   1.559   9.642 -0.4134  0.0991  0.0483
  152SAPE   H3X16905   3.427   1.457   9.656  3.1134 -1.9328 -2.5174
  152SAPE   H3Y16906   3.576   1.536   9.619  0.3100  3.5331 -0.6079
  152SAPE   C3416907   3.407   1.620   9.519  0.7887 -0.7861  0.0824
  152SAPE   H4X16908   3.447   1.721   9.497 -3.0963  0.6294 -1.4899
  152SAPE   H4Y16909   3.297   1.628   9.535  0.4333 -2.1198 -1.4280
  152SAPE   C3516910   3.435   1.549   9.386 -0.7742 -0.7190  0.2324
  152SAPE   H5X16911   3.387   1.449   9.387 -2.3698 -0.0062 -0.9189
  152SAPE   H5Y16912   3.545   1.540   9.373 -0.7739  0.5950 -0.9581
  152SAPE   C3616913   3.371   1.601   9.255 -0.3889  0.4072  0.3774
  152SAPE   H6X16914   3.376   1.712   9.246 -1.1444  0.3406 -1.4116
  152SAPE   H6Y16915   3.268   1.562   9.244  0.7540 -3.1161  1.1204
  152SAPE   C3716916   3.449   1.540   9.135  0.5294 -0.2896  0.1671
  152SAPE   H7X16917   3.435   1.430   9.134 -1.4931 -0.0666 -0.8570
  152SAPE   H7Y16918   3.557   1.560   9.149  0.6535 -0.4843 -0.4702
  152SAPE   C3816919   3.413   1.608   9.000 -0.5136  0.9816  0.1822
  152SAPE   H8X16920   3.410   1.718   9.013 -1.9151  1.0211 -0.3491
  152SAPE   H8Y16921   3.320   1.564   8.958 -1.3562  3.0790 -0.2606
  152SAPE   C3916922   3.512   1.594   8.885 -0.9097  0.8683 -0.2236
  152SAPE   H9X16923   3.571   1.500   8.887 -0.7685  0.9613  1.5744
  152SAPE   H9Y16924   3.586   1.677   8.890  0.8780 -0.7444  1.0669
  152SAPE  C31016925   3.453   1.612   8.747  0.4190 -0.3631 -0.6561
  152SAPE  H10X16926   3.397   1.708   8.741 -0.7485 -0.6093  3.4557
  152SAPE  H10Y16927   3.376   1.534   8.731 -0.6440  0.6094 -0.4315
  152SAPE  C31116928   3.568   1.595   8.647 -0.6092 -0.2157  0.2489
  152SAPE  H11X16929   3.571   1.489   8.613 -0.4585  0.4198 -1.8654
  152SAPE  H11Y16930   3.659   1.635   8.697  1.4766 -0.3857 -3.1387
  152SAPE  C31216931   3.555   1.681   8.512 -0.4334  0.5892  0.1246
  152SAPE  H12X16932   3.466   1.648   8.453 -0.3272  2.7339 -1.3342
  152SAPE  H12Y16933   3.641   1.664   8.444 -0.0731  2.1984  0.1274
  152SAPE  C31316934   3.546   1.832   8.527  0.0286  0.5669 -0.3228
  152SAPE  H13X16935   3.634   1.864   8.586  0.2896  1.9861 -1.4258
  152SAPE  H13Y16936   3.451   1.858   8.579 -0.4048  0.4886 -1.0524
  152SAPE  C31416937   3.538   1.903   8.390  0.8536  0.3285 -0.3873
  152SAPE  H14X16938   3.444   1.866   8.343 -0.6171  0.4386  2.2804
  152SAPE  H14Y16939   3.622   1.869   8.325  2.1497  0.3847  1.1997
  152SAPE  C31516940   3.533   2.051   8.412 -0.1771  0.2131  0.4127
  152SAPE  H15X16941   3.637   2.077   8.439  0.3397 -2.5307  1.3033
  152SAPE  H15Y16942   3.470   2.077   8.500  0.5496 -0.0041  1.0077
  152SAPE  C31616943   3.499   2.127   8.281 -0.0011  0.7202 -0.3063
  152SAPE  H16X16944   3.431   2.059   8.226  0.0775  0.7251 -0.4092
  152SAPE  H16Y16945   3.581   2.131   8.207 -0.5590  3.0387 -0.8631
  152SAPE  C31716946   3.432   2.260   8.320 -0.3285 -0.4736  0.3125
  152SAPE  H17X16947   3.331   2.240   8.362 -0.9737 -0.1513 -1.0367
  152SAPE  H17Y16948   3.402   2.313   8.227  0.6242 -0.5433 -0.0500
  152SAPE  C31816949   3.510   2.350   8.415  0.3800  0.4038 -0.4983
  152SAPE  H18X16950   3.494   2.458   8.392 -0.3596  0.3574 -0.2228
  152SAPE  H18Y16951   3.617   2.324   8.397  0.2897 -0.2487 -0.1104
  152SAPE  H18Z16952   3.477   2.318   8.516  0.3299 -1.1931 -1.0066
  153SAPE     N16953   2.262   3.026  10.672  0.2845 -0.6045  0.1868
  153SAPE   HN116954   2.281   3.109  10.730 -2.8711  1.5462 -1.5334
  153SAPE   HN216955   2.304   2.949  10.728  0.6668  0.2928  1.1622
  153SAPE   HN316956   2.315   3.042  10.584  1.9354  0.8722  1.3948
  153SAPE   C1216957   2.115   3.010  10.658 -0.6312  0.2276 -0.4088
  153SAPE  H12A16958   2.089   3.095  10.592 -0.5311  1.0551  0.6045
  153SAPE  H12B16959   2.068   3.020  10.758 -1.2053  0.7658 -0.7251
  153SAPE   C1116960   2.072   2.864  10.604  0.4174 -0.2509 -0.7050
  153SAPE  H11A16961   2.119   2.851  10.505 -1.7856 -0.0609 -1.8228
  153SAPE  H11B16962   1.963   2.869  10.587  0.7349  0.9182 -2.6805
  153SAPE     P16963   2.090   2.616  10.683 -0.0499  0.3230  0.0603
  153SAPE   O1316964   2.216   2.542  10.715 -0.2955 -0.5354 -0.2681
  153SAPE   O1416965   1.974   2.586  10.764 -0.2515 -0.5352  0.2091
  153SAPE   O1216966   2.120   2.772  10.700 -0.6404 -0.0529 -0.1473
  153SAPE   O1116967   2.054   2.601  10.531  0.1384  0.3465  0.3054
  153SAPE    C116968   2.029   2.471  10.476 -0.2904 -0.5214  0.2323
  153SAPE    HA16969   1.956   2.412  10.535 -2.0321  0.6388 -0.6559
  153SAPE    HB16970   1.981   2.485  10.376 -0.9465  0.0631  0.6191
  153SAPE    C216971   2.157   2.377  10.459 -0.5437 -0.9489 -0.5146
  153SAPE    HS16972   2.203   2.373  10.559  0.5767  0.8376 -0.9104
  153SAPE   O2116973   2.254   2.450  10.377  0.1492 -0.4733 -0.7164
  153SAPE   C2116974   2.376   2.391  10.389 -0.3705  0.7577 -0.2857
  153SAPE   O2216975   2.402   2.307  10.477  0.7499 -0.5987  0.1497
  153SAPE   C2216976   2.468   2.441  10.289  0.5319 -0.2459 -0.4154
  153SAPE   H2R16977   2.421   2.511  10.217  1.0707  0.4584 -0.0903
  153SAPE   H2S16978   2.554   2.479  10.347  1.3537 -3.4887  0.7264
  153SAPE    C316979   2.112   2.241  10.395 -0.4457 -0.6552  0.1593
  153SAPE    HX16980   2.053   2.179  10.465 -0.3871  0.7150  1.4710
  153SAPE    HY16981   2.200   2.173  10.396 -0.0601 -0.1802  1.8863
  153SAPE   O3116982   2.051   2.255  10.264 -0.3547 -0.4656  0.4001
  153SAPE   C3116983   1.973   2.159  10.226  0.0097  0.2645 -0.5079
  153SAPE   O3216984   1.928   2.065  10.293 -0.2886 -0.3526  0.8149
  153SAPE   C3216985   1.928   2.199  10.085 -0.1866 -0.4247  0.3523
  153SAPE   H2X16986   1.825   2.242  10.076  0.1167  0.3742  0.5722
  153SAPE   H2Y16987   1.905   2.102  10.037 -2.1885  0.6781 -1.1123
  153SAPE   C2316988   2.530   2.318  10.214  0.2938 -1.0322 -0.4941
  153SAPE   H3R16989   2.578   2.251  10.289 -0.1117 -0.1404  0.5895
  153SAPE   H3S16990   2.619   2.358  10.161  1.2798 -2.3144  0.1303
  153SAPE   C2416991   2.424   2.240  10.133  0.0725 -0.2996  0.7801
  153SAPE   H4R16992   2.355   2.182  10.198 -0.2257 -0.1004  0.6401
  153SAPE   H4S16993   2.477   2.158  10.081  0.9826 -1.4218  3.3105
  153SAPE   C2516994   2.336   2.323  10.046  0.3191  0.5112  0.3993
  153SAPE   H5R16995   2.256   2.373  10.104  1.5694  3.2435 -0.0575
  153SAPE   C2616996   2.350   2.334   9.915  0.4112 -0.2508 -0.5211
  153SAPE   H6R16997   2.280   2.397   9.858 -0.6260 -1.5892 -0.7798
  153SAPE   C2716998   2.456   2.280   9.818  0.0034  0.2206  0.1756
  153SAPE   H7R16999   2.424   2.184   9.773 -1.4214  0.1663  1.2526
  153SAPE   H7S17000   2.544   2.244   9.875  0.6642  0.4384 -0.6915
  153SAPE   C2817001   2.524   2.382   9.725  0.0219 -0.1793 -0.0094
  153SAPE   H8R17002   2.565   2.472   9.773 -0.9592 -0.8750  2.2792
  153SAPE   C2917003   2.543   2.375   9.590 -0.0468 -0.2479 -0.5083
  153SAPE   H9R17004   2.583   2.464   9.539 -0.8386  0.0008 -0.7206
  153SAPE  C21017005   2.512   2.266   9.507  0.3615  0.3004  0.1464
  153SAPE  H10R17006   2.459   2.184   9.561 -0.5175 -1.0356 -2.5581
  153SAPE  H10S17007   2.608   2.225   9.470 -0.5755 -0.0146 -2.1146
  153SAPE  C21117008   2.422   2.319   9.393 -0.5055 -0.0757 -1.1245
  153SAPE  H11R17009   2.327   2.363   9.427 -0.2671 -1.1825  1.1220
  153SAPE  C21217010   2.451   2.320   9.261 -0.3614 -0.4904 -0.2732
  153SAPE  H12R17011   2.380   2.350   9.183 -0.7476  0.9908  0.6017
  153SAPE  C21317012   2.573   2.262   9.195  0.3322 -0.2319 -0.3552
  153SAPE  H13R17013   2.536   2.206   9.106 -0.8054  2.0794 -1.4169
  153SAPE  H13S17014   2.625   2.188   9.260  1.0579  0.2389 -0.3924
  153SAPE  C21417015   2.684   2.360   9.162  0.0800 -0.4021  0.1542
  153SAPE  H14R17016   2.719   2.431   9.238 -0.7762  1.0510 -0.7801
  153SAPE  C21517017   2.742   2.369   9.041 -0.6976 -0.2040 -0.4065
  153SAPE  H15R17018   2.815   2.448   9.021 -0.4345 -0.8487 -2.1610
  153SAPE  C21617019   2.708   2.284   8.924 -0.6411  0.2845  0.1560
  153SAPE  H16R17020   2.612   2.319   8.881  0.4987  1.6160 -1.4399
  153SAPE  H16S17021   2.691   2.174   8.931  0.0414 -0.0638 -2.4377
  153SAPE  C21717022   2.812   2.307   8.810 -0.2593 -0.8656  0.6103
  153SAPE  H17R17023   2.793   2.236   8.727  1.9695 -1.9958  0.9939
  153SAPE  H17S17024   2.917   2.297   8.846 -0.0606  1.2724  0.7943
  153SAPE  C21817025   2.815   2.449   8.750 -0.4167  0.2988 -0.3678
  153SAPE  H18R17026   2.902   2.450   8.681 -1.8905  2.6443 -2.3564
  153SAPE  H18S17027   2.834   2.528   8.826  0.5291 -0.3312  0.0660
  153SAPE  C21917028   2.682   2.482   8.683 -0.9934 -0.5098 -0.2951
  153SAPE  H19R17029   2.609   2.500   8.765 -0.4621 -0.7628  0.2371
  153SAPE  H19S17030   2.650   2.399   8.617 -0.2050 -0.1242 -1.1968
  153SAPE  C22017031   2.704   2.598   8.582  0.3925  0.3302  0.5430
  153SAPE  H20R17032   2.625   2.617   8.506  0.1102 -0.0077  0.7475
  153SAPE  H20S17033   2.799   2.573   8.530  1.7251  0.1347  2.9147
  153SAPE  H20T17034   2.725   2.698   8.626  2.3100  2.0835 -3.7331
  153SAPE   C3317035   2.022   2.272   9.984 -0.2575  0.1256 -0.2850
  153SAPE   H3X17036   2.105   2.199   9.985  1.8619  2.4084  1.1763
  153SAPE   H3Y17037   2.050   2.374  10.017 -0.7344  0.0999  0.2111
  153SAPE   C3417038   1.957   2.267   9.843  0.0224 -0.2305  0.0974
  153SAPE   H4X17039   1.869   2.334   9.855  1.1422  1.5015 -0.9516
  153SAPE   H4Y17040   1.915   2.168   9.819  0.1191 -0.2740  0.1055
  153SAPE   C3517041   2.024   2.334   9.721 -0.1808 -0.2591  0.2071
  153SAPE   H5X17042   2.120   2.287   9.692 -1.0131 -0.6588 -2.1956
  153SAPE   H5Y17043   2.047   2.438   9.752 -0.8715 -0.7285  2.4883
  153SAPE   C3617044   1.935   2.337   9.592 -0.2718  0.6159 -0.4475
  153SAPE   H6X17045   1.838   2.387   9.612 -0.3230  0.5005 -0.4056
  153SAPE   H6Y17046   1.898   2.238   9.560 -2.5974  1.3928 -0.3489
  153SAPE   C3717047   2.017   2.380   9.464  0.4771  0.4786 -0.6459
  153SAPE   H7X17048   2.117   2.338   9.487 -1.8161 -3.9192  2.5900
  153SAPE   H7Y17049   2.016   2.491   9.474 -0.6931  0.3448  1.3022
  153SAPE   C3817050   1.959   2.325   9.333  0.3850 -0.0840  0.8698
  153SAPE   H8X17051   1.852   2.352   9.326  1.0995  2.5415 -2.4780
  153SAPE   H8Y17052   1.979   2.215   9.327  1.7243  0.2014 -0.5575
  153SAPE   C3917053   2.039   2.371   9.214  0.5097  0.1827 -1.1996
  153SAPE   H9X17054   2.098   2.286   9.175 -1.0391 -1.6921  0.3741
  153SAPE   H9Y17055   2.101   2.455   9.252 -2.0327  0.3961  3.2408
  153SAPE  C31017056   1.949   2.431   9.108  0.6762  0.0760 -0.3194
  153SAPE  H10X17057   1.881   2.505   9.155  0.1374 -0.9520  0.5616
  153SAPE  H10Y17058   1.875   2.355   9.075  2.7267 -1.2517 -2.1315
  153SAPE  C31117059   2.036   2.468   8.989 -0.6386  0.5063  0.1691
  153SAPE  H11X17060   2.125   2.520   9.029  0.4577 -0.7500 -0.5808
  153SAPE  H11Y17061   1.973   2.533   8.924 -1.1062  0.4936  0.6071
  153SAPE  C31217062   2.098   2.360   8.902 -0.1582 -0.2279 -0.6472
  153SAPE  H12X17063   2.025   2.287   8.862 -0.0337  0.1435 -1.5935
  153SAPE  H12Y17064   2.173   2.300   8.958 -1.1097  1.5567  2.8248
  153SAPE  C31317065   2.168   2.414   8.769  0.5100  0.0886 -0.0375
  153SAPE  H13X17066   2.096   2.480   8.716 -0.4391 -1.4847 -0.7818
  153SAPE  H13Y17067   2.187   2.320   8.714 -2.3924 -0.6589  0.0746
  153SAPE  C31417068   2.308   2.480   8.786 -0.0863  0.1549  0.0705
  153SAPE  H14X17069   2.381   2.397   8.794  0.2467  0.5894  1.7321
  153SAPE  H14Y17070   2.302   2.534   8.882  2.6259 -1.5236  1.2939
  153SAPE  C31517071   2.340   2.581   8.674  0.1603 -0.1394 -0.0866
  153SAPE  H15X17072   2.323   2.519   8.583 -1.8871  0.0060  0.1538
  153SAPE  H15Y17073   2.445   2.616   8.668  0.1617  0.0940  1.0098
  153SAPE  C31617074   2.251   2.707   8.672  0.0118 -0.1172 -0.3500
  153SAPE  H16X17075   2.295   2.789   8.733 -2.4628  1.3153 -0.3515
  153SAPE  H16Y17076   2.148   2.693   8.710  0.2005 -0.1187  0.1776
  153SAPE  C31717077   2.247   2.767   8.525  0.3890 -0.2776  0.1629
  153SAPE  H17X17078   2.216   2.693   8.448  2.0335 -0.2731 -0.5329
  153SAPE  H17Y17079   2.348   2.802   8.496 -0.1704  1.8942  0.6277
  153SAPE  C31817080   2.156   2.882   8.509 -0.0664  0.2765  0.1500
  153SAPE  H18X17081   2.165   2.925   8.407 -3.1715  0.6865 -0.0431
  153SAPE  H18Y17082   2.174   2.959   8.588  0.9737  0.7099 -0.4839
  153SAPE  H18Z17083   2.052   2.852   8.534 -0.1477 -0.3573 -0.9244
  154SAPE     N17084   1.939   1.866  10.545 -0.1287 -0.7585 -0.4881
  154SAPE   HN117085   1.924   1.794  10.471 -0.8458 -0.9229 -0.1935
  154SAPE   HN217086   1.846   1.913  10.550 -0.7119 -1.9904  1.2354
  154SAPE   HN317087   2.011   1.934  10.516  0.8447 -2.1190 -1.3802
  154SAPE   C1217088   1.981   1.829  10.686  0.7819  0.8733  0.0376
  154SAPE  H12A17089   1.905   1.756  10.722 -1.1741  0.8517 -3.6237
  154SAPE  H12B17090   1.966   1.926  10.738  0.2106 -0.0630  1.7096
  154SAPE   C1117091   2.123   1.769  10.687  0.2640  0.4898 -0.3007
  154SAPE  H11A17092   2.155   1.753  10.792 -0.8025 -0.2017 -0.0610
  154SAPE  H11B17093   2.186   1.840  10.630  1.1849  0.8745  1.1539
  154SAPE     P17094   2.148   1.504  10.670  0.5250 -0.0162  0.4723
  154SAPE   O1317095   2.273   1.450  10.619  0.6408 -0.5136 -0.3017
  154SAPE   O1417096   2.135   1.510  10.820 -0.0731 -0.1862  0.0086
  154SAPE   O1217097   2.126   1.646  10.613  0.4333 -0.2382 -0.0075
  154SAPE   O1117098   2.024   1.417  10.610 -0.2422  0.4557  0.1460
  154SAPE    C117099   1.937   1.459  10.505  0.1625  0.0159  0.3510
  154SAPE    HA17100   1.850   1.390  10.510 -1.6599  2.2332  1.3261
  154SAPE    HB17101   1.886   1.552  10.538 -0.3524  0.0726 -0.5480
  154SAPE    C217102   1.997   1.457  10.366 -0.0652  0.3853  0.0775
  154SAPE    HS17103   2.084   1.526  10.363 -0.8466  1.3766 -1.4933
  154SAPE   O2117104   1.904   1.488  10.257  0.0081 -0.7913 -0.0110
  154SAPE   C2117105   1.856   1.613  10.261  0.2990  0.3496  0.7938
  154SAPE   O2217106   1.888   1.698  10.339 -0.0598  0.0812 -0.0762
  154SAPE   C2217107   1.737   1.625  10.164 -0.0215  0.1924  0.9844
  154SAPE   H2R17108   1.692   1.525  10.144 -2.0590  0.9224  1.6590
  154SAPE   H2S17109   1.661   1.697  10.202 -2.2246 -1.5397  0.0546
  154SAPE    C317110   2.068   1.321  10.329  0.3629 -0.1145 -0.0153
  154SAPE    HX17111   1.994   1.240  10.346  0.4084 -0.6923 -2.3159
  154SAPE    HY17112   2.147   1.304  10.405 -0.9792 -0.2175  1.4017
  154SAPE   O3117113   2.119   1.310  10.194 -0.1125  0.6352  0.1613
  154SAPE   C3117114   2.223   1.387  10.173  0.1661  0.5704  0.0172
  154SAPE   O3217115   2.270   1.465  10.249 -0.5943  0.3649  0.2283
  154SAPE   C3217116   2.286   1.352  10.043  1.0161 -0.6071  0.2895
  154SAPE   H2X17117   2.265   1.249  10.008  2.0514 -0.1862 -1.7681
  154SAPE   H2Y17118   2.395   1.375  10.041  0.9974 -0.5280  0.1336
  154SAPE   C2317119   1.770   1.682  10.018  0.4947  0.4335 -0.2286
  154SAPE   H3R17120   1.801   1.788  10.035  1.9127 -0.1459  1.0455
  154SAPE   H3S17121   1.684   1.670   9.949  0.9877 -1.6107 -0.5439
  154SAPE   C2417122   1.879   1.600   9.941 -0.2981  0.3601 -0.1021
  154SAPE   H4R17123   1.972   1.608  10.000 -0.5366  0.8461  0.2156
  154SAPE   H4S17124   1.896   1.661   9.850  1.8801 -2.9063 -2.0759
  154SAPE   C2517125   1.841   1.455   9.909  0.6846 -0.4938  0.0909
  154SAPE   H5R17126   1.812   1.403  10.001 -0.1585 -0.4352 -0.1356
  154SAPE   C2617127   1.823   1.399   9.792  0.3469  0.2317  0.1862
  154SAPE   H6R17128   1.800   1.292   9.786  0.5478  0.1572  0.7351
  154SAPE   C2717129   1.847   1.470   9.661 -0.1583 -0.6359  0.6454
  154SAPE   H7R17130   1.923   1.407   9.610 -2.3458 -0.0683 -3.8129
  154SAPE   H7S17131   1.892   1.571   9.670 -0.9336 -0.3639  1.7404
  154SAPE   C2817132   1.726   1.461   9.565  0.2543 -0.2204  0.5001
  154SAPE   H8R17133   1.628   1.453   9.613  0.3973 -2.8839  0.5272
  154SAPE   C2917134   1.737   1.458   9.429  0.8609 -1.0270  0.1320
  154SAPE   H9R17135   1.641   1.452   9.376  0.5759  1.6040  0.1964
  154SAPE  C21017136   1.857   1.474   9.338  0.1261 -0.8311  1.2612
  154SAPE  H10R17137   1.938   1.402   9.365  1.4978  0.1652 -0.0558
  154SAPE  H10S17138   1.912   1.570   9.348 -1.1095  0.4409 -2.4677
  154SAPE  C21117139   1.826   1.450   9.189  0.0225 -0.2450  1.0493
  154SAPE  H11R17140   1.779   1.352   9.171 -1.5897  0.4805  1.1660
  154SAPE  C21217141   1.836   1.531   9.082 -0.1471 -0.6248 -0.0804
  154SAPE  H12R17142   1.816   1.487   8.983 -2.5383 -2.3019  1.0484
  154SAPE  C21317143   1.895   1.670   9.081  0.7067 -0.9763  0.0375
  154SAPE  H13R17144   1.906   1.708   9.185  1.2355  1.4989 -0.8318
  154SAPE  H13S17145   1.819   1.734   9.032  1.2293 -0.9121 -0.7079
  154SAPE  C21417146   2.012   1.691   8.991  0.0062  0.5439 -0.2744
  154SAPE  H14R17147   2.110   1.697   9.041 -1.5829  0.7972  3.1214
  154SAPE  C21517148   2.003   1.707   8.860 -0.6477  0.4117 -0.7639
  154SAPE  H15R17149   2.092   1.737   8.802 -0.6542  0.0669 -0.9582
  154SAPE  C21617150   1.884   1.701   8.778  0.6475  0.1763 -0.7670
  154SAPE  H16R17151   1.873   1.790   8.712  0.0462  0.5707 -0.1485
  154SAPE  H16S17152   1.792   1.706   8.840  1.4007 -0.7241  0.4625
  154SAPE  C21717153   1.852   1.570   8.706 -0.0837 -0.7248 -0.4916
  154SAPE  H17R17154   1.743   1.559   8.689  0.0545  0.2136 -2.2322
  154SAPE  H17S17155   1.890   1.482   8.762  1.2433  1.4708  2.2854
  154SAPE  C21817156   1.909   1.559   8.566 -0.0773 -0.0344 -0.5975
  154SAPE  H18R17157   2.018   1.562   8.589 -0.5176  2.9322  1.8166
  154SAPE  H18S17158   1.887   1.651   8.507 -0.4447  0.6150  0.5242
  154SAPE  C21917159   1.863   1.429   8.490 -0.3301 -0.7621  0.0769
  154SAPE  H19R17160   1.756   1.435   8.462 -0.1229 -0.5148 -0.6695
  154SAPE  H19S17161   1.867   1.351   8.569 -0.7755 -1.8762 -0.9637
  154SAPE  C22017162   1.945   1.391   8.366  0.4605  0.3642  0.6592
  154SAPE  H20R17163   2.041   1.340   8.394  0.8414 -0.2053 -1.4957
  154SAPE  H20S17164   1.966   1.478   8.300 -2.5046 -0.4691 -1.5851
  154SAPE  H20T17165   1.888   1.311   8.314  0.5743  0.6207  0.1360
  154SAPE   C3317166   2.218   1.419   9.926 -0.4795  0.3571 -0.2632
  154SAPE   H3X17167   2.230   1.527   9.946  1.9389 -0.2477  2.2481
  154SAPE   H3Y17168   2.112   1.389   9.911 -1.2148  2.1762  0.9015
  154SAPE   C3417169   2.294   1.393   9.790  0.6649 -0.4846 -0.6956
  154SAPE   H4X17170   2.252   1.294   9.761 -0.2659  0.3450 -2.2764
  154SAPE   H4Y17171   2.404   1.386   9.800  0.3812 -2.9895  2.4912
  154SAPE   C3517172   2.251   1.489   9.685  0.2989 -0.1224 -0.2026
  154SAPE   H5X17173   2.259   1.593   9.723  3.1438 -0.1820 -0.3837
  154SAPE   H5Y17174   2.142   1.474   9.673  0.0650 -0.2453  1.8185
  154SAPE   C3617175   2.336   1.485   9.555  0.2531 -0.4701  0.0033
  154SAPE   H6X17176   2.425   1.426   9.584  0.4701 -0.7731 -1.2381
  154SAPE   H6Y17177   2.371   1.589   9.533 -1.2473  0.0853  0.1290
  154SAPE   C3717178   2.252   1.433   9.438 -0.3923  0.5115 -0.2997
  154SAPE   H7X17179   2.155   1.483   9.453 -0.2098  0.3311  1.8614
  154SAPE   H7Y17180   2.237   1.324   9.457  3.5983  0.1134  1.8063
  154SAPE   C3817181   2.321   1.462   9.302  0.1307  0.2351  0.1097
  154SAPE   H8X17182   2.420   1.412   9.291 -0.4256 -0.6503 -1.1996
  154SAPE   H8Y17183   2.334   1.571   9.287  2.0394 -0.1180 -1.2607
  154SAPE   C3917184   2.233   1.400   9.191  0.4129 -0.4292  0.6877
  154SAPE   H9X17185   2.128   1.436   9.195  0.3840 -0.2459 -1.0176
  154SAPE   H9Y17186   2.229   1.290   9.206 -0.6434 -0.2911  1.5188
  154SAPE  C31017187   2.284   1.435   9.050 -0.7992 -0.2053 -0.1346
  154SAPE  H10X17188   2.392   1.408   9.041 -0.6258  0.6761 -0.9321
  154SAPE  H10Y17189   2.284   1.546   9.053 -0.7323 -0.2353  1.4613
  154SAPE  C31117190   2.207   1.370   8.930 -0.8610 -0.3426 -0.4517
  154SAPE  H11X17191   2.098   1.389   8.942 -0.8303  1.1727 -2.1290
  154SAPE  H11Y17192   2.234   1.263   8.933 -0.7166 -0.3169 -0.8063
  154SAPE  C31217193   2.242   1.423   8.799  0.3172  0.1705 -0.1925
  154SAPE  H12X17194   2.353   1.423   8.811  0.2278  1.5349  1.0495
  154SAPE  H12Y17195   2.206   1.525   8.772 -0.0080 -0.7466 -3.6388
  154SAPE  C31317196   2.206   1.347   8.665  0.4468 -0.7797  0.6685
  154SAPE  H13X17197   2.197   1.429   8.591  0.9667 -1.9532 -0.7295
  154SAPE  H13Y17198   2.100   1.315   8.668  0.0314  0.5976  1.4160
  154SAPE  C31417199   2.305   1.242   8.614 -0.9429  0.5858 -0.2887
  154SAPE  H14X17200   2.392   1.289   8.563 -2.5341  2.3834 -1.4847
  154SAPE  H14Y17201   2.251   1.186   8.535  0.2220  0.6181 -1.1392
  154SAPE  C31517202   2.357   1.148   8.715 -0.3680 -0.1280  0.1810
  154SAPE  H15X17203   2.267   1.093   8.753 -1.4320  0.6106 -1.1935
  154SAPE  H15Y17204   2.396   1.208   8.800 -1.0281 -0.0655  0.4520
  154SAPE  C31617205   2.465   1.051   8.662 -0.1551 -0.2152  0.3930
  154SAPE  H16X17206   2.548   1.116   8.625 -1.4001  2.0829  1.4316
  154SAPE  H16Y17207   2.425   0.997   8.574  1.3258 -1.2520  0.3140
  154SAPE  C31717208   2.509   0.952   8.761 -0.8732 -0.0034  0.2018
  154SAPE  H17X17209   2.420   0.910   8.812 -1.3942 -2.3674 -2.4361
  154SAPE  H17Y17210   2.569   0.995   8.845  0.5289  0.7128 -1.1201
  154SAPE  C31817211   2.598   0.834   8.714 -0.0583  0.1770 -0.3265
  154SAPE  H18X17212   2.689   0.875   8.666 -1.0713  0.8583 -1.7346
  154SAPE  H18Y17213   2.530   0.780   8.646 -1.1093  1.3086 -0.2177
  154SAPE  H18Z17214   2.626   0.773   8.802 -1.0138 -0.2088 -0.2736
  155SAPE     N17215   2.817   4.958  10.779  0.4108  0.3256  0.1070
  155SAPE   HN117216   2.885   5.025  10.821  1.4927  0.1643 -1.3137
  155SAPE   HN217217   2.755   4.926  10.856  0.7830  0.7847  0.5996
  155SAPE   HN317218   2.864   4.876  10.734 -2.3911 -0.0303 -2.4528
  155SAPE   C1217219   2.742   5.039  10.684 -0.3021 -0.3346  0.0451
  155SAPE  H12A17220   2.659   4.990  10.629  2.5265 -3.3885 -1.8703
  155SAPE  H12B17221   2.816   5.060  10.603  0.5694 -1.2010  0.5961
  155SAPE   C1117222   2.687   5.160  10.742  0.3371  0.2146  0.9024
  155SAPE  H11A17223   2.621   5.212  10.669 -1.2371 -2.2998  0.4097
  155SAPE  H11B17224   2.766   5.235  10.769 -1.6001  2.2868  1.1246
  155SAPE     P17225   2.483   5.190  10.900 -0.1320 -0.4279 -0.3841
  155SAPE   O1317226   2.446   5.138  11.032 -0.2568 -0.1600 -0.1990
  155SAPE   O1417227   2.477   5.340  10.881  0.1099  0.1269  0.1441
  155SAPE   O1217228   2.616   5.133  10.865 -0.1358  0.0982  0.0111
  155SAPE   O1117229   2.397   5.109  10.788  0.4255 -0.1833 -0.5090
  155SAPE    C117230   2.268   5.154  10.760 -0.0916  0.2666  0.6338
  155SAPE    HA17231   2.195   5.071  10.765 -0.6813  0.7636  0.5013
  155SAPE    HB17232   2.218   5.229  10.825  0.9404  0.1308  1.6047
  155SAPE    C217233   2.253   5.198  10.616  0.1811  0.1072 -0.5695
  155SAPE    HS17234   2.144   5.209  10.601  0.3738 -0.3649 -2.5165
  155SAPE   O2117235   2.313   5.110  10.519  0.0993 -0.1980 -0.0491
  155SAPE   C2117236   2.247   5.000  10.501  0.6781  0.7530  0.4429
  155SAPE   O2217237   2.137   4.978  10.549  0.3532  0.0776 -0.2111
  155SAPE   C2217238   2.332   4.905  10.419 -0.0058  0.8592  0.3999
  155SAPE   H2R17239   2.429   4.953  10.392  0.6896 -0.0785  1.1611
  155SAPE   H2S17240   2.346   4.817  10.486 -0.5858  0.2760 -0.2340
  155SAPE    C317241   2.311   5.335  10.601  0.0112  0.0109  0.5837
  155SAPE    HX17242   2.421   5.329  10.592  0.2617  1.5894  2.1247
  155SAPE    HY17243   2.299   5.396  10.693  0.7318 -0.7619  1.2014
  155SAPE   O3117244   2.252   5.407  10.490 -0.0433 -0.1111  0.0614
  155SAPE   C3117245   2.296   5.527  10.466 -0.0689 -0.5717  0.3510
  155SAPE   O3217246   2.373   5.591  10.531 -0.7405  0.3458 -0.1655
  155SAPE   C3217247   2.233   5.587  10.338 -0.1262 -0.4653  0.1688
  155SAPE   H2X17248   2.125   5.603  10.358  0.0063  1.8294 -0.7103
  155SAPE   H2Y17249   2.258   5.505  10.267 -1.0934 -1.4202  0.9055
  155SAPE   C2317250   2.258   4.854  10.288  0.3888 -0.0552  0.4157
  155SAPE   H3R17251   2.148   4.867  10.300  0.2279 -1.2359  0.4147
  155SAPE   H3S17252   2.273   4.744  10.281  1.8986  0.0971  0.8838
  155SAPE   C2417253   2.296   4.931  10.160  0.0974  0.5354  0.0549
  155SAPE   H4R17254   2.262   5.036  10.173  1.5328  1.0252  0.0118
  155SAPE   H4S17255   2.221   4.894  10.087 -0.9231  0.6198  1.0253
  155SAPE   C2517256   2.441   4.922  10.107  0.2145  0.1660 -0.0738
  155SAPE   H5R17257   2.487   4.822  10.109 -0.5840 -0.2028  0.2362
  155SAPE   C2617258   2.506   5.031  10.055 -0.5094 -0.6112 -0.6956
  155SAPE   H6R17259   2.615   5.024  10.043 -0.0713  2.0260  0.9893
  155SAPE   C2717260   2.453   5.171  10.049  0.7777 -0.2529  0.0829
  155SAPE   H7R17261   2.346   5.172  10.020 -0.5697 -1.9922  4.2789
  155SAPE   H7S17262   2.505   5.218   9.963 -1.3310  2.3928  0.0874
  155SAPE   C2817263   2.462   5.252  10.172  0.7955  0.6935  0.1590
  155SAPE   H8R17264   2.380   5.220  10.238  2.9470 -1.0776  2.1461
  155SAPE   C2917265   2.532   5.360  10.211 -0.2032  0.3020  0.3391
  155SAPE   H9R17266   2.501   5.404  10.306  0.9457  1.1152  0.3628
  155SAPE  C21017267   2.647   5.430  10.143  0.1286 -0.2951  0.2723
  155SAPE  H10R17268   2.609   5.529  10.112  2.6055  0.4302 -0.7187
  155SAPE  H10S17269   2.672   5.375  10.050  1.2577  0.4347  0.1179
  155SAPE  C21117270   2.771   5.452  10.228  0.6695 -0.0178  0.0634
  155SAPE  H11R17271   2.761   5.531  10.304 -0.2828 -0.7528  0.7145
  155SAPE  C21217272   2.887   5.388  10.219 -0.2137  0.4696 -0.9949
  155SAPE  H12R17273   2.964   5.416  10.292 -0.7720 -0.2942 -0.0926
  155SAPE  C21317274   2.931   5.287  10.117 -0.2553  0.5038  1.2051
  155SAPE  H13R17275   2.840   5.230  10.091 -0.5294  1.6000 -0.4303
  155SAPE  H13S17276   3.001   5.210  10.157  0.1221  0.0916 -0.1681
  155SAPE  C21417277   2.989   5.337   9.986  0.2344  0.8861  0.4545
  155SAPE  H14R17278   3.058   5.422   9.997 -0.2259  1.1446  1.4181
  155SAPE  C21517279   2.969   5.299   9.862  0.0566  0.1125 -0.3393
  155SAPE  H15R17280   3.026   5.343   9.778  0.9279 -2.8564 -1.4297
  155SAPE  C21617281   2.886   5.181   9.826 -0.4077  0.0800 -0.4970
  155SAPE  H16R17282   2.813   5.157   9.906  2.4011 -0.7065  2.0011
  155SAPE  H16S17283   2.963   5.101   9.818 -1.7722 -1.2959 -0.3420
  155SAPE  C21717284   2.806   5.195   9.697 -0.0556  0.0968 -0.5168
  155SAPE  H17R17285   2.731   5.276   9.714 -1.1332 -1.3398  2.1207
  155SAPE  H17S17286   2.740   5.106   9.694 -1.2480  0.7769  2.3816
  155SAPE  C21817287   2.884   5.199   9.560  0.2720 -0.0611 -0.1435
  155SAPE  H18R17288   2.959   5.118   9.574 -0.7257 -1.1674 -0.9900
  155SAPE  H18S17289   2.944   5.293   9.553  1.3954 -0.8055 -0.8823
  155SAPE  C21917290   2.791   5.174   9.440 -0.8987  0.5177 -0.0807
  155SAPE  H19R17291   2.728   5.265   9.433 -0.4178  1.0966  2.2314
  155SAPE  H19S17292   2.721   5.091   9.465 -0.2097  0.1632  0.7497
  155SAPE  C22017293   2.861   5.144   9.307 -0.4941  0.3936  0.6221
  155SAPE  H20R17294   2.931   5.060   9.329 -1.0616 -0.2265  0.1300
  155SAPE  H20S17295   2.922   5.230   9.273  1.2625 -1.1578 -0.3074
  155SAPE  H20T17296   2.790   5.110   9.229 -0.0713  0.4373  0.2187
  155SAPE   C3317297   2.295   5.717  10.299  0.0112  0.2909 -0.0934
  155SAPE   H3X17298   2.406   5.717  10.304  0.0745 -2.8636  0.7459
  155SAPE   H3Y17299   2.272   5.798  10.372  2.0966  0.6160  0.2428
  155SAPE   C3417300   2.249   5.751  10.155 -0.4782 -0.4746  0.4849
  155SAPE   H4X17301   2.138   5.764  10.154 -0.3074  1.5558 -1.8902
  155SAPE   H4Y17302   2.283   5.669  10.088 -1.9495 -0.5978 -0.1518
  155SAPE   C3517303   2.309   5.883  10.106  0.6017  0.0179  0.7069
  155SAPE   H5X17304   2.415   5.865  10.076  0.7335 -1.6578  2.0263
  155SAPE   H5Y17305   2.308   5.955  10.191  0.2416  0.2265  0.5245
  155SAPE   C3617306   2.239   5.940   9.980 -0.9056 -0.5885  0.3902
  155SAPE   H6X17307   2.296   6.028   9.945 -0.1536 -1.6341 -1.1393
  155SAPE   H6Y17308   2.143   5.987  10.010  0.4154  2.7956 -0.3224
  155SAPE   C3717309   2.227   5.834   9.871 -0.2841 -0.4973  0.5255
  155SAPE   H7X17310   2.145   5.761   9.889 -0.5681 -0.0030  1.2754
  155SAPE   H7Y17311   2.322   5.777   9.864 -0.5505 -0.9413  0.4976
  155SAPE   C3817312   2.205   5.910   9.734  0.2243 -0.2036  1.0374
  155SAPE   H8X17313   2.303   5.954   9.706 -1.2070  2.0780 -0.8029
  155SAPE   H8Y17314   2.134   5.991   9.761  0.5680  0.4847 -0.0750
  155SAPE   C3917315   2.121   5.832   9.626  0.3066 -0.6849  0.5840
  155SAPE   H9X17316   2.051   5.768   9.683  0.9073 -0.4478  1.6218
  155SAPE   H9Y17317   2.191   5.778   9.559 -0.5626  0.4817 -1.3567
  155SAPE  C31017318   2.025   5.922   9.539 -0.2548  0.7799 -0.4515
  155SAPE  H10X17319   2.068   6.020   9.510 -0.1934  1.0660  0.5713
  155SAPE  H10Y17320   1.941   5.937   9.611  3.0436  0.5429  3.8349
  155SAPE  C31117321   1.988   5.851   9.406 -0.2804  0.6751  0.2158
  155SAPE  H11X17322   1.915   5.770   9.424  0.6155 -0.6163 -1.5934
  155SAPE  H11Y17323   2.068   5.803   9.346 -0.9736 -0.8026  0.4161
  155SAPE  C31217324   1.913   5.942   9.310  0.4651  0.0278  0.6130
  155SAPE  H12X17325   1.983   6.025   9.286 -1.2165  1.5135  0.6667
  155SAPE  H12Y17326   1.825   5.991   9.357 -0.9552 -1.8948  0.0626
  155SAPE  C31317327   1.863   5.870   9.183 -0.1323  0.1378 -0.4277
  155SAPE  H13X17328   1.778   5.804   9.207  1.5279 -2.4130 -1.2041
  155SAPE  H13Y17329   1.939   5.800   9.142 -0.8507 -0.8134 -0.1725
  155SAPE  C31417330   1.833   5.972   9.080 -0.6110 -0.5148  0.0405
  155SAPE  H14X17331   1.930   6.027   9.074 -0.0448 -1.6364 -2.4729
  155SAPE  H14Y17332   1.752   6.042   9.112 -1.2228 -1.3892  0.4422
  155SAPE  C31517333   1.795   5.924   8.935  0.0858  0.3559  0.4521
  155SAPE  H15X17334   1.780   6.014   8.872  2.7402  0.9182  0.5355
  155SAPE  H15Y17335   1.703   5.862   8.938 -1.4281  2.4251 -0.2778
  155SAPE  C31617336   1.911   5.845   8.870  0.1869  0.6416  0.1489
  155SAPE  H16X17337   1.950   5.760   8.929 -1.1656  0.0190  0.1904
  155SAPE  H16Y17338   1.997   5.914   8.878  0.9525 -0.3054  0.2443
  155SAPE  C31717339   1.885   5.805   8.724 -0.1069  0.8909 -0.7521
  155SAPE  H17X17340   1.831   5.885   8.669 -1.3560 -2.0341 -4.1646
  155SAPE  H17Y17341   1.813   5.721   8.721 -1.3140  1.8951 -0.5450
  155SAPE  C31817342   2.017   5.775   8.653 -0.3922 -1.0718  0.1511
  155SAPE  H18X17343   2.080   5.863   8.626  2.2351 -2.4414  1.4865
  155SAPE  H18Y17344   1.993   5.717   8.562 -0.0437  0.6237 -1.0798
  155SAPE  H18Z17345   2.091   5.713   8.707  1.0059  0.1566 -0.2770
  156SAPE     N17346   3.897   6.241  11.025 -0.1012 -0.1663 -0.8021
  156SAPE   HN117347   3.975   6.299  10.990  0.3147 -0.5587 -0.5298
  156SAPE   HN217348   3.810   6.295  11.007 -1.5563 -1.6968  1.1009
  156SAPE   HN317349   3.895   6.239  11.129 -1.4360  0.7109 -0.7816
  156SAPE   C1217350   3.896   6.106  10.953 -0.6442 -0.7038 -0.2877
  156SAPE  H12A17351   3.838   6.030  11.010 -2.1163  0.9157  0.4873
  156SAPE  H12B17352   4.002   6.074  10.951 -0.9558 -1.7909 -1.1857
  156SAPE   C1117353   3.833   6.120  10.816  0.9337 -0.1854  0.8963
  156SAPE  H11A17354   3.722   6.115  10.811  0.9673 -0.8672  0.7404
  156SAPE  H11B17355   3.871   6.033  10.758  2.0902  2.0842 -2.0075
  156SAPE     P17356   3.876   6.280  10.596  0.3694  0.0699  0.1428
  156SAPE   O1317357   3.810   6.412  10.577 -0.1028  0.2086  0.2467
  156SAPE   O1417358   4.015   6.279  10.554  0.5146 -0.2578 -0.4661
  156SAPE   O1217359   3.880   6.244  10.750 -0.2325 -0.2034 -0.6251
  156SAPE   O1117360   3.789   6.161  10.536 -0.0743 -0.1292 -0.0047
  156SAPE    C117361   3.687   6.179  10.443  0.5488  0.1997  0.7380
  156SAPE    HA17362   3.617   6.257  10.481 -0.4604 -0.3288  0.0254
  156SAPE    HB17363   3.724   6.190  10.339 -0.2158 -1.5300  0.2425
  156SAPE    C217364   3.605   6.049  10.442  0.2047  0.1951  0.7432
  156SAPE    HS17365   3.582   6.013  10.545 -0.5036 -1.3636  0.0715
  156SAPE   O2117366   3.663   5.945  10.354  0.4616 -0.2245 -0.8638
  156SAPE   C2117367   3.641   5.817  10.390 -0.0216  0.4496 -0.0024
  156SAPE   O2217368   3.589   5.778  10.492 -0.4622 -0.4319  0.0654
  156SAPE   C2217369   3.681   5.724  10.279 -0.1164 -0.0213 -0.0388
  156SAPE   H2R17370   3.781   5.763  10.253  0.6001  0.7568  3.4019
  156SAPE   H2S17371   3.690   5.623  10.325  1.2581  0.3478  0.5283
  156SAPE    C317372   3.469   6.074  10.380 -0.1736  0.1752 -0.3472
  156SAPE    HX17373   3.399   5.988  10.375 -2.2614  1.7213  0.6419
  156SAPE    HY17374   3.500   6.105  10.277 -0.0940  0.5260 -0.2175
  156SAPE   O3117375   3.402   6.182  10.449 -0.3181 -0.7407  0.6947
  156SAPE   C3117376   3.280   6.198  10.406  0.9998 -0.1674 -0.3553
  156SAPE   O3217377   3.228   6.131  10.317 -0.3034 -0.3067 -0.3430
  156SAPE   C3217378   3.219   6.323  10.468  0.7544 -0.0536  0.0342
  156SAPE   H2X17379   3.273   6.416  10.440 -0.4283  1.2025  1.7128
  156SAPE   H2Y17380   3.227   6.312  10.578 -0.1755 -3.3742 -0.1247
  156SAPE   C2317381   3.598   5.724  10.152 -0.6885  0.0590 -0.3774
  156SAPE   H3R17382   3.498   5.760  10.184  0.7019  3.5179  0.5934
  156SAPE   H3S17383   3.578   5.625  10.106 -1.2988  0.0386 -0.0832
  156SAPE   C2417384   3.640   5.836  10.048  0.1978 -0.5799 -0.0104
  156SAPE   H4R17385   3.660   5.933  10.097 -0.3025 -1.8289  2.8859
  156SAPE   H4S17386   3.554   5.851   9.980  1.0980  0.7466 -0.9051
  156SAPE   C2517387   3.758   5.788   9.965  0.3256 -0.0950 -0.0247
  156SAPE   H5R17388   3.856   5.778  10.014  0.2988 -1.1837 -0.1699
  156SAPE   C2617389   3.754   5.757   9.833  0.8038 -0.9943  0.2387
  156SAPE   H6R17390   3.852   5.741   9.786  1.2641  0.4120  0.6704
  156SAPE   C2717391   3.638   5.761   9.739  0.1935  0.0394 -0.3612
  156SAPE   H7R17392   3.631   5.858   9.686 -0.4766 -0.0245 -0.4001
  156SAPE   H7S17393   3.538   5.750   9.786 -0.3340 -3.1476 -1.9228
  156SAPE   C2817394   3.665   5.652   9.635  0.4938 -0.2152  0.3938
  156SAPE   H8R17395   3.725   5.562   9.655  1.8825  0.0914 -1.9953
  156SAPE   C2917396   3.641   5.668   9.507  0.5210  0.6187 -0.7319
  156SAPE   H9R17397   3.687   5.594   9.440  1.4567  1.8883 -1.5299
  156SAPE  C21017398   3.580   5.778   9.434 -0.1677 -0.4881 -0.6894
  156SAPE  H10R17399   3.655   5.844   9.385  0.9527 -0.7157  0.6904
  156SAPE  H10S17400   3.524   5.836   9.511  2.7997  0.6559  0.7485
  156SAPE  C21117401   3.485   5.738   9.321 -0.2832 -0.7367  0.4228
  156SAPE  H11R17402   3.383   5.740   9.363  0.3452 -0.4348  2.0096
  156SAPE  C21217403   3.507   5.731   9.190 -0.1549 -0.4110  1.6190
  156SAPE  H12R17404   3.426   5.688   9.130  1.2778  0.1353 -0.8187
  156SAPE  C21317405   3.645   5.745   9.127 -0.2919  0.4162  0.4933
  156SAPE  H13R17406   3.668   5.644   9.087  0.1586  0.1356  1.4237
  156SAPE  H13S17407   3.732   5.780   9.188  0.9831  1.1932 -1.6673
  156SAPE  C21417408   3.632   5.838   9.010  0.3394 -0.4684 -0.1348
  156SAPE  H14R17409   3.595   5.935   9.045  0.2995 -0.3704 -0.4436
  156SAPE  C21517410   3.666   5.816   8.879 -0.5156  0.0245 -0.0704
  156SAPE  H15R17411   3.657   5.903   8.811 -1.1731  0.8890  1.0953
  156SAPE  C21617412   3.729   5.691   8.821  0.8091 -0.7467  0.1856
  156SAPE  H16R17413   3.765   5.612   8.891  1.4422  0.6675  1.5222
  156SAPE  H16S17414   3.819   5.720   8.764  0.4980  0.8172  0.4499
  156SAPE  C21717415   3.636   5.623   8.717  0.2013 -0.0785 -0.0422
  156SAPE  H17R17416   3.559   5.579   8.785  0.6512 -1.5778 -0.4725
  156SAPE  H17S17417   3.703   5.550   8.667  0.6400 -0.3407  0.9003
  156SAPE  C21817418   3.558   5.707   8.617  0.0621 -0.6093 -0.2319
  156SAPE  H18R17419   3.638   5.764   8.565  1.2908 -1.4040  0.7048
  156SAPE  H18S17420   3.489   5.776   8.670  1.0251  0.4205 -0.2790
  156SAPE  C21917421   3.478   5.626   8.513  0.7192  0.1905  0.1623
  156SAPE  H19R17422   3.555   5.560   8.467  1.9033  2.2240 -0.9119
  156SAPE  H19S17423   3.444   5.699   8.437  2.3284 -0.7740 -1.5708
  156SAPE  C22017424   3.366   5.534   8.566  0.2593  0.0772 -0.1209
  156SAPE  H20R17425   3.414   5.474   8.646  0.7629  0.7349  0.0822
  156SAPE  H20S17426   3.338   5.456   8.492 -5.7710  0.4331  1.2547
  156SAPE  H20T17427   3.293   5.604   8.612 -1.0779 -1.3757  0.0349
  156SAPE   C3317428   3.065   6.356  10.442  0.6307  0.5336  0.2852
  156SAPE   H3X17429   3.028   6.440  10.504  0.9152  1.6236 -0.9727
  156SAPE   H3Y17430   3.006   6.268  10.477 -0.7909  1.6660  0.8085
  156SAPE   C3417431   3.034   6.390  10.295 -0.2097 -0.8765 -0.0667
  156SAPE   H4X17432   3.044   6.295  10.239 -2.2568  0.1652 -2.3842
  156SAPE   H4Y17433   3.105   6.466  10.257 -0.0608 -1.0221 -0.0825
  156SAPE   C3517434   2.893   6.452  10.280  0.5650  0.0756  0.0146
  156SAPE   H5X17435   2.883   6.522  10.365  0.1057  0.1318 -0.0838
  156SAPE   H5Y17436   2.819   6.371  10.299 -0.5943  1.1651  0.1933
  156SAPE   C3617437   2.874   6.523  10.143 -0.9225 -0.2074 -0.6192
  156SAPE   H6X17438   2.944   6.609  10.152  2.3445 -2.8032  1.0172
  156SAPE   H6Y17439   2.769   6.552  10.124 -0.6489  0.9548 -0.3888
  156SAPE   C3717440   2.910   6.441  10.017 -0.4731  0.2413  0.0477
  156SAPE   H7X17441   2.887   6.334  10.033  2.4676 -0.8617 -2.2882
  156SAPE   H7Y17442   3.019   6.429   9.999 -0.5371  1.4138 -1.2198
  156SAPE   C3817443   2.852   6.493   9.887 -0.9192  0.1084 -1.0158
  156SAPE   H8X17444   2.887   6.594   9.854  0.2554  0.5081  1.2161
  156SAPE   H8Y17445   2.742   6.499   9.898 -0.9436 -0.8165 -0.7158
  156SAPE   C3917446   2.868   6.388   9.764 -0.9125 -0.1999  0.2176
  156SAPE   H9X17447   2.815   6.293   9.788 -1.1494 -0.5231 -1.4382
  156SAPE   H9Y17448   2.975   6.358   9.761 -0.9052 -0.1138 -1.8179
  156SAPE  C31017449   2.816   6.446   9.632 -0.9146  0.1084 -0.6857
  156SAPE  H10X17450   2.864   6.545   9.614  0.4807 -0.4185  0.0141
  156SAPE  H10Y17451   2.707   6.468   9.628 -0.6723  1.9565  1.2405
  156SAPE  C31117452   2.864   6.344   9.525  0.6286  0.8498  0.4605
  156SAPE  H11X17453   2.833   6.240   9.548  2.4220 -0.0643 -1.0721
  156SAPE  H11Y17454   2.972   6.341   9.500  0.6951  0.4794  0.7745
  156SAPE  C31217455   2.784   6.378   9.393 -0.0298 -0.2629  0.0406
  156SAPE  H12X17456   2.818   6.480   9.364  2.0591 -0.8339  0.2521
  156SAPE  H12Y17457   2.675   6.376   9.410 -0.3095  0.1960 -1.5100
  156SAPE  C31317458   2.807   6.273   9.276 -0.4897  0.0321  0.3835
  156SAPE  H13X17459   2.804   6.167   9.309 -0.3445  0.0801  0.5501
  156SAPE  H13Y17460   2.913   6.289   9.246 -0.9047  1.4543 -0.4076
  156SAPE  C31417461   2.737   6.296   9.150 -0.7312  0.3416 -0.5171
  156SAPE  H14X17462   2.742   6.400   9.109  0.8688  0.1930 -0.7749
  156SAPE  H14Y17463   2.632   6.280   9.179 -0.1160  0.2205  1.7942
  156SAPE  C31517464   2.776   6.200   9.038  0.1121 -0.3826 -0.0862
  156SAPE  H15X17465   2.797   6.098   9.077 -1.9768 -1.7880 -2.3229
  156SAPE  H15Y17466   2.864   6.246   8.988 -0.1539 -0.0539 -0.2556
  156SAPE  C31617467   2.667   6.191   8.927 -0.1357 -0.0890  0.2845
  156SAPE  H16X17468   2.641   6.293   8.891  0.5956 -0.8998 -2.8111
  156SAPE  H16Y17469   2.579   6.139   8.970  0.8226 -1.9951  0.0682
  156SAPE  C31717470   2.715   6.091   8.814  0.7671 -0.0240  0.0514
  156SAPE  H17X17471   2.792   6.139   8.750  0.3580  1.7891  0.8764
  156SAPE  H17Y17472   2.623   6.069   8.756  0.9170 -3.0684  0.7950
  156SAPE  C31817473   2.776   5.969   8.868  0.5559 -0.2261 -0.2524
  156SAPE  H18X17474   2.779   5.886   8.794  1.1578 -0.9878  0.6044
  156SAPE  H18Y17475   2.718   5.923   8.951 -0.6719 -0.0771 -1.0027
  156SAPE  H18Z17476   2.878   5.998   8.902  0.4091 -0.4188  0.3692
  157SAPE     N17477   3.115   0.698  10.552  0.1855  0.3368 -0.1894
  157SAPE   HN117478   3.096   0.676  10.651 -1.6760 -0.7838 -0.7340
  157SAPE   HN217479   3.214   0.680  10.527  0.3572  0.6144  0.2844
  157SAPE   HN317480   3.089   0.798  10.543  1.8539  0.6146 -3.5271
  157SAPE   C1217481   3.021   0.612  10.476  0.5628  0.8830  0.2045
  157SAPE  H12A17482   3.027   0.628  10.367 -1.4415 -1.7923 -0.4045
  157SAPE  H12B17483   2.921   0.628  10.522  0.4038  0.5564 -0.0299
  157SAPE   C1117484   3.057   0.464  10.493  0.0079  0.2959 -0.2965
  157SAPE  H11A17485   3.163   0.448  10.464  0.2039  0.6829  0.1967
  157SAPE  H11B17486   2.990   0.423  10.415 -0.5189  1.5431 -0.5254
  157SAPE     P17487   2.909   0.332  10.660  0.1175  0.4383  0.1697
  157SAPE   O1317488   2.931   0.244  10.772 -0.2100 -0.1077 -0.1726
  157SAPE   O1417489   2.789   0.418  10.674  0.1073  0.4559  0.9004
  157SAPE   O1217490   3.039   0.418  10.631 -0.1754  0.2610  0.1761
  157SAPE   O1117491   2.891   0.250  10.525  0.1745  0.3317  0.0943
  157SAPE    C117492   2.955   0.121  10.508  0.1409 -0.5869  1.2989
  157SAPE    HA17493   3.057   0.128  10.465 -0.2831 -3.8151 -0.5384
  157SAPE    HB17494   2.968   0.073  10.607  2.4823 -0.5302  1.0760
  157SAPE    C217495   2.882   0.046  10.394 -1.5480  0.1277 -0.5022
  157SAPE    HS17496   2.949  -0.040  10.375 -0.5050  0.4616  1.3991
  157SAPE   O2117497   2.880   0.139  10.282 -0.2474  0.3811  0.2602
  157SAPE   C2117498   2.991   0.147  10.205 -0.1395  0.1939  0.1874
  157SAPE   O2217499   3.082   0.067  10.208 -0.4537 -0.1091  1.0977
  157SAPE   C2217500   2.979   0.264  10.108  0.9645  0.0073  0.6035
  157SAPE   H2R17501   2.996   0.362  10.156  4.7500 -0.6408  0.9555
  157SAPE   H2S17502   3.066   0.256  10.038  0.1197 -0.9966 -0.3754
  157SAPE    C317503   2.745  -0.005  10.425 -0.5218  0.1542 -0.3867
  157SAPE    HX17504   2.698   0.083  10.472 -2.7862 -0.5886 -1.1614
  157SAPE    HY17505   2.758  -0.075  10.511  0.4240 -0.6425 -1.1465
  157SAPE   O3117506   2.671  -0.068  10.318  0.7206 -0.8585  0.6692
  157SAPE   C3117507   2.600   0.027  10.251 -0.3737  0.3787  0.4807
  157SAPE   O3217508   2.588   0.144  10.285 -0.1460  0.4962  0.4258
  157SAPE   C3217509   2.534  -0.031  10.124 -0.3691 -0.9698 -0.5822
  157SAPE   H2X17510   2.463  -0.089  10.187 -0.6869  2.1371  2.1631
  157SAPE   H2Y17511   2.606  -0.079  10.054 -0.3643 -0.6844 -0.7717
  157SAPE   C2317512   2.859   0.261  10.009 -0.0265  0.1818  0.1116
  157SAPE   H3R17513   2.830   0.364   9.980  2.8274  1.4541  1.4969
  157SAPE   H3S17514   2.778   0.221  10.074 -0.5005  0.2778 -0.4093
  157SAPE   C2417515   2.869   0.163   9.883 -0.1517 -0.0451 -0.5701
  157SAPE   H4R17516   2.766   0.158   9.842 -0.5648 -1.2374  0.5395
  157SAPE   H4S17517   2.908   0.066   9.919  2.5734  0.9963 -0.4898
  157SAPE   C2517518   2.971   0.202   9.790 -0.1905  0.1478 -0.2976
  157SAPE   H5R17519   3.040   0.271   9.841  0.6507 -0.8043 -0.1103
  157SAPE   C2617520   2.972   0.178   9.653 -0.3883  0.2507  0.2499
  157SAPE   H6R17521   3.061   0.215   9.600  0.8799 -1.6414  0.9542
  157SAPE   C2717522   2.872   0.107   9.567  1.1210 -0.4160  0.5875
  157SAPE   H7R17523   2.776   0.100   9.623  0.9380 -0.9902  0.2091
  157SAPE   H7S17524   2.896   0.002   9.543  0.6228 -0.1774 -1.0412
  157SAPE   C2817525   2.845   0.176   9.435 -0.1583  0.2738 -0.0359
  157SAPE   H8R17526   2.822   0.284   9.428 -1.4522  0.1732  1.9925
  157SAPE   C2917527   2.859   0.115   9.315 -0.1351  0.1126  0.4748
  157SAPE   H9R17528   2.827   0.169   9.225 -1.8346 -0.6034  0.6211
  157SAPE  C21017529   2.909  -0.030   9.289 -0.2277  0.5160  0.1981
  157SAPE  H10R17530   2.823  -0.098   9.309  0.6209 -1.2334 -1.7084
  157SAPE  H10S17531   2.982  -0.066   9.363 -1.6161 -0.9148  0.9445
  157SAPE  C21117532   2.957  -0.070   9.151  0.6792  0.4693  0.3445
  157SAPE  H11R17533   2.915  -0.018   9.064  0.0532  1.9526  1.4884
  157SAPE  C21217534   3.053  -0.166   9.127 -0.5204 -0.1365  0.7271
  157SAPE  H12R17535   3.047  -0.212   9.028  0.4729  0.3924  0.4087
  157SAPE  C21317536   3.142  -0.243   9.230  0.2909  0.4127  0.5585
  157SAPE  H13R17537   3.154  -0.349   9.198  0.6526  0.6135  0.0264
  157SAPE  H13S17538   3.075  -0.249   9.318 -0.4987  1.4944  0.0481
  157SAPE  C21417539   3.275  -0.179   9.264 -0.2854 -0.1507  0.6269
  157SAPE  H14R17540   3.332  -0.155   9.173 -0.3526 -1.2378  0.2768
  157SAPE  C21517541   3.332  -0.166   9.386 -0.0197 -0.1948 -0.2634
  157SAPE  H15R17542   3.440  -0.147   9.396 -0.2631  0.1566  2.2206
  157SAPE  C21617543   3.280  -0.185   9.527  0.0085  0.6257 -0.3843
  157SAPE  H16R17544   3.337  -0.268   9.575 -1.1066  0.6343  1.0032
  157SAPE  H16S17545   3.177  -0.222   9.509  0.4308  0.1680 -2.0117
  157SAPE  C21717546   3.289  -0.073   9.619  0.7367  0.4596  0.3397
  157SAPE  H17R17547   3.256   0.025   9.579  1.0871  0.5799  0.3380
  157SAPE  H17S17548   3.395  -0.046   9.637  1.0064 -0.3465  0.0134
  157SAPE  C21817549   3.217  -0.100   9.755  0.0684 -0.0167 -0.4955
  157SAPE  H18R17550   3.237  -0.204   9.788 -1.4986  0.1861  1.2652
  157SAPE  H18S17551   3.108  -0.082   9.746 -0.1211 -1.0788 -0.3758
  157SAPE  C21917552   3.267  -0.013   9.872 -0.6612  0.1739  0.7203
  157SAPE  H19R17553   3.185  -0.005   9.947 -0.0690 -0.3465  1.4378
  157SAPE  H19S17554   3.277   0.087   9.825 -0.9248 -0.7226 -1.3361
  157SAPE  C22017555   3.398  -0.056   9.934  0.8314 -0.7681 -0.0099
  157SAPE  H20R17556   3.475  -0.081   9.858  1.0548  0.8508 -0.3548
  157SAPE  H20S17557   3.376  -0.153   9.983 -1.5356  0.6012  1.8317
  157SAPE  H20T17558   3.424   0.018  10.012 -0.1562 -1.0727  0.6324
  157SAPE   C3317559   2.475   0.084  10.035  0.3294  0.3873  0.3203
  157SAPE   H3X17560   2.553   0.155  10.001  0.3683 -0.4829 -1.5808
  157SAPE   H3Y17561   2.412   0.140  10.108  3.5037  0.5835  3.1477
  157SAPE   C3417562   2.399   0.025   9.911 -0.2739 -0.2461  0.1033
  157SAPE   H4X17563   2.338   0.111   9.873  1.4677  0.6730 -0.7348
  157SAPE   H4Y17564   2.343  -0.066   9.939 -0.8476 -0.3327 -1.2279
  157SAPE   C3517565   2.487   0.003   9.786  0.0081 -0.2043 -0.7542
  157SAPE   H5X17566   2.590  -0.031   9.812  0.3329  2.5381  2.1764
  157SAPE   H5Y17567   2.485   0.097   9.727  3.6525  0.8480  0.5080
  157SAPE   C3617568   2.430  -0.111   9.697  0.1593 -0.2496 -0.1954
  157SAPE   H6X17569   2.320  -0.095   9.686 -0.3364 -0.9458  2.9240
  157SAPE   H6Y17570   2.440  -0.217   9.727  2.4611 -0.1932 -0.6282
  157SAPE   C3717571   2.489  -0.087   9.559 -0.1615  0.3840 -0.1872
  157SAPE   H7X17572   2.600  -0.091   9.571 -0.1319  1.6321  0.0367
  157SAPE   H7Y17573   2.464   0.018   9.535  0.0536  0.5859  0.4488
  157SAPE   C3817574   2.453  -0.190   9.446  0.1377 -0.6375  0.6512
  157SAPE   H8X17575   2.343  -0.186   9.433  0.1063 -1.8596  0.3452
  157SAPE   H8Y17576   2.460  -0.297   9.477  1.1102 -0.6539  0.4073
  157SAPE   C3917577   2.513  -0.147   9.316  0.4862  0.5086  0.3947
  157SAPE   H9X17578   2.619  -0.178   9.305  0.5244  1.1423 -1.2653
  157SAPE   H9Y17579   2.510  -0.036   9.313 -0.0390  0.4805 -0.2288
  157SAPE  C31017580   2.441  -0.219   9.206 -0.1148  0.1706 -0.4402
  157SAPE  H10X17581   2.341  -0.177   9.186  0.2905  0.7068 -1.3982
  157SAPE  H10Y17582   2.443  -0.328   9.232  2.6060 -0.4644 -2.8140
  157SAPE  C31117583   2.508  -0.195   9.078  0.1989  0.2183  1.4422
  157SAPE  H11X17584   2.616  -0.221   9.080  0.2858  0.1412 -0.8964
  157SAPE  H11Y17585   2.505  -0.088   9.049  0.6992  0.5992  2.7426
  157SAPE  C31217586   2.445  -0.270   8.950 -0.0005 -0.3239  0.6721
  157SAPE  H12X17587   2.337  -0.251   8.931 -0.1074 -1.1058  0.4626
  157SAPE  H12Y17588   2.442  -0.378   8.975  0.2417 -0.6383 -0.5665
  157SAPE  C31317589   2.513  -0.245   8.812  0.2223 -0.5289 -0.2887
  157SAPE  H13X17590   2.622  -0.261   8.824 -0.2690 -2.2831  3.0805
  157SAPE  H13Y17591   2.505  -0.137   8.789 -0.3107 -0.4883  0.0685
  157SAPE  C31417592   2.441  -0.329   8.706  1.2855 -0.5416  0.4700
  157SAPE  H14X17593   2.334  -0.304   8.722  1.9387  2.7014  0.5018
  157SAPE  H14Y17594   2.467  -0.436   8.720  0.4605 -0.8866 -0.4710
  157SAPE  C31517595   2.464  -0.294   8.560 -0.1784  0.3530 -0.4868
  157SAPE  H15X17596   2.389  -0.351   8.502  0.3485  0.1060 -0.9423
  157SAPE  H15Y17597   2.560  -0.342   8.530 -0.8041 -2.8710  2.0337
  157SAPE  C31617598   2.441  -0.151   8.521 -0.5336  0.3747 -0.0011
  157SAPE  H16X17599   2.496  -0.082   8.590 -1.2017  2.9226 -1.8668
  157SAPE  H16Y17600   2.332  -0.132   8.533 -1.1708 -3.2238  1.0076
  157SAPE  C31717601   2.504  -0.114   8.384 -0.1616 -0.4129 -0.2907
  157SAPE  H17X17602   2.610  -0.147   8.396 -0.0832 -0.1998 -0.3887
  157SAPE  H17Y17603   2.506  -0.003   8.374 -1.3122 -0.3178  0.3684
  157SAPE  C31817604   2.446  -0.182   8.263  0.1733  0.2307  0.2224
  157SAPE  H18X17605   2.337  -0.167   8.252  0.2588  0.3119 -0.5757
  157SAPE  H18Y17606   2.477  -0.289   8.258  3.2259  0.9532  1.2070
  157SAPE  H18Z17607   2.487  -0.144   8.167 -1.7266 -0.5497 -0.9624
  158SAPE     N17608   2.764   2.139  10.843  0.2816 -0.1738  0.2757
  158SAPE   HN117609   2.846   2.180  10.796  0.6906  1.3828  2.2212
  158SAPE   HN217610   2.754   2.203  10.924  1.9161  0.4347  0.0287
  158SAPE   HN317611   2.792   2.043  10.873  4.4185  1.0419  0.8830
  158SAPE   C1217612   2.653   2.161  10.742  0.1023  0.6329  0.1956
  158SAPE  H12A17613   2.637   2.269  10.723  2.8759  0.8357 -1.5770
  158SAPE  H12B17614   2.563   2.127  10.798 -0.0161  0.9614  0.2057
  158SAPE   C1117615   2.677   2.081  10.611 -0.6732 -0.2067 -0.2045
  158SAPE  H11A17616   2.777   2.112  10.573 -0.8829  0.3959 -0.2753
  158SAPE  H11B17617   2.591   2.103  10.544 -3.2711  0.5766  3.0942
  158SAPE     P17618   2.568   1.846  10.675 -0.2184  0.2191 -0.7751
  158SAPE   O1317619   2.605   1.702  10.671 -0.0672 -0.0446  0.1267
  158SAPE   O1417620   2.504   1.899  10.794  0.5269 -0.3814 -0.0605
  158SAPE   O1217621   2.689   1.941  10.632 -0.1027  0.2646 -0.1280
  158SAPE   O1117622   2.466   1.876  10.563 -1.0786 -0.0286 -0.1133
  158SAPE    C117623   2.432   1.809  10.448  0.7382 -0.2087 -1.0147
  158SAPE    HA17624   2.475   1.706  10.452  3.1823  0.7782  1.7006
  158SAPE    HB17625   2.321   1.802  10.455  0.7704  0.3383  0.3803
  158SAPE    C217626   2.478   1.883  10.322  0.0014  0.2720 -0.8954
  158SAPE    HS17627   2.456   1.992  10.332 -1.0397 -0.0823  1.2013
  158SAPE   O2117628   2.412   1.835  10.204  0.2540  0.6575 -0.0789
  158SAPE   C2117629   2.292   1.857  10.188  0.0778 -0.3894 -0.4316
  158SAPE   O2217630   2.224   1.940  10.255  0.1756 -0.1108  0.0147
  158SAPE   C2217631   2.232   1.764  10.076  0.0221 -0.3219 -0.6016
  158SAPE   H2R17632   2.321   1.715  10.030  0.3307  1.0042 -1.4605
  158SAPE   H2S17633   2.184   1.679  10.130  0.8152 -0.6337 -0.3699
  158SAPE    C317634   2.632   1.860  10.295  0.2937 -0.5501 -1.5171
  158SAPE    HX17635   2.647   1.751  10.280  2.4062 -0.1682 -2.7213
  158SAPE    HY17636   2.690   1.888  10.385 -2.4534 -0.3401  0.2777
  158SAPE   O3117637   2.683   1.936  10.184  0.0078  0.1653  0.0243
  158SAPE   C3117638   2.700   1.872  10.070 -0.3705 -0.2190  0.3828
  158SAPE   O3217639   2.657   1.764  10.036  0.7773  0.0649 -0.2001
  158SAPE   C3217640   2.769   1.965   9.969 -0.4910 -0.3983 -0.2125
  158SAPE   H2X17641   2.875   1.932   9.956 -0.6431 -1.2914  0.6975
  158SAPE   H2Y17642   2.771   2.068  10.012  0.5779 -0.9479  1.1225
  158SAPE   C2317643   2.148   1.850   9.979 -0.0798  0.0090 -0.0126
  158SAPE   H3R17644   2.065   1.893  10.038 -1.5243 -2.6004  0.0067
  158SAPE   H3S17645   2.098   1.788   9.901 -0.9863  0.8270 -0.0914
  158SAPE   C2417646   2.220   1.960   9.899 -0.1215  0.4033  0.5910
  158SAPE   H4R17647   2.283   2.023   9.965 -1.3311  3.5355 -1.0351
  158SAPE   H4S17648   2.148   2.029   9.850  0.1583  0.7643  0.6892
  158SAPE   C2517649   2.312   1.902   9.797 -0.0572  1.2098  0.4376
  158SAPE   H5R17650   2.419   1.882   9.807 -0.0408 -0.0378 -1.7302
  158SAPE   C2617651   2.260   1.856   9.681 -0.3008 -0.3757  0.4395
  158SAPE   H6R17652   2.325   1.821   9.599  1.3104  4.8984 -0.9233
  158SAPE   C2717653   2.120   1.869   9.630  0.6757 -0.0422  0.0216
  158SAPE   H7R17654   2.095   1.971   9.596 -0.9020 -0.1318  0.8184
  158SAPE   H7S17655   2.051   1.855   9.715  2.4729 -1.8917  1.2813
  158SAPE   C2817656   2.077   1.766   9.526  0.0499 -0.4127 -0.0835
  158SAPE   H8R17657   2.013   1.680   9.552 -1.5528  0.9897  0.7775
  158SAPE   C2917658   2.105   1.780   9.395  0.6696  0.3172 -0.3377
  158SAPE   H9R17659   2.091   1.695   9.327  1.5203 -2.1713  2.3645
  158SAPE  C21017660   2.189   1.884   9.327 -0.1032  0.5005 -0.5738
  158SAPE  H10R17661   2.289   1.849   9.294 -0.4770 -0.7166 -0.4608
  158SAPE  H10S17662   2.218   1.968   9.394  0.5045  0.9183 -1.3473
  158SAPE  C21117663   2.108   1.949   9.218  0.3462  0.2448 -0.2500
  158SAPE  H11R17664   1.999   1.961   9.223  0.5493  2.2525  0.1058
  158SAPE  C21217665   2.158   2.002   9.106 -0.2270 -0.7188 -0.4999
  158SAPE  H12R17666   2.096   2.053   9.031  2.5716 -1.7503 -3.7404
  158SAPE  C21317667   2.304   1.995   9.068 -0.5395 -0.1895 -0.3355
  158SAPE  H13R17668   2.334   1.898   9.023  1.2775  1.4612 -2.9427
  158SAPE  H13S17669   2.382   2.007   9.147 -0.6013 -0.9890 -0.1394
  158SAPE  C21417670   2.344   2.088   8.952  0.1755  0.2679 -0.4094
  158SAPE  H14R17671   2.358   2.188   8.995 -1.5613  0.4024 -0.0862
  158SAPE  C21517672   2.383   2.060   8.830 -0.4031 -0.4739 -0.0462
  158SAPE  H15R17673   2.416   2.138   8.761  2.2774 -0.7689  0.7755
  158SAPE  C21617674   2.392   1.926   8.765 -0.1462 -0.5645 -0.4956
  158SAPE  H16R17675   2.354   1.845   8.829 -0.6136 -1.6978 -2.1301
  158SAPE  H16S17676   2.498   1.903   8.743 -0.8440 -4.0326 -0.7042
  158SAPE  C21717677   2.319   1.914   8.633  0.5532  0.3203  0.0528
  158SAPE  H17R17678   2.337   2.006   8.575  2.0407  0.6459  0.9981
  158SAPE  H17S17679   2.214   1.885   8.658  0.4151  0.3740 -0.4403
  158SAPE  C21817680   2.364   1.796   8.544  0.5403 -0.1550  0.8315
  158SAPE  H18R17681   2.339   1.698   8.590 -1.6090  0.0219  0.1539
  158SAPE  H18S17682   2.473   1.800   8.524  0.1877  1.6778 -1.1298
  158SAPE  C21917683   2.293   1.805   8.409 -0.0296 -0.4736 -0.3306
  158SAPE  H19R17684   2.301   1.904   8.359  0.2155  2.0429  4.2227
  158SAPE  H19S17685   2.187   1.782   8.432 -0.2029  0.5089 -0.1183
  158SAPE  C22017686   2.352   1.697   8.320  0.7789  0.1671 -0.4370
  158SAPE  H20R17687   2.367   1.598   8.369  0.4634  0.7062  0.7636
  158SAPE  H20S17688   2.453   1.728   8.283  0.5351  0.1012 -1.1782
  158SAPE  H20T17689   2.288   1.690   8.229  0.3850 -0.4156 -0.1184
  158SAPE   C3317690   2.697   1.996   9.832 -0.2335 -0.0325  0.1463
  158SAPE   H3X17691   2.739   2.081   9.773 -0.3445  0.0797  0.2286
  158SAPE   H3Y17692   2.592   2.018   9.859 -0.2829 -1.7909  1.6011
  158SAPE   C3417693   2.703   1.879   9.742  0.1789 -0.0871 -0.1914
  158SAPE   H4X17694   2.644   1.791   9.778  0.5893 -0.3208 -0.0860
  158SAPE   H4Y17695   2.809   1.856   9.722  0.0809 -0.8276  0.0962
  158SAPE   C3517696   2.649   1.914   9.604  0.1259  0.1054  0.6445
  158SAPE   H5X17697   2.705   2.004   9.569 -1.5272  0.8055 -0.2856
  158SAPE   H5Y17698   2.544   1.942   9.626 -0.3856 -0.8222 -0.5012
  158SAPE   C3617699   2.665   1.790   9.513 -0.5460  0.3518 -0.8747
  158SAPE   H6X17700   2.608   1.701   9.548 -0.7266  1.1908  1.0489
  158SAPE   H6Y17701   2.775   1.772   9.506 -0.6095  0.1957 -1.5628
  158SAPE   C3717702   2.611   1.806   9.368  0.5753 -0.0261  0.4814
  158SAPE   H7X17703   2.651   1.898   9.321 -2.3638  0.6114 -0.9996
  158SAPE   H7Y17704   2.500   1.814   9.369  0.5969  0.4413 -0.0715
  158SAPE   C3817705   2.658   1.690   9.276 -0.4359 -0.0077 -0.3526
  158SAPE   H8X17706   2.611   1.604   9.328  1.2851  0.7963  2.7485
  158SAPE   H8Y17707   2.767   1.674   9.278 -0.4132  0.2323  1.5880
  158SAPE   C3917708   2.604   1.704   9.129  0.1889 -0.4200 -0.9214
  158SAPE   H9X17709   2.626   1.808   9.097  1.3412 -0.3423  0.0534
  158SAPE   H9Y17710   2.494   1.700   9.144  0.4772  0.2742  1.9549
  158SAPE  C31017711   2.660   1.595   9.037 -0.3998  0.0260 -0.3626
  158SAPE  H10X17712   2.628   1.501   9.086 -0.8094  0.6481  0.5971
  158SAPE  H10Y17713   2.769   1.610   9.028 -0.3869  0.1621  0.0276
  158SAPE  C31117714   2.601   1.609   8.899 -0.2972  0.4341  0.8719
  158SAPE  H11X17715   2.629   1.707   8.855  0.8597 -0.5950 -0.7596
  158SAPE  H11Y17716   2.490   1.607   8.910 -0.6262 -0.2720 -1.8998
  158SAPE  C31217717   2.638   1.488   8.806  0.3611  0.2335 -0.2254
  158SAPE  H12X17718   2.582   1.399   8.840  1.6831 -0.4337  0.2983
  158SAPE  H12Y17719   2.741   1.457   8.834 -0.8953 -5.1821 -0.6125
  158SAPE  C31317720   2.630   1.530   8.659 -0.1112  0.0282 -0.2523
  158SAPE  H13X17721   2.689   1.622   8.645  1.0448 -0.7454 -0.6102
  158SAPE  H13Y17722   2.522   1.548   8.641 -0.1873 -0.6726 -0.5667
  158SAPE  C31417723   2.688   1.420   8.563  0.4350  0.0901  1.1258
  158SAPE  H14X17724   2.652   1.328   8.614 -1.3027  0.5814  0.8724
  158SAPE  H14Y17725   2.798   1.408   8.569  0.2799 -1.6762  0.8985
  158SAPE  C31517726   2.640   1.446   8.418  0.2986  0.5551 -0.0817
  158SAPE  H15X17727   2.531   1.459   8.405  0.4949  2.5951 -0.0376
  158SAPE  H15Y17728   2.662   1.356   8.356  0.9413 -1.5890  2.9931
  158SAPE  C31617729   2.713   1.560   8.345  0.3881  0.7130 -0.0531
  158SAPE  H16X17730   2.822   1.555   8.362  0.5105 -0.0929 -0.9824
  158SAPE  H16Y17731   2.669   1.655   8.383 -1.7780 -1.3670  3.2006
  158SAPE  C31717732   2.679   1.541   8.195 -0.5503 -0.2856 -0.1749
  158SAPE  H17X17733   2.568   1.540   8.190 -0.7288  3.3358  0.5745
  158SAPE  H17Y17734   2.725   1.449   8.151 -0.5934 -0.1149 -0.5834
  158SAPE  C31817735   2.752   1.659   8.116  0.4726 -0.1293 -0.1432
  158SAPE  H18X17736   2.855   1.668   8.158 -0.1165 -1.0702  1.5641
  158SAPE  H18Y17737   2.712   1.763   8.118  2.5060  0.6933  1.0658
  158SAPE  H18Z17738   2.774   1.631   8.010  0.0964 -0.5111 -0.1200
  159SAPE     N17739   6.577   0.470   6.333  0.1565  0.7194  0.0230
  159SAPE   HN117740   6.541   0.568   6.330 -1.3163  0.2033  0.0300
  159SAPE   HN217741   6.539   0.424   6.248  0.5074  0.6362 -0.0897
  159SAPE   HN317742   6.543   0.424   6.420  2.2288  1.1614  1.1294
  159SAPE   C1217743   6.724   0.470   6.350  0.7817 -0.1929 -0.4476
  159SAPE  H12A17744   6.772   0.486   6.251  0.6915  2.6827 -0.1093
  159SAPE  H12B17745   6.746   0.373   6.400 -1.6935 -1.3106 -1.3530
  159SAPE   C1117746   6.780   0.583   6.441  0.3805 -0.1604 -0.7633
  159SAPE  H11A17747   6.888   0.555   6.441  0.9192  1.7453 -1.4998
  159SAPE  H11B17748   6.744   0.572   6.545  0.3615  0.5677 -0.6854
  159SAPE     P17749   6.835   0.833   6.455 -0.0213 -0.2033 -0.5381
  159SAPE   O1317750   6.980   0.823   6.454 -0.4093 -0.1528  0.1097
  159SAPE   O1417751   6.785   0.962   6.397 -0.1293  0.2396 -0.0199
  159SAPE   O1217752   6.761   0.713   6.383  0.7241 -0.3256  0.4784
  159SAPE   O1117753   6.787   0.817   6.606  0.2369  0.6530 -0.0261
  159SAPE    C117754   6.643   0.819   6.631 -0.4714  0.2715  0.1784
  159SAPE    HA17755   6.583   0.777   6.547  1.5181  1.5055 -1.9964
  159SAPE    HB17756   6.633   0.746   6.714  0.6853  0.5909  0.6258
  159SAPE    C217757   6.596   0.952   6.671 -0.2202 -0.2645  0.7468
  159SAPE    HS17758   6.632   1.029   6.600 -1.1562  0.9248  1.5200
  159SAPE   O2117759   6.646   0.992   6.795 -0.1320 -0.3155 -0.0358
  159SAPE   C2117760   6.708   1.116   6.810 -0.5331  0.4278 -0.1612
  159SAPE   O2217761   6.703   1.202   6.729 -0.0554  0.7758 -0.0651
  159SAPE   C2217762   6.735   1.134   6.958 -0.0061  0.8443 -0.1622
  159SAPE   H2R17763   6.706   1.035   6.997  2.2371 -0.4360 -1.5046
  159SAPE   H2S17764   6.844   1.142   6.980 -0.2932 -0.6423  2.0283
  159SAPE    C317765   6.443   0.965   6.679 -0.0315 -0.0873  0.1731
  159SAPE    HX17766   6.386   0.883   6.728  0.6052 -0.1075  0.9045
  159SAPE    HY17767   6.411   0.943   6.575 -1.1026 -2.2945  0.8994
  159SAPE   O3117768   6.400   1.099   6.727 -0.0145  0.2279  0.2855
  159SAPE   C3117769   6.391   1.189   6.632 -0.0948  0.7413 -1.0963
  159SAPE   O3217770   6.447   1.180   6.518  0.1374  0.1301  0.1401
  159SAPE   C3217771   6.301   1.309   6.675  0.0108 -0.1560  0.4878
  159SAPE   H2X17772   6.194   1.286   6.658  0.1440  1.2979 -3.4431
  159SAPE   H2Y17773   6.305   1.390   6.598  0.3605 -0.5100  0.1280
  159SAPE   C2317774   6.644   1.238   7.024  0.2488 -0.0459 -0.1260
  159SAPE   H3R17775   6.637   1.216   7.132  3.6327 -2.3303 -0.2126
  159SAPE   H3S17776   6.542   1.236   6.980  0.1467  2.0353 -0.0814
  159SAPE   C2417777   6.698   1.386   7.023 -0.2858  1.0890  0.3104
  159SAPE   H4R17778   6.630   1.440   7.091 -1.0767  0.5361 -0.0349
  159SAPE   H4S17779   6.685   1.412   6.916  0.0332  1.4490  0.3569
  159SAPE   C2517780   6.840   1.412   7.071  0.8716 -0.0888  0.6370
  159SAPE   H5R17781   6.910   1.454   6.998  1.2426  1.3381  1.7521
  159SAPE   C2617782   6.884   1.433   7.196  0.0500  0.4142  0.2232
  159SAPE   H6R17783   6.989   1.460   7.215  0.3881 -0.0389 -0.9448
  159SAPE   C2717784   6.797   1.404   7.316 -0.3241 -0.5102  0.1175
  159SAPE   H7R17785   6.867   1.356   7.388  2.5266  1.9596 -0.7695
  159SAPE   H7S17786   6.717   1.329   7.299  1.4177 -2.2569 -0.7338
  159SAPE   C2817787   6.739   1.535   7.379  0.2435  0.5078  0.4583
  159SAPE   H8R17788   6.696   1.593   7.296  0.9568 -0.6636 -0.7754
  159SAPE   C2917789   6.732   1.573   7.506  0.2566  0.1828  0.8364
  159SAPE   H9R17790   6.707   1.675   7.538  1.8437  0.8167  0.1583
  159SAPE  C21017791   6.776   1.498   7.624 -0.6166 -0.9222 -0.0672
  159SAPE  H10R17792   6.798   1.574   7.702  1.7124 -0.3304 -1.2021
  159SAPE  H10S17793   6.875   1.448   7.616  0.5386  1.2267  0.0694
  159SAPE  C21117794   6.682   1.388   7.664 -0.4761  0.0088  0.2258
  159SAPE  H11R17795   6.636   1.334   7.581 -1.1856 -0.8008  1.1135
  159SAPE  C21217796   6.629   1.371   7.790 -0.5520 -0.6215  0.5671
  159SAPE  H12R17797   6.547   1.302   7.813  0.6829 -2.3268  0.1280
  159SAPE  C21317798   6.671   1.458   7.901  0.7981  0.1061 -0.3457
  159SAPE  H13R17799   6.776   1.495   7.896  0.6006  0.4965 -3.4291
  159SAPE  H13S17800   6.655   1.400   7.995 -2.4426  1.0915 -0.1853
  159SAPE  C21417801   6.586   1.582   7.920  0.5633  0.3748 -0.5143
  159SAPE  H14R17802   6.608   1.663   7.849  0.2980  1.6272  0.7688
  159SAPE  C21517803   6.484   1.600   8.008 -0.4338 -0.5401  0.6499
  159SAPE  H15R17804   6.424   1.691   7.993  0.0819 -0.5010 -1.5659
  159SAPE  C21617805   6.436   1.507   8.111 -0.0466  0.0933  0.2374
  159SAPE  H16R17806   6.501   1.524   8.199  1.6321 -3.7787 -0.0240
  159SAPE  H16S17807   6.459   1.402   8.082 -1.5585  0.1292 -1.2668
  159SAPE  C21717808   6.293   1.534   8.141  1.2462  0.4282  0.4129
  159SAPE  H17R17809   6.229   1.516   8.051  1.0299 -0.6622  0.7654
  159SAPE  H17S17810   6.279   1.640   8.173  1.0354  0.3983  0.4250
  159SAPE  C21817811   6.236   1.439   8.249  0.0480  0.3944  0.0029
  159SAPE  H18R17812   6.292   1.444   8.344 -0.4452 -2.2541  0.5203
  159SAPE  H18S17813   6.240   1.333   8.216  0.1835 -0.3379  2.2200
  159SAPE  C21917814   6.094   1.467   8.290  0.2609 -0.0804 -0.1041
  159SAPE  H19R17815   6.016   1.467   8.211 -0.6680  0.1804  0.7951
  159SAPE  H19S17816   6.089   1.574   8.320  0.6405  0.1847 -0.9625
  159SAPE  C22017817   6.044   1.391   8.414  0.0657 -0.1827 -0.3853
  159SAPE  H20R17818   5.936   1.399   8.437 -0.1695  0.5170 -1.6271
  159SAPE  H20S17819   6.099   1.434   8.500 -0.6049 -0.9128  0.4252
  159SAPE  H20T17820   6.069   1.283   8.404 -0.8230 -0.2829 -1.8245
  159SAPE   C3317821   6.344   1.363   6.814 -0.6902 -0.4872  0.5078
  159SAPE   H3X17822   6.450   1.390   6.795 -1.6475  3.6294  0.0516
  159SAPE   H3Y17823   6.346   1.284   6.893  0.7810  0.8063  1.8385
  159SAPE   C3417824   6.265   1.478   6.869 -0.1298  0.7876  0.8255
  159SAPE   H4X17825   6.163   1.436   6.881  0.3482 -0.4726  0.6853
  159SAPE   H4Y17826   6.271   1.559   6.795 -1.5833  1.3070  1.2391
  159SAPE   C3517827   6.309   1.540   7.003 -0.0654  0.0572 -0.2458
  159SAPE   H5X17828   6.233   1.617   7.029  1.8676  2.2280 -0.7320
  159SAPE   H5Y17829   6.400   1.601   6.985  0.4476 -0.2965  1.0768
  159SAPE   C3617830   6.339   1.454   7.126  0.3380  0.3252  0.8843
  159SAPE   H6X17831   6.440   1.409   7.113 -1.3445 -3.5788 -0.2119
  159SAPE   H6Y17832   6.281   1.360   7.119  0.5438  0.3037 -1.0335
  159SAPE   C3717833   6.320   1.523   7.254  0.0738  0.2220 -0.3150
  159SAPE   H7X17834   6.221   1.572   7.255 -0.0711  0.1033 -2.7609
  159SAPE   H7Y17835   6.392   1.606   7.273 -2.7427  2.7380  0.1067
  159SAPE   C3817836   6.330   1.420   7.374 -0.3235  0.1673  0.1444
  159SAPE   H8X17837   6.428   1.371   7.358  1.3076  3.4445 -0.7313
  159SAPE   H8Y17838   6.239   1.358   7.362 -0.0157  0.0660 -2.0422
  159SAPE   C3917839   6.327   1.478   7.514  0.2589  0.8033  0.1774
  159SAPE   H9X17840   6.425   1.525   7.536  0.7212 -0.8501  1.9543
  159SAPE   H9Y17841   6.328   1.397   7.590 -1.0505  0.1473 -0.4526
  159SAPE  C31017842   6.198   1.564   7.540 -0.1721  0.0972  0.5625
  159SAPE  H10X17843   6.116   1.516   7.483 -0.3861  0.5145  0.5110
  159SAPE  H10Y17844   6.225   1.663   7.496  3.3509 -1.2503 -0.6679
  159SAPE  C31117845   6.164   1.567   7.693 -0.2369  0.6360 -0.1619
  159SAPE  H11X17846   6.245   1.615   7.751 -0.8046  2.6373 -0.9530
  159SAPE  H11Y17847   6.163   1.460   7.722  1.9522  0.1576 -1.6539
  159SAPE  C31217848   6.041   1.653   7.710 -0.4451  0.2902  0.9203
  159SAPE  H12X17849   5.968   1.608   7.639  1.0722  0.8580 -1.0858
  159SAPE  H12Y17850   6.065   1.756   7.676 -0.8047  1.2117  3.2943
  159SAPE  C31317851   5.989   1.662   7.847 -0.6008 -0.0101  0.2045
  159SAPE  H13X17852   6.074   1.711   7.897 -0.8211  0.0609  0.5114
  159SAPE  H13Y17853   5.971   1.563   7.894 -0.0962 -0.1107  0.1892
  159SAPE  C31417854   5.860   1.745   7.859 -0.3576  0.4402  0.2366
  159SAPE  H14X17855   5.790   1.730   7.775  0.5233  1.0129 -0.6259
  159SAPE  H14Y17856   5.890   1.851   7.847  0.6210 -0.0756 -2.3457
  159SAPE  C31517857   5.782   1.743   7.995 -0.0608 -0.0873 -0.4975
  159SAPE  H15X17858   5.741   1.640   8.006 -0.7704  0.1923 -0.4761
  159SAPE  H15Y17859   5.701   1.819   7.985 -0.1598 -0.2645 -1.1380
  159SAPE  C31617860   5.886   1.764   8.109  0.3106  0.1766  0.0683
  159SAPE  H16X17861   5.958   1.849   8.099 -0.4804  0.7957 -0.4765
  159SAPE  H16Y17862   5.954   1.676   8.115  1.4880  0.9852 -0.8128
  159SAPE  C31717863   5.802   1.791   8.238  0.3054 -0.2043 -0.3250
  159SAPE  H17X17864   5.717   1.720   8.229 -0.4524  0.6457  0.0166
  159SAPE  H17Y17865   5.766   1.896   8.227 -1.6383 -0.7532  0.4136
  159SAPE  C31817866   5.883   1.771   8.369  0.6753 -0.3701 -0.1511
  159SAPE  H18X17867   5.973   1.836   8.362  1.2828 -1.1850  0.0232
  159SAPE  H18Y17868   5.899   1.662   8.379 -4.1127 -1.2659  0.0827
  159SAPE  H18Z17869   5.818   1.804   8.453  0.9305  0.9771 -0.4479
  160SAPE     N17870   4.824   4.036   6.235  0.0528 -0.2299 -0.2784
  160SAPE   HN117871   4.847   4.079   6.144 -0.9550 -0.3548 -0.6060
  160SAPE   HN217872   4.859   3.938   6.234 -3.3844 -1.6170  0.5622
  160SAPE   HN317873   4.725   4.039   6.268  0.1991 -1.1472  0.2762
  160SAPE   C1217874   4.897   4.113   6.341 -0.0541 -0.6605 -0.4317
  160SAPE  H12A17875   4.838   4.113   6.435  1.3513 -1.2465  0.4825
  160SAPE  H12B17876   4.885   4.221   6.320 -0.6431 -1.1428 -2.9922
  160SAPE   C1117877   5.052   4.085   6.358  0.5633  0.1349 -1.1606
  160SAPE  H11A17878   5.090   4.166   6.424  1.1219  0.4745 -1.8837
  160SAPE  H11B17879   5.108   4.096   6.262  1.8689  0.4438 -0.3855
  160SAPE     P17880   5.092   3.831   6.322  0.1573  0.0052  0.3677
  160SAPE   O1317881   4.974   3.814   6.226 -0.0792  0.1779  0.2541
  160SAPE   O1417882   5.227   3.848   6.266 -0.3026  0.8243 -0.0858
  160SAPE   O1217883   5.071   3.953   6.418  0.0158  0.2139  0.1918
  160SAPE   O1117884   5.085   3.705   6.423 -0.1958 -0.1954  0.1143
  160SAPE    C117885   5.021   3.725   6.551 -0.7961 -0.9920  0.1927
  160SAPE    HA17886   5.080   3.783   6.625  0.8537 -2.5352  0.1633
  160SAPE    HB17887   4.921   3.772   6.537  0.2170  1.3520  0.4067
  160SAPE    C217888   4.996   3.590   6.626  0.0004 -0.5468  0.1662
  160SAPE    HS17889   4.935   3.610   6.716  1.2459  1.7510  0.5908
  160SAPE   O2117890   5.121   3.528   6.655 -0.0347 -0.4870  0.0462
  160SAPE   C2117891   5.201   3.576   6.748  0.6010  0.3178  0.1825
  160SAPE   O2217892   5.168   3.654   6.834  0.7105  0.2235  0.2454
  160SAPE   C2217893   5.348   3.535   6.727 -0.0525 -0.8972 -0.0161
  160SAPE   H2R17894   5.355   3.433   6.682 -1.8397 -0.8214 -0.5570
  160SAPE   H2S17895   5.398   3.610   6.663 -0.8457  0.8563  1.3424
  160SAPE    C317896   4.913   3.502   6.532 -0.0605 -0.2441  0.4122
  160SAPE    HX17897   4.978   3.491   6.443  2.2814  0.2821  1.9767
  160SAPE    HY17898   4.818   3.543   6.493  0.9815  0.6696 -1.2808
  160SAPE   O3117899   4.890   3.374   6.595  0.1528  0.2813 -0.4989
  160SAPE   C3117900   4.899   3.260   6.522 -0.3909 -0.2507  0.3711
  160SAPE   O3217901   4.938   3.264   6.404 -0.1614  0.3826  1.1184
  160SAPE   C3217902   4.868   3.142   6.603 -0.2575 -0.1582  0.1006
  160SAPE   H2X17903   4.896   3.057   6.537 -1.6393  0.1991 -0.9889
  160SAPE   H2Y17904   4.764   3.150   6.639  0.4204  1.0143  1.9561
  160SAPE   C2317905   5.425   3.538   6.865  0.0573  0.4529 -0.4609
  160SAPE   H3R17906   5.420   3.639   6.910  0.6579 -0.2104  1.1626
  160SAPE   H3S17907   5.533   3.526   6.840  0.0216  0.0929 -0.4579
  160SAPE   C2417908   5.385   3.435   6.965  0.3117 -0.7948 -0.2237
  160SAPE   H4R17909   5.278   3.412   6.944  0.1909  2.2001 -4.0602
  160SAPE   H4S17910   5.390   3.494   7.059 -0.9033  0.1624 -0.7208
  160SAPE   C2517911   5.462   3.309   6.962  0.3274 -0.2278 -0.5140
  160SAPE   H5R17912   5.484   3.268   6.862  2.7398 -1.3991  0.4019
  160SAPE   C2617913   5.517   3.245   7.065  0.2890  0.1711  0.2001
  160SAPE   H6R17914   5.577   3.155   7.048  0.1505  0.0851  0.1635
  160SAPE   C2717915   5.510   3.288   7.206  0.3626  0.0151 -0.6916
  160SAPE   H7R17916   5.402   3.293   7.231  0.6067 -1.0094  0.6763
  160SAPE   H7S17917   5.551   3.390   7.220 -1.5655  0.4448  2.7310
  160SAPE   C2817918   5.591   3.205   7.301  0.3644 -0.0107  0.1424
  160SAPE   H8R17919   5.697   3.187   7.279 -0.3731 -1.4535 -2.7259
  160SAPE   C2917920   5.540   3.180   7.421  0.5501  0.2859  0.0278
  160SAPE   H9R17921   5.600   3.127   7.496 -2.0309  0.1387  2.1175
  160SAPE  C21017922   5.404   3.231   7.465 -1.6232 -0.5178  0.7072
  160SAPE  H10R17923   5.324   3.189   7.400  0.8784  0.2217 -3.1733
  160SAPE  H10S17924   5.390   3.340   7.449  1.9476  0.3625  2.5502
  160SAPE  C21117925   5.379   3.172   7.602 -0.0512 -0.1690 -0.2042
  160SAPE  H11R17926   5.319   3.080   7.601  1.0006 -0.9366  1.4438
  160SAPE  C21217927   5.414   3.226   7.718 -0.3313  0.0966  0.4508
  160SAPE  H12R17928   5.391   3.170   7.809  1.8346 -0.4826  0.6933
  160SAPE  C21317929   5.497   3.347   7.743 -0.1707  0.0374  0.7455
  160SAPE  H13R17930   5.450   3.413   7.819  0.9739  0.8393  0.7775
  160SAPE  H13S17931   5.508   3.412   7.654 -1.9566 -3.3070 -2.1472
  160SAPE  C21417932   5.635   3.311   7.790 -0.3000  0.1677 -0.5071
  160SAPE  H14R17933   5.719   3.331   7.721  0.1127  1.1437  0.2625
  160SAPE  C21517934   5.679   3.284   7.912  0.1617  0.1215 -0.4178
  160SAPE  H15R17935   5.783   3.249   7.922 -0.0235 -0.4640 -0.5206
  160SAPE  C21617936   5.597   3.283   8.041 -0.3264 -0.4759 -0.4130
  160SAPE  H16R17937   5.631   3.202   8.110  0.8388 -0.8893 -1.4254
  160SAPE  H16S17938   5.490   3.266   8.020 -0.1204  1.1100 -3.0598
  160SAPE  C21717939   5.600   3.423   8.107 -0.4214 -1.1488  0.1029
  160SAPE  H17R17940   5.573   3.503   8.035 -3.0704 -1.2846  0.8497
  160SAPE  H17S17941   5.702   3.447   8.145 -1.1036 -0.6737  1.7331
  160SAPE  C21817942   5.506   3.426   8.229 -0.8631 -0.2370 -0.3940
  160SAPE  H18R17943   5.527   3.333   8.286 -0.9116 -1.2104 -1.8925
  160SAPE  H18S17944   5.407   3.418   8.179 -0.2572 -0.4524 -1.6060
  160SAPE  C21917945   5.518   3.549   8.322 -0.1552 -0.0082 -0.1474
  160SAPE  H19R17946   5.484   3.509   8.420 -0.7331 -1.8444 -1.0372
  160SAPE  H19S17947   5.445   3.626   8.290 -2.6888 -1.1475  2.4416
  160SAPE  C22017948   5.661   3.604   8.343 -0.0276 -0.1641  0.1681
  160SAPE  H20R17949   5.716   3.651   8.259  2.1088  0.2061  1.6708
  160SAPE  H20S17950   5.722   3.529   8.398  0.6347  1.4852  1.8142
  160SAPE  H20T17951   5.650   3.682   8.422  2.0200  0.5853 -0.2322
  160SAPE   C3317952   4.943   3.116   6.737 -0.0597 -1.0752 -0.3184
  160SAPE   H3X17953   5.052   3.134   6.726 -0.3506  3.3241  1.7772
  160SAPE   H3Y17954   4.914   3.016   6.773  0.4256 -1.1666 -0.1841
  160SAPE   C3417955   4.887   3.217   6.848 -0.0817  0.3408 -0.5991
  160SAPE   H4X17956   4.776   3.225   6.845 -0.1463  0.0360  0.5198
  160SAPE   H4Y17957   4.925   3.316   6.814 -0.2380  0.2049 -1.1990
  160SAPE   C3517958   4.934   3.171   6.979  0.0069 -0.4422 -0.7281
  160SAPE   H5X17959   5.027   3.110   6.967 -0.9244 -1.5620 -2.6845
  160SAPE   H5Y17960   4.869   3.104   7.039  0.2518  0.8304  1.0344
  160SAPE   C3617961   4.942   3.279   7.089 -0.1775  0.1698 -0.5611
  160SAPE   H6X17962   4.837   3.297   7.121 -0.0752  0.2949 -0.2877
  160SAPE   H6Y17963   4.974   3.369   7.032 -2.5353  1.7751  0.4684
  160SAPE   C3717964   5.021   3.244   7.218 -0.1527 -0.5624 -0.3593
  160SAPE   H7X17965   5.126   3.214   7.195  0.1148 -0.0807  0.2018
  160SAPE   H7Y17966   4.979   3.152   7.265  1.1258 -0.3345  1.3100
  160SAPE   C3817967   5.011   3.343   7.325 -0.4160 -1.2920 -0.4841
  160SAPE   H8X17968   4.918   3.403   7.314  0.0201 -0.5712 -0.3236
  160SAPE   H8Y17969   5.088   3.424   7.320 -2.8175  1.1880 -0.0602
  160SAPE   C3917970   5.013   3.282   7.467  0.3391 -0.2806  0.2854
  160SAPE   H9X17971   5.078   3.192   7.475 -1.2339 -1.2935  2.7236
  160SAPE   H9Y17972   4.913   3.238   7.488 -0.3464  0.3553 -1.4159
  160SAPE  C31017973   5.051   3.386   7.567 -0.0318  0.0333  0.6396
  160SAPE  H10X17974   4.989   3.476   7.551  2.2378  1.7056  0.7509
  160SAPE  H10Y17975   5.157   3.413   7.544  0.0753 -2.1559 -1.9690
  160SAPE  C31117976   5.050   3.339   7.711 -0.0628 -0.2092 -0.4116
  160SAPE  H11X17977   5.121   3.404   7.766  0.6894 -1.6222  0.3363
  160SAPE  H11Y17978   5.098   3.240   7.725 -0.6905 -0.3601  0.8133
  160SAPE  C31217979   4.911   3.350   7.785 -0.7484  0.3183 -0.6354
  160SAPE  H12X17980   4.852   3.266   7.744  2.3378 -2.7507  0.7475
  160SAPE  H12Y17981   4.865   3.449   7.763 -0.7383  0.4545 -0.0489
  160SAPE  C31317982   4.908   3.322   7.937  0.5328  0.5084  0.1559
  160SAPE  H13X17983   4.947   3.219   7.954 -3.4604 -1.3054 -0.5928
  160SAPE  H13Y17984   4.802   3.337   7.966  1.2365  0.1860  3.2124
  160SAPE  C31417985   4.996   3.422   8.011  0.3245 -0.0411  0.0988
  160SAPE  H14X17986   4.969   3.524   7.977  1.4653 -0.1854 -1.3090
  160SAPE  H14Y17987   5.096   3.403   7.967  1.1722 -2.5814  2.8117
  160SAPE  C31517988   4.998   3.412   8.164 -0.1054 -0.7066 -0.0085
  160SAPE  H15X17989   5.039   3.314   8.198  3.0506  1.0478  1.7336
  160SAPE  H15Y17990   4.900   3.441   8.206  0.5081 -0.5404  1.3652
  160SAPE  C31617991   5.098   3.519   8.220  0.7418 -0.6019 -0.8634
  160SAPE  H16X17992   5.058   3.620   8.201  0.6023  0.2705  3.2170
  160SAPE  H16Y17993   5.188   3.515   8.156  0.4516  1.2076 -1.4293
  160SAPE  C31717994   5.146   3.502   8.370  0.5834 -0.0626  0.3926
  160SAPE  H17X17995   5.234   3.569   8.383  1.4082 -1.3900  2.0281
  160SAPE  H17Y17996   5.180   3.398   8.386  0.0474 -0.1123  1.2650
  160SAPE  C31817997   5.039   3.522   8.473  0.0353  0.5837  0.3843
  160SAPE  H18X17998   5.069   3.488   8.575 -1.2731  2.3575  1.4267
  160SAPE  H18Y17999   4.945   3.470   8.444  1.2846 -0.7280 -1.5023
  160SAPE  H18Z18000   5.012   3.629   8.484  0.4046  0.7808 -0.6221
  161SAPE     N18001   6.585   5.988   6.370  0.3113 -0.4247  0.2356
  161SAPE   HN118002   6.574   6.047   6.455  1.1952 -1.8762  1.4036
  161SAPE   HN218003   6.521   5.907   6.359  0.2539 -0.1594 -1.6933
  161SAPE   HN318004   6.676   5.938   6.368 -0.5171 -2.0584 -3.1957
  161SAPE   C1218005   6.577   6.069   6.250  0.0878 -0.7766  0.5830
  161SAPE  H12A18006   6.589   6.177   6.276  0.4559 -0.7032  0.1257
  161SAPE  H12B18007   6.486   6.048   6.191  2.6448 -1.7696 -3.4733
  161SAPE   C1118008   6.700   6.025   6.163  0.3568 -0.0914 -0.4793
  161SAPE  H11A18009   6.703   6.078   6.065  0.4333  1.0936  0.1429
  161SAPE  H11B18010   6.685   5.922   6.125 -0.8494  0.7984 -2.5832
  161SAPE     P18011   6.913   5.927   6.284 -0.1504  0.1212 -0.2416
  161SAPE   O1318012   6.944   5.841   6.170  0.0081  0.2095 -0.0149
  161SAPE   O1418013   7.032   5.977   6.359 -0.3118 -0.4654  0.6572
  161SAPE   O1218014   6.827   6.046   6.228 -0.0260 -0.3495 -0.2351
  161SAPE   O1118015   6.816   5.857   6.387  0.0161  0.0791 -0.1992
  161SAPE    C118016   6.856   5.744   6.466 -0.6149 -0.5333  0.1311
  161SAPE    HA18017   6.797   5.651   6.450  0.1982 -0.9908 -0.3138
  161SAPE    HB18018   6.962   5.712   6.455 -0.7438 -1.0494  0.3372
  161SAPE    C218019   6.842   5.793   6.614 -1.0924  0.5276 -0.0257
  161SAPE    HS18020   6.893   5.711   6.669 -0.4472  1.1800  0.3693
  161SAPE   O2118021   6.704   5.799   6.643 -0.2652  0.2788 -0.2720
  161SAPE   C2118022   6.671   5.780   6.770  0.3281 -0.1704  0.7074
  161SAPE   O2218023   6.737   5.726   6.858 -0.5758  0.1984 -0.1888
  161SAPE   C2218024   6.529   5.848   6.797  0.4308  0.7880  0.4567
  161SAPE   H2R18025   6.497   5.880   6.696 -1.4557 -2.7069 -0.1878
  161SAPE   H2S18026   6.460   5.769   6.831 -0.9456  2.3285  1.3998
  161SAPE    C318027   6.920   5.921   6.648 -0.0281 -0.1878 -0.1128
  161SAPE    HX18028   6.875   6.006   6.592 -0.0129  1.0916  1.7147
  161SAPE    HY18029   7.023   5.917   6.606  0.3539 -0.0193  0.7837
  161SAPE   O3118030   6.905   5.967   6.783 -0.0779 -0.0232 -0.7399
  161SAPE   C3118031   6.990   5.906   6.865  0.7994 -0.1607  0.6877
  161SAPE   O3218032   7.071   5.834   6.820 -0.4390 -0.0748 -0.9815
  161SAPE   C3218033   6.957   5.941   7.014 -0.0228  0.0928  0.2228
  161SAPE   H2X18034   6.870   5.877   7.039 -2.1608  2.5423 -0.5434
  161SAPE   H2Y18035   6.915   6.043   7.014 -1.9805 -0.6375 -1.5408
  161SAPE   C2318036   6.536   5.954   6.910  0.6321 -0.3208 -0.3374
  161SAPE   H3R18037   6.477   6.040   6.872  0.5713 -0.1135  0.2108
  161SAPE   H3S18038   6.640   5.995   6.916  0.4249  0.1000  0.5605
  161SAPE   C2418039   6.479   5.914   7.047  0.4746 -0.4681  0.0371
  161SAPE   H4R18040   6.534   5.826   7.088 -1.6362 -0.9979  1.9490
  161SAPE   H4S18041   6.390   5.854   7.018  0.3791 -0.2901 -0.0391
  161SAPE   C2518042   6.434   6.017   7.145  0.3084 -1.1637 -0.7388
  161SAPE   H5R18043   6.326   6.031   7.163  0.6069  0.4255 -0.0170
  161SAPE   C2618044   6.527   6.092   7.211  0.2900 -0.3640  0.0906
  161SAPE   H6R18045   6.490   6.166   7.283 -2.4859 -0.3810 -1.1900
  161SAPE   C2718046   6.679   6.077   7.197 -0.0307 -0.1723  0.2825
  161SAPE   H7R18047   6.716   6.111   7.098  0.7115  0.5855  0.7999
  161SAPE   H7S18048   6.723   5.975   7.209  3.8662  1.2840 -0.1463
  161SAPE   C2818049   6.764   6.171   7.285  0.4729  0.1997  0.0763
  161SAPE   H8R18050   6.800   6.262   7.236 -1.1335  1.1632  0.5895
  161SAPE   C2918051   6.788   6.164   7.417 -0.6410 -0.8313  0.6013
  161SAPE   H9R18052   6.858   6.239   7.457  0.5559 -1.4033 -0.3765
  161SAPE  C21018053   6.730   6.065   7.514  0.6015  1.2254 -0.4804
  161SAPE  H10R18054   6.636   6.027   7.467  1.3481 -1.8276  0.2459
  161SAPE  H10S18055   6.706   6.123   7.605  0.2694 -0.2489  0.3983
  161SAPE  C21118056   6.823   5.943   7.537  0.0935  0.0473  0.6768
  161SAPE  H11R18057   6.866   5.906   7.442 -0.8939 -0.1111  0.2804
  161SAPE  C21218058   6.863   5.884   7.656  0.3867  0.1397  0.2342
  161SAPE  H12R18059   6.932   5.799   7.657 -0.1599 -0.3076  1.3785
  161SAPE  C21318060   6.827   5.924   7.795 -0.7997 -0.3141 -0.1268
  161SAPE  H13R18061   6.785   6.027   7.801 -0.5819 -0.2359  0.0486
  161SAPE  H13S18062   6.917   5.934   7.859 -1.1211 -2.5691  0.7680
  161SAPE  C21418063   6.739   5.826   7.867  0.5449 -0.7193 -0.0337
  161SAPE  H14R18064   6.709   5.739   7.807  1.7869 -0.8503 -0.4991
  161SAPE  C21518065   6.699   5.845   7.997 -0.1995  0.2114  0.6113
  161SAPE  H15R18066   6.621   5.776   8.033 -0.7587  0.6294  0.2269
  161SAPE  C21618067   6.741   5.961   8.076  0.0499 -0.2391  0.4975
  161SAPE  H16R18068   6.656   6.028   8.100 -1.0159 -0.6272 -1.9214
  161SAPE  H16S18069   6.794   6.038   8.017 -3.1157  0.9207 -1.0807
  161SAPE  C21718070   6.821   5.930   8.200 -0.0574  0.3428  0.0549
  161SAPE  H17R18071   6.843   6.026   8.251 -0.7712  1.1741 -1.1595
  161SAPE  H17S18072   6.921   5.887   8.175  1.0823  2.4647  0.7227
  161SAPE  C21818073   6.754   5.847   8.312  0.2145 -0.2560  0.9092
  161SAPE  H18R18074   6.728   5.745   8.274  0.8768  0.2245 -0.9525
  161SAPE  H18S18075   6.660   5.900   8.338  0.5240  1.3576 -1.0109
  161SAPE  C21918076   6.829   5.854   8.436  0.0055 -0.4176 -0.3975
  161SAPE  H19R18077   6.848   5.960   8.463  0.9155 -1.0955  1.8206
  161SAPE  H19S18078   6.935   5.826   8.418  0.3985  1.6515 -1.7584
  161SAPE  C22018079   6.760   5.789   8.558 -0.4087  0.2594  0.4631
  161SAPE  H20R18080   6.746   5.680   8.541  2.3901  0.0790 -1.3633
  161SAPE  H20S18081   6.656   5.828   8.571 -1.7630 -1.6332 -3.3639
  161SAPE  H20T18082   6.825   5.797   8.648 -1.6786 -2.7795  1.7733
  161SAPE   C3318083   7.076   5.909   7.113 -0.1471 -0.3674  0.3866
  161SAPE   H3X18084   7.136   5.819   7.087  0.2061 -0.0689  0.1557
  161SAPE   H3Y18085   7.032   5.892   7.214 -2.4366 -0.0299 -0.4958
  161SAPE   C3418086   7.169   6.029   7.131  0.0550  0.1416 -0.1884
  161SAPE   H4X18087   7.114   6.125   7.142  0.2412  0.1259  1.0743
  161SAPE   H4Y18088   7.228   6.046   7.038 -0.7297 -2.5787 -1.2836
  161SAPE   C3518089   7.274   6.011   7.251  0.9637  0.0756 -0.4272
  161SAPE   H5X18090   7.343   6.098   7.245 -0.1858  1.1843  1.3535
  161SAPE   H5Y18091   7.334   5.918   7.243  1.6729  0.1804  2.4578
  161SAPE   C3618092   7.203   5.998   7.390 -0.4366 -0.2223  0.0984
  161SAPE   H6X18093   7.175   5.893   7.410  2.7520 -1.2699 -0.3322
  161SAPE   H6Y18094   7.115   6.066   7.389 -0.4416 -0.2081  0.7691
  161SAPE   C3718095   7.310   6.025   7.508  0.1733 -0.2548 -0.6411
  161SAPE   H7X18096   7.353   6.127   7.503 -0.4174  0.2999  3.1951
  161SAPE   H7Y18097   7.397   5.963   7.476 -0.2910 -0.4288 -1.6128
  161SAPE   C3818098   7.266   5.994   7.657 -0.5739  0.4301  0.5573
  161SAPE   H8X18099   7.158   6.018   7.668 -1.1921 -1.9423  0.2556
  161SAPE   H8Y18100   7.320   6.071   7.716  1.2410 -0.2000 -0.2189
  161SAPE   C3918101   7.301   5.849   7.703 -0.2767 -0.2425  0.0280
  161SAPE   H9X18102   7.411   5.834   7.703 -0.4215 -1.4300  0.6047
  161SAPE   H9Y18103   7.249   5.773   7.641  0.2910 -2.0988  1.7067
  161SAPE  C31018104   7.253   5.818   7.844  0.5254 -0.1246  0.1237
  161SAPE  H10X18105   7.142   5.811   7.836  0.4493  1.5710 -0.7618
  161SAPE  H10Y18106   7.276   5.896   7.920 -0.6236  1.0132 -0.6627
  161SAPE  C31118107   7.293   5.684   7.896 -0.3787 -0.1455  1.3026
  161SAPE  H11X18108   7.401   5.671   7.870 -0.9091 -0.0217 -1.2986
  161SAPE  H11Y18109   7.253   5.608   7.826  0.5304  1.1335 -0.7232
  161SAPE  C31218110   7.258   5.652   8.039 -0.6028 -0.2453 -0.4061
  161SAPE  H12X18111   7.270   5.741   8.104 -2.1035  1.8737 -2.8492
  161SAPE  H12Y18112   7.333   5.575   8.067 -0.1664  0.7394  1.2660
  161SAPE  C31318113   7.115   5.604   8.055  0.0325  0.4524  0.2939
  161SAPE  H13X18114   7.091   5.539   7.968  0.6463 -0.6188  0.8981
  161SAPE  H13Y18115   7.060   5.700   8.049  0.4464  0.6869  0.1881
  161SAPE  C31418116   7.087   5.551   8.202  0.4695  0.4921 -0.2003
  161SAPE  H14X18117   7.130   5.449   8.216 -0.7212  0.2416  2.2300
  161SAPE  H14Y18118   6.977   5.551   8.219  0.7019  0.5680  1.4835
  161SAPE  C31518119   7.157   5.639   8.314  0.4821 -0.3867 -0.0865
  161SAPE  H15X18120   7.143   5.747   8.293  1.2745  0.2740  2.3596
  161SAPE  H15Y18121   7.264   5.611   8.310  0.4556 -0.4172 -0.5791
  161SAPE  C31618122   7.116   5.612   8.458 -0.3047  0.1000 -0.0648
  161SAPE  H16X18123   7.132   5.504   8.475 -1.0215  0.2375  1.7947
  161SAPE  H16Y18124   7.007   5.626   8.475 -0.6744 -1.2911 -1.1772
  161SAPE  C31718125   7.193   5.685   8.577  1.0784  0.3515  0.2716
  161SAPE  H17X18126   7.290   5.632   8.574  0.7855 -0.2254  0.6349
  161SAPE  H17Y18127   7.147   5.674   8.678  1.3126 -1.3254  0.2307
  161SAPE  C31818128   7.209   5.834   8.545 -0.6220 -0.0649  0.1322
  161SAPE  H18X18129   7.289   5.878   8.608  0.1972  1.4104 -1.8275
  161SAPE  H18Y18130   7.112   5.885   8.564  0.7570  2.5699  0.5562
  161SAPE  H18Z18131   7.246   5.858   8.443 -0.8171 -0.2364  0.0193
  162SAPE     N18132   5.980   2.976   6.350  0.2674 -1.0624 -0.2119
  162SAPE   HN118133   5.889   2.931   6.328 -1.2239  2.8670 -3.2977
  162SAPE   HN218134   6.023   2.946   6.440 -1.4509 -2.9831  0.0351
  162SAPE   HN318135   5.967   3.079   6.343 -2.1353 -1.3498 -0.5951
  162SAPE   C1218136   6.069   2.931   6.243  0.1080  0.1392 -0.5729
  162SAPE  H12A18137   6.019   2.971   6.152 -0.1536 -0.2313 -0.5949
  162SAPE  H12B18138   6.066   2.821   6.230 -3.1605  0.1229 -0.4910
  162SAPE   C1118139   6.207   2.977   6.273  0.3557  0.1020 -0.4070
  162SAPE  H11A18140   6.204   3.084   6.303  0.6522 -0.1564  0.5536
  162SAPE  H11B18141   6.268   2.965   6.181 -0.5262 -1.3660 -0.8455
  162SAPE     P18142   6.424   2.887   6.384 -0.0714 -0.5642  0.2624
  162SAPE   O1318143   6.454   2.742   6.367  0.2028 -0.3530  0.3655
  162SAPE   O1418144   6.477   2.982   6.284  0.2182 -0.3146  0.4451
  162SAPE   O1218145   6.261   2.898   6.385  0.1089 -0.0383  0.0394
  162SAPE   O1118146   6.473   2.936   6.521  0.5437  0.9412 -0.3908
  162SAPE    C118147   6.397   3.021   6.610  0.4005 -0.8491 -0.3062
  162SAPE    HA18148   6.315   3.073   6.555 -1.0689 -2.2564  0.4669
  162SAPE    HB18149   6.341   2.965   6.688 -0.4248 -1.2895 -1.1883
  162SAPE    C218150   6.493   3.125   6.675 -0.3074  0.5582  0.7713
  162SAPE    HS18151   6.550   3.175   6.594  1.1364  2.0127  2.6007
  162SAPE   O2118152   6.581   3.051   6.756 -0.2174 -0.1211 -0.3018
  162SAPE   C2118153   6.692   3.121   6.779  0.5773 -0.6815  0.0423
  162SAPE   O2218154   6.718   3.230   6.732 -0.1749  0.3514  0.1754
  162SAPE   C2218155   6.775   3.046   6.885  0.3021 -0.2074  0.5498
  162SAPE   H2R18156   6.732   2.945   6.903 -0.5734  0.3472  1.7459
  162SAPE   H2S18157   6.869   3.023   6.831 -0.4060  1.6798 -1.6552
  162SAPE    C318158   6.402   3.233   6.756 -0.0586  0.1353 -0.1181
  162SAPE    HX18159   6.327   3.275   6.685  0.3467  2.0192  0.5186
  162SAPE    HY18160   6.486   3.302   6.778  0.7527 -1.4125  1.8810
  162SAPE   O3118161   6.349   3.184   6.881 -0.5197 -0.3184 -0.5866
  162SAPE   C3118162   6.217   3.191   6.901  0.1202  0.3700  0.9713
  162SAPE   O3218163   6.137   3.242   6.821 -0.1057 -0.1036 -0.1769
  162SAPE   C3218164   6.180   3.127   7.031 -0.3069  0.1878  0.1918
  162SAPE   H2X18165   6.212   3.021   7.022 -0.7689 -0.1083  1.7779
  162SAPE   H2Y18166   6.069   3.127   7.037 -0.4690 -0.7615 -1.9005
  162SAPE   C2318167   6.800   3.124   7.012  0.1954  0.8776 -0.4872
  162SAPE   H3R18168   6.847   3.222   6.992  2.0620 -0.2171 -1.7282
  162SAPE   H3S18169   6.882   3.070   7.065 -0.8529 -0.5042 -0.2079
  162SAPE   C2418170   6.666   3.144   7.097 -0.0050  0.1805  0.1367
  162SAPE   H4R18171   6.597   3.210   7.039 -0.6185 -2.4899 -2.4538
  162SAPE   H4S18172   6.694   3.201   7.188 -0.4357  1.3074 -0.4013
  162SAPE   C2518173   6.593   3.019   7.140 -0.5872  0.4734  0.2601
  162SAPE   H5R18174   6.535   2.975   7.058  0.4999 -1.5054  0.4768
  162SAPE   C2618175   6.580   2.963   7.267  0.0252 -0.2482  0.8314
  162SAPE   H6R18176   6.521   2.871   7.276  1.4937 -1.2052  0.9754
  162SAPE   C2718177   6.633   3.008   7.398  0.5253 -0.1344  0.4041
  162SAPE   H7R18178   6.700   3.093   7.372 -0.8259  0.8029 -0.0884
  162SAPE   H7S18179   6.695   2.938   7.458  0.8333 -0.4127 -0.2310
  162SAPE   C2818180   6.505   3.055   7.466  0.9729 -0.4114 -0.0924
  162SAPE   H8R18181   6.450   3.138   7.420  1.5136  1.9035  3.0132
  162SAPE   C2918182   6.455   3.017   7.585 -0.3640  0.2097  0.5499
  162SAPE   H9R18183   6.356   3.060   7.608 -1.2637 -0.2506 -2.0518
  162SAPE  C21018184   6.513   2.909   7.674 -0.7545  0.1011  0.0589
  162SAPE  H10R18185   6.577   2.841   7.613 -1.3154 -0.3801 -0.0028
  162SAPE  H10S18186   6.432   2.859   7.732 -3.4866  0.0430 -3.4426
  162SAPE  C21118187   6.605   2.967   7.782 -0.4443  0.1936  0.7217
  162SAPE  H11R18188   6.700   3.007   7.743 -0.4561 -0.5724 -0.1115
  162SAPE  C21218189   6.587   2.962   7.917 -0.2956 -0.2181  0.3968
  162SAPE  H12R18190   6.644   3.032   7.980  1.2764  1.3348 -2.5449
  162SAPE  C21318191   6.477   2.903   7.993  0.6395 -0.0756 -0.1113
  162SAPE  H13R18192   6.424   2.826   7.932  0.5319  1.0378 -1.4660
  162SAPE  H13S18193   6.405   2.983   8.017  0.6830 -1.1647  4.5926
  162SAPE  C21418194   6.517   2.839   8.126 -0.1941  0.1431  0.7788
  162SAPE  H14R18195   6.626   2.834   8.143  0.3458 -0.3760 -2.1699
  162SAPE  C21518196   6.418   2.802   8.208  0.1043 -0.2807 -0.7866
  162SAPE  H15R18197   6.457   2.739   8.289  0.5514  1.6450  0.5649
  162SAPE  C21618198   6.270   2.816   8.192  0.8612 -0.3645 -0.1380
  162SAPE  H16R18199   6.240   2.873   8.102  1.6234  1.4519  0.7093
  162SAPE  H16S18200   6.225   2.865   8.282 -0.0445 -0.8608 -0.3055
  162SAPE  C21718201   6.184   2.690   8.171 -0.5025  0.1229 -0.2797
  162SAPE  H17R18202   6.219   2.644   8.076 -0.3983  2.1357 -1.2646
  162SAPE  H17S18203   6.079   2.723   8.157 -0.0265  0.6987 -3.0466
  162SAPE  C21818204   6.178   2.593   8.290  0.1522  0.0313  0.2490
  162SAPE  H18R18205   6.159   2.650   8.384 -0.4679  1.1113 -0.5183
  162SAPE  H18S18206   6.272   2.534   8.291 -0.0788 -0.4341 -1.7271
  162SAPE  C21918207   6.073   2.483   8.261 -0.1702 -0.4160 -0.1888
  162SAPE  H19R18208   6.076   2.456   8.153  1.7036  1.8339 -0.7962
  162SAPE  H19S18209   5.970   2.520   8.277 -0.2305 -1.7221  3.0819
  162SAPE  C22018210   6.092   2.351   8.334 -0.0965 -0.1638  0.3551
  162SAPE  H20R18211   6.062   2.373   8.438 -1.1227 -1.3874  0.3479
  162SAPE  H20S18212   6.194   2.306   8.329 -0.2516 -0.4144 -1.9960
  162SAPE  H20T18213   6.016   2.271   8.314 -3.1622  1.9870  2.5432
  162SAPE   C3318214   6.241   3.190   7.156 -0.8041  0.1422 -0.1362
  162SAPE   H3X18215   6.345   3.224   7.137 -1.4592  1.0302 -2.4940
  162SAPE   H3Y18216   6.252   3.110   7.232  0.9744 -1.9119 -2.3832
  162SAPE   C3418217   6.157   3.300   7.200 -0.1404  0.3159  0.1139
  162SAPE   H4X18218   6.052   3.266   7.211  0.0396  0.2202  1.7864
  162SAPE   H4Y18219   6.155   3.380   7.122 -0.9562  0.1866 -0.0093
  162SAPE   C3518220   6.199   3.371   7.331 -0.3487 -0.3228  0.4151
  162SAPE   H5X18221   6.158   3.474   7.327 -0.9965 -0.5958 -2.4448
  162SAPE   H5Y18222   6.309   3.385   7.327 -0.6507  2.7492  0.1361
  162SAPE   C3618223   6.151   3.302   7.459 -0.0785  0.4957 -0.6977
  162SAPE   H6X18224   6.177   3.195   7.441 -1.5875  0.5108 -3.5841
  162SAPE   H6Y18225   6.040   3.296   7.468  0.0672 -0.2396  0.9092
  162SAPE   C3718226   6.216   3.354   7.588  0.1794 -0.3427  0.5237
  162SAPE   H7X18227   6.208   3.463   7.608 -2.5521 -0.3022 -0.3991
  162SAPE   H7Y18228   6.326   3.337   7.594  1.0801  4.2684  1.0554
  162SAPE   C3818229   6.154   3.287   7.702  0.1042  0.7955 -0.1155
  162SAPE   H8X18230   6.183   3.180   7.694  1.7666  1.2948 -1.4098
  162SAPE   H8Y18231   6.043   3.290   7.700 -0.0411 -1.4985  1.3606
  162SAPE   C3918232   6.196   3.344   7.839 -0.0882  0.2212  0.3251
  162SAPE   H9X18233   6.159   3.448   7.827 -2.3322 -0.4099  1.2813
  162SAPE   H9Y18234   6.306   3.341   7.852  0.0643  1.1494 -0.6501
  162SAPE  C31018235   6.110   3.276   7.947  0.0787 -0.2487  0.2235
  162SAPE  H10X18236   6.142   3.170   7.939 -0.3345 -0.3566 -0.0342
  162SAPE  H10Y18237   6.001   3.277   7.928 -0.2053 -1.1796  1.6346
  162SAPE  C31118238   6.154   3.324   8.090  0.0283  0.2189 -0.1684
  162SAPE  H11X18239   6.094   3.411   8.124  0.3795 -0.3972  2.1941
  162SAPE  H11Y18240   6.263   3.346   8.091  0.3468 -1.2409 -0.3272
  162SAPE  C31218241   6.128   3.215   8.197 -0.0812  0.2133 -0.3791
  162SAPE  H12X18242   6.188   3.125   8.173  1.1526  0.7088  0.7097
  162SAPE  H12Y18243   6.019   3.196   8.190 -0.1324  0.4112 -0.1358
  162SAPE  C31318244   6.152   3.242   8.351  0.3591 -0.1624  0.0027
  162SAPE  H13X18245   6.131   3.142   8.396 -3.7066  0.2614 -0.5882
  162SAPE  H13Y18246   6.087   3.317   8.400 -0.6050 -1.1116  0.2414
  162SAPE  C31418247   6.294   3.283   8.386  0.6704 -0.4961  0.3944
  162SAPE  H14X18248   6.320   3.362   8.312 -0.4585  0.3433  0.8803
  162SAPE  H14Y18249   6.353   3.193   8.359  2.1293  0.6216 -0.3167
  162SAPE  C31518250   6.320   3.333   8.531 -0.2951 -0.4491 -0.2575
  162SAPE  H15X18251   6.268   3.273   8.609  1.8869 -1.8854  0.1818
  162SAPE  H15Y18252   6.280   3.437   8.534  1.3914  0.2724 -1.2320
  162SAPE  C31618253   6.466   3.345   8.577 -0.1156 -0.1536  0.6025
  162SAPE  H16X18254   6.521   3.394   8.493 -0.7070  0.2677  0.4558
  162SAPE  H16Y18255   6.502   3.242   8.596 -0.7668 -0.7004 -0.9802
  162SAPE  C31718256   6.475   3.428   8.704 -0.7833 -0.2340  0.1161
  162SAPE  H17X18257   6.400   3.392   8.778 -0.4049  1.4759  1.3903
  162SAPE  H17Y18258   6.452   3.533   8.676  2.7262  0.9224  0.9722
  162SAPE  C31818259   6.621   3.425   8.754 -0.1327 -0.0319 -0.1259
  162SAPE  H18X18260   6.701   3.452   8.681  1.2500  0.1885  1.4173
  162SAPE  H18Y18261   6.641   3.322   8.791 -0.7828 -0.3126 -0.5312
  162SAPE  H18Z18262   6.642   3.497   8.835  0.4809  1.3371 -1.4470
  163SAPE     N18263   6.409   1.119   6.263 -0.5583  0.1774 -0.5488
  163SAPE   HN118264   6.507   1.101   6.232 -0.9344  2.5523 -3.6188
  163SAPE   HN218265   6.366   1.181   6.192 -0.7297  1.0911  0.3339
  163SAPE   HN318266   6.403   1.167   6.355 -1.5000 -1.9914  0.6030
  163SAPE   C1218267   6.344   0.976   6.281 -0.5894 -0.4369  0.7281
  163SAPE  H12A18268   6.395   0.932   6.369 -2.1189  0.1014  1.9437
  163SAPE  H12B18269   6.370   0.912   6.194 -0.0812 -0.5203  0.9377
  163SAPE   C1118270   6.197   0.984   6.310 -0.2079 -0.8120 -0.2536
  163SAPE  H11A18271   6.150   0.883   6.301 -3.7696  0.7963 -1.4678
  163SAPE  H11B18272   6.159   1.041   6.223  0.0029 -0.4631 -0.1214
  163SAPE     P18273   6.046   1.003   6.521 -0.2957 -0.3162  0.0491
  163SAPE   O1318274   6.013   1.114   6.614  0.0220 -0.2142  0.7037
  163SAPE   O1418275   5.934   0.951   6.435 -0.2485 -0.0501  0.4114
  163SAPE   O1218276   6.169   1.049   6.432 -0.1935 -0.2752  0.0310
  163SAPE   O1118277   6.108   0.890   6.606  0.0227 -0.7861 -0.4547
  163SAPE    C118278   6.032   0.780   6.637  0.8455 -0.4924  0.1322
  163SAPE    HA18279   5.933   0.796   6.685 -0.0474  1.0805 -2.0592
  163SAPE    HB18280   6.006   0.727   6.543  0.3816  1.6992 -1.0529
  163SAPE    C218281   6.102   0.686   6.738  0.6504 -0.1482  0.2874
  163SAPE    HS18282   6.021   0.631   6.790  0.0210 -0.4626 -0.9922
  163SAPE   O2118283   6.168   0.777   6.831  0.4342  0.2619  0.8239
  163SAPE   C2118284   6.087   0.869   6.902 -0.0122 -0.3365  0.3328
  163SAPE   O2218285   5.969   0.861   6.913  0.1762 -0.3949 -0.4907
  163SAPE   C2218286   6.187   0.953   6.983  0.1021 -0.0999  0.2328
  163SAPE   H2R18287   6.263   1.001   6.917  0.8695 -0.9613  0.4771
  163SAPE   H2S18288   6.131   1.034   7.033  1.6026  2.3356 -1.7337
  163SAPE    C318289   6.202   0.594   6.663 -0.1445 -0.6402  0.7063
  163SAPE    HX18290   6.271   0.663   6.609  0.6498 -1.6734  0.3667
  163SAPE    HY18291   6.152   0.532   6.586 -0.7068  1.3984 -0.6694
  163SAPE   O3118292   6.282   0.515   6.748 -0.0490  0.3215  0.5169
  163SAPE   C3118293   6.411   0.508   6.720  0.8395  0.0165  0.0176
  163SAPE   O3218294   6.463   0.549   6.618 -0.0082  0.5656 -0.1040
  163SAPE   C3218295   6.479   0.444   6.834  0.0004 -0.1075 -0.3314
  163SAPE   H2X18296   6.590   0.437   6.821  0.1963 -0.6228  1.3964
  163SAPE   H2Y18297   6.433   0.346   6.856  1.5343 -1.3903 -2.4723
  163SAPE   C2318298   6.250   0.869   7.097 -0.9600 -0.7823 -0.4488
  163SAPE   H3R18299   6.292   0.778   7.049 -0.0928  0.6278 -2.5323
  163SAPE   H3S18300   6.178   0.830   7.172 -1.2696 -1.0932 -0.8988
  163SAPE   C2418301   6.371   0.941   7.154  0.7774  0.1557 -0.0337
  163SAPE   H4R18302   6.434   0.979   7.071 -2.1221  1.9750 -1.5874
  163SAPE   H4S18303   6.433   0.866   7.209  1.3451  0.3551 -0.4025
  163SAPE   C2518304   6.320   1.049   7.249 -0.6947 -0.7305  0.4588
  163SAPE   H5R18305   6.281   1.140   7.200  2.6298  0.5357 -0.0966
  163SAPE   C2618306   6.311   1.051   7.379 -0.0807 -0.7996 -0.0877
  163SAPE   H6R18307   6.255   1.134   7.425  0.0953 -0.0854 -1.1389
  163SAPE   C2718308   6.351   0.937   7.468 -0.4140 -0.0656  0.3878
  163SAPE   H7R18309   6.391   0.857   7.402 -0.8905 -1.0590  1.2616
  163SAPE   H7S18310   6.269   0.876   7.511  1.3186 -1.0754  2.4851
  163SAPE   C2818311   6.454   0.956   7.575 -0.2949 -0.4893  0.0634
  163SAPE   H8R18312   6.556   0.962   7.536 -0.3993 -1.0231 -0.2979
  163SAPE   C2918313   6.442   0.936   7.707  0.6786 -0.1379  1.1525
  163SAPE   H9R18314   6.525   0.971   7.770  0.9702  0.5564  0.4055
  163SAPE  C21018315   6.309   0.898   7.776 -0.2937  0.6634  0.0321
  163SAPE  H10R18316   6.331   0.877   7.883  1.1014  1.2138 -0.1223
  163SAPE  H10S18317   6.276   0.802   7.730 -3.4769  1.7257 -0.1006
  163SAPE  C21118318   6.193   0.996   7.760 -0.5147 -0.1171 -0.0191
  163SAPE  H11R18319   6.129   0.985   7.671 -1.8538 -0.3800  0.9494
  163SAPE  C21218320   6.171   1.108   7.837  0.0026  0.2566  0.5221
  163SAPE  H12R18321   6.085   1.173   7.816  0.3940  0.3516 -0.8772
  163SAPE  C21318322   6.226   1.171   7.957  0.4934  0.6429 -0.0143
  163SAPE  H13R18323   6.156   1.254   7.977 -1.2669 -1.0376  1.2612
  163SAPE  H13S18324   6.321   1.223   7.933 -0.3143  2.7158  1.1068
  163SAPE  C21418325   6.238   1.080   8.076 -0.6717  0.4779  0.2802
  163SAPE  H14R18326   6.143   1.045   8.120  0.5411 -2.1500  1.0165
  163SAPE  C21518327   6.344   1.023   8.131  0.3464  0.7346  0.1945
  163SAPE  H15R18328   6.329   0.949   8.211  2.0387 -0.4657 -0.5278
  163SAPE  C21618329   6.484   1.033   8.088  0.1860  0.5718  0.2025
  163SAPE  H16R18330   6.517   1.095   8.002  1.5291  0.6553  0.7492
  163SAPE  H16S18331   6.537   0.936   8.068  0.4907  0.8775 -0.5117
  163SAPE  C21718332   6.555   1.101   8.220  0.1449  0.0007  0.9075
  163SAPE  H17R18333   6.532   1.046   8.314 -0.7212 -0.5684  0.3802
  163SAPE  H17S18334   6.504   1.199   8.223 -1.2303 -0.4079 -3.1953
  163SAPE  C21818335   6.698   1.140   8.187  0.0235 -0.7506  0.7525
  163SAPE  H18R18336   6.702   1.204   8.096  0.1726 -1.3025  0.3696
  163SAPE  H18S18337   6.757   1.051   8.158 -0.4596 -1.6060  2.2745
  163SAPE  C21918338   6.776   1.215   8.296  0.6268 -0.3422 -0.4992
  163SAPE  H19R18339   6.876   1.239   8.255  1.3489 -0.6310  1.0582
  163SAPE  H19S18340   6.782   1.147   8.383  0.4035 -2.3769 -2.0122
  163SAPE  C22018341   6.710   1.347   8.340  0.3286  0.4639 -0.1555
  163SAPE  H20R18342   6.693   1.401   8.244  2.5104 -2.2993 -2.2855
  163SAPE  H20S18343   6.763   1.410   8.415  2.6412 -0.5752 -0.8193
  163SAPE  H20T18344   6.610   1.328   8.386  1.0318 -2.1532  0.4699
  163SAPE   C3318345   6.458   0.540   6.957 -0.2169  0.6223  0.2764
  163SAPE   H3X18346   6.352   0.572   6.971 -0.8472 -2.1544  2.8556
  163SAPE   H3Y18347   6.522   0.627   6.931  2.2337 -1.2234 -0.1898
  163SAPE   C3418348   6.505   0.474   7.090  0.3490 -0.3785 -0.0251
  163SAPE   H4X18349   6.616   0.479   7.102  0.3325  1.7708 -0.4692
  163SAPE   H4Y18350   6.479   0.366   7.100  0.2366 -0.3409  0.0736
  163SAPE   C3518351   6.445   0.545   7.217  0.7099  0.1199  0.1742
  163SAPE   H5X18352   6.334   0.540   7.212  0.6778  1.1393 -0.2614
  163SAPE   H5Y18353   6.471   0.652   7.206  0.6335  0.2579  1.2008
  163SAPE   C3618354   6.496   0.482   7.345  0.0987  0.1308  0.0360
  163SAPE   H6X18355   6.607   0.472   7.350  0.0452 -0.7627 -0.3834
  163SAPE   H6Y18356   6.447   0.383   7.340  1.1006 -0.3365 -4.0463
  163SAPE   C3718357   6.451   0.559   7.472  0.1858  0.2286  0.0938
  163SAPE   H7X18358   6.341   0.569   7.478  0.1438  0.7831 -1.3486
  163SAPE   H7Y18359   6.489   0.663   7.464  1.2103  0.0362  1.7934
  163SAPE   C3818360   6.516   0.501   7.597 -0.0813  0.3550  0.1546
  163SAPE   H8X18361   6.620   0.472   7.570 -1.1118 -3.0465 -0.6196
  163SAPE   H8Y18362   6.462   0.404   7.611 -1.8939  1.3587  0.3789
  163SAPE   C3918363   6.498   0.598   7.706 -0.2299  0.8990  0.4789
  163SAPE   H9X18364   6.392   0.627   7.721  0.2301  3.1647 -0.3189
  163SAPE   H9Y18365   6.564   0.686   7.691  0.4281  0.7374  2.1895
  163SAPE  C31018366   6.544   0.539   7.840 -0.0518  0.3194 -0.6598
  163SAPE  H10X18367   6.647   0.498   7.835 -0.1227 -0.0491  0.7147
  163SAPE  H10Y18368   6.480   0.459   7.880 -0.9971  0.9390 -0.8971
  163SAPE  C31118369   6.534   0.641   7.959 -0.3318 -1.0111 -0.1906
  163SAPE  H11X18370   6.434   0.691   7.957  0.3876  0.4607 -0.5339
  163SAPE  H11Y18371   6.611   0.720   7.950 -0.6087 -0.6691  0.3913
  163SAPE  C31218372   6.547   0.586   8.101 -0.1814  0.7052 -0.3619
  163SAPE  H12X18373   6.647   0.545   8.126  0.1035  1.3253 -0.4643
  163SAPE  H12Y18374   6.482   0.496   8.109  0.8471  0.0390  0.9602
  163SAPE  C31318375   6.511   0.688   8.206 -0.4628  0.2149  0.2595
  163SAPE  H13X18376   6.408   0.724   8.184 -0.6768 -1.2837 -1.4425
  163SAPE  H13Y18377   6.570   0.783   8.213 -0.3684  0.0347  2.3939
  163SAPE  C31418378   6.506   0.637   8.349  0.7703  0.3418  0.1392
  163SAPE  H14X18379   6.595   0.583   8.388  0.5415  0.3631  0.7028
  163SAPE  H14Y18380   6.427   0.560   8.339  0.4596  0.8279 -1.4135
  163SAPE  C31518381   6.465   0.739   8.457  0.2257  0.9522 -0.2517
  163SAPE  H15X18382   6.360   0.773   8.444  0.2639  2.4384  2.6680
  163SAPE  H15Y18383   6.536   0.824   8.442  0.3483  0.9721  0.4155
  163SAPE  C31618384   6.483   0.680   8.595 -0.0839 -0.0941  0.8642
  163SAPE  H16X18385   6.446   0.575   8.598 -1.7045  0.3565 -0.7940
  163SAPE  H16Y18386   6.423   0.747   8.660 -0.4979  0.6681 -0.2747
  163SAPE  C31718387   6.627   0.705   8.652  0.3332  0.9948 -0.3003
  163SAPE  H17X18388   6.649   0.814   8.645 -1.5200  1.9779  4.7041
  163SAPE  H17Y18389   6.712   0.665   8.594  2.2697  4.1749  0.0627
  163SAPE  C31818390   6.642   0.660   8.797  0.6397  0.1074 -0.2485
  163SAPE  H18X18391   6.627   0.550   8.804  1.2050 -0.4062 -4.3352
  163SAPE  H18Y18392   6.576   0.704   8.874  0.0897 -0.8668 -0.1548
  163SAPE  H18Z18393   6.738   0.694   8.842 -0.8672  4.0491  0.4311
  164SAPE     N18394   2.881   2.562   5.791 -0.4565 -0.4891 -0.2680
  164SAPE   HN118395   2.972   2.564   5.842 -0.4919 -0.1314 -0.2230
  164SAPE   HN218396   2.882   2.476   5.732 -2.5982 -0.5848 -0.2282
  164SAPE   HN318397   2.875   2.651   5.739 -3.4038 -0.6726 -0.4125
  164SAPE   C1218398   2.766   2.556   5.891 -0.0723  1.0400  0.3069
  164SAPE  H12A18399   2.676   2.510   5.845 -0.6357  1.0131  1.4034
  164SAPE  H12B18400   2.731   2.657   5.919 -1.3863  0.6110  0.2641
  164SAPE   C1118401   2.811   2.473   6.014 -0.6771 -0.2473  0.2758
  164SAPE  H11A18402   2.718   2.449   6.070  0.2185 -1.2931  1.3757
  164SAPE  H11B18403   2.887   2.528   6.074 -1.0096  0.9202 -0.3293
  164SAPE     P18404   3.007   2.306   5.987 -0.1269  0.2986 -0.1318
  164SAPE   O1318405   3.013   2.165   5.968 -0.3961  0.1742  0.1375
  164SAPE   O1418406   3.086   2.386   5.886  0.0376  0.1168 -0.1304
  164SAPE   O1218407   2.852   2.344   5.973 -0.1622 -0.5490  0.1017
  164SAPE   O1118408   3.035   2.348   6.139 -0.9677  0.1529  0.0470
  164SAPE    C118409   3.047   2.262   6.250 -0.2722  0.7250 -0.1306
  164SAPE    HA18410   3.119   2.178   6.242 -0.3006  0.5425  1.3635
  164SAPE    HB18411   3.059   2.319   6.344 -0.9169  1.5574 -0.5402
  164SAPE    C218412   2.917   2.186   6.276 -1.0301 -0.2906  0.1382
  164SAPE    HS18413   2.900   2.127   6.183  0.9904 -1.9892  0.7670
  164SAPE   O2118414   2.809   2.269   6.305 -0.1412 -0.2493  0.3591
  164SAPE   C2118415   2.683   2.220   6.293  0.1833  0.1459  0.1958
  164SAPE   O2218416   2.658   2.107   6.259 -0.5516  0.1323 -0.4687
  164SAPE   C2218417   2.570   2.318   6.337  0.0992 -0.1031 -0.4675
  164SAPE   H2R18418   2.605   2.423   6.328 -0.8964  0.4642  1.6876
  164SAPE   H2S18419   2.484   2.310   6.267 -0.5158 -1.0343  0.3640
  164SAPE    C318420   2.933   2.069   6.376 -0.3334 -0.1759 -0.4193
  164SAPE    HX18421   3.018   2.002   6.351  1.3048  1.3645  0.7184
  164SAPE    HY18422   2.834   2.018   6.374 -0.3662 -0.3618  2.2317
  164SAPE   O3118423   2.955   2.118   6.506 -0.3511 -0.2120 -0.1266
  164SAPE   C3118424   2.965   2.025   6.601 -0.3303  0.2289  0.0183
  164SAPE   O3218425   2.963   1.904   6.583  0.3020 -0.4524 -0.8327
  164SAPE   C3218426   2.987   2.100   6.735 -0.1061 -0.6247 -0.5134
  164SAPE   H2X18427   2.894   2.160   6.748 -0.5938 -1.8814  2.6459
  164SAPE   H2Y18428   3.071   2.171   6.719  0.3655 -0.6942  1.4447
  164SAPE   C2318429   2.532   2.284   6.488  0.4643  1.3118 -0.3246
  164SAPE   H3R18430   2.500   2.178   6.486 -0.3817  1.5565 -1.8280
  164SAPE   H3S18431   2.442   2.349   6.502  1.4195  3.0403 -1.7618
  164SAPE   C2418432   2.644   2.312   6.587 -0.2307 -0.1471  0.1909
  164SAPE   H4R18433   2.677   2.416   6.565  0.4059 -0.6105 -1.1243
  164SAPE   H4S18434   2.719   2.232   6.571 -0.2903 -0.4599  1.3678
  164SAPE   C2518435   2.600   2.290   6.730  0.0093 -0.2228 -0.2363
  164SAPE   H5R18436   2.543   2.198   6.749  0.5204 -0.7936 -1.4107
  164SAPE   C2618437   2.612   2.373   6.834  0.1560  0.4935 -0.0224
  164SAPE   H6R18438   2.574   2.339   6.932  0.4722  2.9030  1.0044
  164SAPE   C2718439   2.681   2.502   6.835  0.8301  0.4359 -0.2626
  164SAPE   H7R18440   2.627   2.571   6.904  1.2281 -0.4195  0.9280
  164SAPE   H7S18441   2.678   2.560   6.740  0.0795  1.1213  0.1634
  164SAPE   C2818442   2.825   2.479   6.885 -0.7080  0.9471 -0.0971
  164SAPE   H8R18443   2.892   2.418   6.822 -0.1969  0.7638  0.6070
  164SAPE   C2918444   2.874   2.519   7.003 -0.1196  0.5067  0.6482
  164SAPE   H9R18445   2.981   2.505   7.023  0.0649 -1.2820 -1.2607
  164SAPE  C21018446   2.793   2.589   7.111  0.4178 -0.3223  0.1037
  164SAPE  H10R18447   2.841   2.564   7.208 -0.4642  1.4077  1.0338
  164SAPE  H10S18448   2.700   2.529   7.119  0.9873 -1.3490 -0.6602
  164SAPE  C21118449   2.767   2.738   7.092  0.0263  0.1196  0.0376
  164SAPE  H11R18450   2.767   2.781   6.990  0.8181  3.3973  1.2935
  164SAPE  C21218451   2.765   2.827   7.194  0.1680 -0.4067  0.0217
  164SAPE  H12R18452   2.750   2.933   7.171  1.8658 -0.0652  0.3546
  164SAPE  C21318453   2.771   2.783   7.342 -0.4318 -0.7429 -0.3131
  164SAPE  H13R18454   2.878   2.777   7.368 -0.2923 -1.0429 -0.9248
  164SAPE  H13S18455   2.724   2.683   7.357 -0.2286 -0.7194  0.5225
  164SAPE  C21418456   2.706   2.877   7.438 -0.1353 -0.1175  0.2713
  164SAPE  H14R18457   2.603   2.852   7.469  0.8394 -3.5361  1.2656
  164SAPE  C21518458   2.766   2.968   7.510 -0.5552 -0.2390  0.5739
  164SAPE  H15R18459   2.703   3.024   7.581  1.4277  2.7029  0.2141
  164SAPE  C21618460   2.913   3.005   7.502  0.5445 -0.6148 -0.4109
  164SAPE  H16R18461   2.933   3.109   7.466  0.2441 -0.3638  0.1390
  164SAPE  H16S18462   2.962   2.950   7.419 -0.9163 -1.3163 -0.8409
  164SAPE  C21718463   2.991   2.980   7.634 -0.0536 -0.2293  0.6584
  164SAPE  H17R18464   2.951   3.037   7.720  2.7086  0.1441  1.8144
  164SAPE  H17S18465   3.089   3.027   7.613 -0.8976  2.2213  1.8282
  164SAPE  C21818466   2.993   2.826   7.660  1.3698  0.2097 -0.0497
  164SAPE  H18R18467   3.033   2.766   7.575  1.4447 -0.0912  0.1918
  164SAPE  H18S18468   2.886   2.795   7.663  1.8934 -2.0045 -1.8147
  164SAPE  C21918469   3.055   2.788   7.791 -0.3076 -0.2019  0.3055
  164SAPE  H19R18470   3.156   2.835   7.792  0.7911 -2.4445  0.8017
  164SAPE  H19S18471   3.061   2.678   7.797 -0.7602 -0.1599  2.0554
  164SAPE  C22018472   2.984   2.829   7.923 -0.1041  0.2383 -0.3441
  164SAPE  H20R18473   3.044   2.829   8.017 -1.0584  0.0644  0.2770
  164SAPE  H20S18474   2.891   2.772   7.943  0.7188 -1.7265 -1.7589
  164SAPE  H20T18475   2.952   2.935   7.911  0.1174 -0.0184 -4.7767
  164SAPE   C3318476   3.030   2.023   6.862  0.5039  0.1434  0.2530
  164SAPE   H3X18477   3.121   1.961   6.848  0.1114 -1.6103  4.1620
  164SAPE   H3Y18478   2.947   1.951   6.880 -0.2002  1.4814  2.8909
  164SAPE   C3418479   3.034   2.120   6.979  0.1749 -0.0552 -0.1512
  164SAPE   H4X18480   3.005   2.221   6.944 -0.2606  0.4730  1.6391
  164SAPE   H4Y18481   3.140   2.132   7.011 -0.1445 -0.6506  1.1981
  164SAPE   C3518482   2.948   2.098   7.106  0.3464 -0.0788 -0.1758
  164SAPE   H5X18483   2.960   1.996   7.150  0.7606  0.7739  1.8172
  164SAPE   H5Y18484   2.843   2.113   7.074 -0.3942 -1.9437  1.1710
  164SAPE   C3618485   2.987   2.202   7.216 -0.3072  0.0592  0.5319
  164SAPE   H6X18486   2.981   2.305   7.176 -0.3014  0.1236  0.6972
  164SAPE   H6Y18487   3.093   2.182   7.241 -0.0731  0.5547 -0.0400
  164SAPE   C3718488   2.908   2.196   7.343  0.1292 -0.1309  0.4751
  164SAPE   H7X18489   2.917   2.098   7.395  0.8687 -0.3932 -0.1370
  164SAPE   H7Y18490   2.801   2.209   7.317  1.0083  1.2668 -2.9360
  164SAPE   C3818491   2.948   2.295   7.457 -0.1217  0.4286  0.2330
  164SAPE   H8X18492   2.940   2.400   7.420 -2.0772  0.1392 -0.2499
  164SAPE   H8Y18493   3.054   2.265   7.475 -0.0849 -0.4826 -1.2761
  164SAPE   C3918494   2.861   2.278   7.583  0.1786 -0.2717 -0.1317
  164SAPE   H9X18495   2.875   2.179   7.633  1.8085  0.0739  0.1658
  164SAPE   H9Y18496   2.752   2.284   7.566 -0.5346 -3.4133  2.2837
  164SAPE  C31018497   2.896   2.386   7.692 -0.2248  0.0966 -0.2218
  164SAPE  H10X18498   2.883   2.486   7.645 -0.2271  1.2909  2.1386
  164SAPE  H10Y18499   3.002   2.368   7.721 -0.2585  0.8021  0.3652
  164SAPE  C31118500   2.806   2.382   7.818  0.3063 -0.1066 -0.0939
  164SAPE  H11X18501   2.842   2.291   7.871  0.0604 -0.8043 -1.0968
  164SAPE  H11Y18502   2.701   2.365   7.786  0.1426 -0.5562  0.6366
  164SAPE  C31218503   2.811   2.508   7.909 -0.1655  0.2042 -0.1877
  164SAPE  H12X18504   2.806   2.592   7.837 -1.1567 -0.0344 -0.4209
  164SAPE  H12Y18505   2.907   2.523   7.962  0.5760 -0.2425 -1.3588
  164SAPE  C31318506   2.697   2.513   8.008  0.3060 -0.4505  0.0708
  164SAPE  H13X18507   2.612   2.455   7.966 -1.1485 -0.3512  2.6940
  164SAPE  H13Y18508   2.666   2.616   8.035 -1.9626 -0.5265 -1.8720
  164SAPE  C31418509   2.742   2.442   8.136 -0.0778  0.5461  0.9577
  164SAPE  H14X18510   2.841   2.474   8.174 -0.1156 -1.1347  2.6172
  164SAPE  H14Y18511   2.764   2.336   8.110  1.1827  0.5339  2.0255
  164SAPE  C31518512   2.648   2.460   8.251  0.6273 -0.2287  0.1833
  164SAPE  H15X18513   2.630   2.569   8.266  2.0593 -0.0095  0.4475
  164SAPE  H15Y18514   2.694   2.412   8.339 -2.0404 -0.5708  1.4757
  164SAPE  C31618515   2.520   2.394   8.226 -0.4855  0.3578 -0.0819
  164SAPE  H16X18516   2.534   2.285   8.215 -0.7876  0.1599  1.3552
  164SAPE  H16Y18517   2.475   2.436   8.133  0.2674 -0.1152 -0.6672
  164SAPE  C31718518   2.422   2.425   8.345 -0.0704  0.6086  0.0819
  164SAPE  H17X18519   2.410   2.535   8.345 -0.6578  0.7195 -3.9830
  164SAPE  H17Y18520   2.488   2.405   8.432 -0.1030  2.5061  0.5856
  164SAPE  C31818521   2.302   2.340   8.373 -1.2078 -0.3763  0.3406
  164SAPE  H18X18522   2.345   2.237   8.375 -0.1884 -0.0816 -2.2279
  164SAPE  H18Y18523   2.232   2.340   8.287  0.9954 -1.6156 -1.5973
  164SAPE  H18Z18524   2.251   2.354   8.470 -0.9084  1.4559  0.2823
  165SAPE     N18525   2.154   6.723   6.168  0.1968 -0.4868  0.4426
  165SAPE   HN118526   2.239   6.752   6.116 -1.5682  1.3366 -1.6693
  165SAPE   HN218527   2.130   6.790   6.243 -1.2617  1.4693 -1.6129
  165SAPE   HN318528   2.166   6.628   6.208  2.8099 -0.6642 -0.5813
  165SAPE   C1218529   2.041   6.722   6.062 -0.3426 -0.3797 -0.1720
  165SAPE  H12A18530   2.090   6.724   5.963  2.4224 -4.1592  0.8755
  165SAPE  H12B18531   1.988   6.819   6.072 -0.1633 -0.3334  0.4193
  165SAPE   C1118532   1.951   6.605   6.083 -0.7204  0.1042  0.0874
  165SAPE  H11A18533   2.008   6.511   6.067 -0.0023  0.6232 -0.4540
  165SAPE  H11B18534   1.876   6.631   6.005  2.5173  3.5864 -2.2273
  165SAPE     P18535   1.784   6.529   6.268 -0.1155  0.2033 -0.3707
  165SAPE   O1318536   1.660   6.557   6.188  0.0916 -0.2861 -0.6262
  165SAPE   O1418537   1.836   6.390   6.273  0.5153  0.7197  0.4329
  165SAPE   O1218538   1.902   6.615   6.218  0.1840  0.0752 -0.5151
  165SAPE   O1118539   1.769   6.585   6.416  0.4986 -0.1808 -0.2607
  165SAPE    C118540   1.844   6.533   6.525  0.2910  0.0856  0.7110
  165SAPE    HA18541   1.773   6.518   6.609  0.9335 -0.7043  1.1332
  165SAPE    HB18542   1.894   6.435   6.507  0.4064  0.1420  0.7215
  165SAPE    C218543   1.961   6.626   6.573 -0.3016 -1.2208 -0.2701
  165SAPE    HS18544   2.022   6.631   6.480 -1.0300 -0.5722 -0.7239
  165SAPE   O2118545   2.029   6.556   6.678 -0.4200 -0.4715  0.0012
  165SAPE   C2118546   2.149   6.594   6.699 -0.3413 -0.3701  0.7048
  165SAPE   O2218547   2.216   6.678   6.636  0.1273  0.4653 -0.3748
  165SAPE   C2218548   2.215   6.503   6.809  0.0511  0.0411  0.4329
  165SAPE   H2R18549   2.150   6.417   6.837  2.3015 -1.3975  1.5256
  165SAPE   H2S18550   2.294   6.441   6.762  0.1300 -1.1351  2.0691
  165SAPE    C318551   1.902   6.768   6.621 -0.2571  0.3209 -0.8418
  165SAPE    HX18552   1.852   6.836   6.549  0.2060  1.2940 -0.2689
  165SAPE    HY18553   1.990   6.825   6.659 -0.4316 -0.8585  1.5255
  165SAPE   O3118554   1.819   6.740   6.734 -0.0903  0.2968  1.2852
  165SAPE   C3118555   1.683   6.757   6.711  0.5795 -1.2049 -0.4407
  165SAPE   O3218556   1.633   6.794   6.606  1.0572 -0.0067 -0.5094
  165SAPE   C3218557   1.605   6.727   6.836 -0.1697 -0.3282  0.6213
  165SAPE   H2X18558   1.645   6.793   6.916 -0.4856 -1.9283  2.1494
  165SAPE   H2Y18559   1.611   6.618   6.855 -2.2595 -0.6657 -0.3785
  165SAPE   C2318560   2.280   6.577   6.926 -0.0574 -0.6152 -0.1335
  165SAPE   H3R18561   2.190   6.625   6.970  0.6212  0.9465 -0.3678
  165SAPE   H3S18562   2.350   6.653   6.884  0.0083 -0.8907 -0.5220
  165SAPE   C2418563   2.350   6.484   7.023 -0.3147 -1.0346 -0.5844
  165SAPE   H4R18564   2.418   6.413   6.973 -1.2503 -2.2834 -0.1445
  165SAPE   H4S18565   2.272   6.420   7.071 -0.3639 -0.6296 -0.1072
  165SAPE   C2518566   2.434   6.561   7.120 -0.1791  0.0767 -0.2591
  165SAPE   H5R18567   2.500   6.637   7.076  0.6282 -1.0814 -1.1022
  165SAPE   C2618568   2.439   6.549   7.256 -0.2524  0.2267 -0.3370
  165SAPE   H6R18569   2.509   6.611   7.314 -1.5932  0.9684  0.5392
  165SAPE   C2718570   2.362   6.449   7.337  0.9997 -0.1120  0.6081
  165SAPE   H7R18571   2.276   6.403   7.284 -0.0609 -0.7161  2.7372
  165SAPE   H7S18572   2.300   6.490   7.420  0.7709 -1.2397  1.0148
  165SAPE   C2818573   2.451   6.338   7.389  0.7801  0.1934 -0.3138
  165SAPE   H8R18574   2.505   6.280   7.312  1.2718  0.2347 -0.0056
  165SAPE   C2918575   2.472   6.302   7.517  0.6973  0.2076  0.3012
  165SAPE   H9R18576   2.540   6.218   7.534  0.5754  0.2258  0.8807
  165SAPE  C21018577   2.419   6.369   7.642 -0.3856  0.1660 -0.4446
  165SAPE  H10R18578   2.399   6.283   7.709  2.2822  0.6442  1.1125
  165SAPE  H10S18579   2.324   6.423   7.622 -1.1578  0.1605  2.7129
  165SAPE  C21118580   2.513   6.466   7.712  0.3904 -0.5439 -0.0292
  165SAPE  H11R18581   2.542   6.562   7.666 -0.4451 -0.5606 -0.6092
  165SAPE  C21218582   2.542   6.451   7.842  0.2649  0.0978 -0.6277
  165SAPE  H12R18583   2.614   6.521   7.886 -2.5097  1.1402  2.6641
  165SAPE  C21318584   2.503   6.338   7.942  0.3207  0.4777  0.3941
  165SAPE  H13R18585   2.578   6.346   8.023  0.0446  0.8674  0.6210
  165SAPE  H13S18586   2.516   6.243   7.887 -1.5712  1.5394 -2.1462
  165SAPE  C21418587   2.365   6.343   7.998  0.5788  0.4603 -0.4552
  165SAPE  H14R18588   2.282   6.399   7.951 -0.8677 -0.8075  0.4687
  165SAPE  C21518589   2.330   6.286   8.118 -0.2936 -0.1279 -0.3775
  165SAPE  H15R18590   2.229   6.290   8.161 -0.9057 -0.5992 -1.6927
  165SAPE  C21618591   2.414   6.207   8.213 -0.1168 -0.4061 -0.0799
  165SAPE  H16R18592   2.433   6.266   8.305 -0.1432 -0.7277  0.1322
  165SAPE  H16S18593   2.514   6.177   8.174 -1.2409 -2.3873 -1.6052
  165SAPE  C21718594   2.339   6.079   8.253  0.1738 -0.2205  0.3827
  165SAPE  H17R18595   2.317   6.006   8.172 -0.7810  1.5838 -1.0608
  165SAPE  H17S18596   2.238   6.115   8.282  0.9364  2.6318 -0.2513
  165SAPE  C21818597   2.415   6.010   8.366  0.0046  0.3445 -0.9964
  165SAPE  H18R18598   2.428   6.077   8.453 -2.7584  1.3486 -1.2421
  165SAPE  H18S18599   2.510   5.965   8.330  1.4359  2.2156  0.2684
  165SAPE  C21918600   2.339   5.882   8.412  0.0457 -0.1317 -0.2288
  165SAPE  H19R18601   2.319   5.811   8.329  0.1264 -1.9861  1.2697
  165SAPE  H19S18602   2.240   5.897   8.461  0.7363 -1.4758  1.7155
  165SAPE  C22018603   2.420   5.793   8.506  0.2708  0.7990  0.4318
  165SAPE  H20R18604   2.524   5.790   8.470  0.1220  0.2350  0.0379
  165SAPE  H20S18605   2.374   5.692   8.510 -0.4428  0.9406 -2.0990
  165SAPE  H20T18606   2.432   5.846   8.603 -1.0531  0.4481  0.8157
  165SAPE   C3318607   1.460   6.760   6.827  0.2152  1.0933 -0.0830
  165SAPE   H3X18608   1.401   6.701   6.754  1.7438 -1.4079  0.5591
  165SAPE   H3Y18609   1.439   6.867   6.807 -0.3836  0.4722 -3.3394
  165SAPE   C3418610   1.373   6.724   6.953  0.1016  0.0117 -0.0915
  165SAPE   H4X18611   1.359   6.614   6.961 -1.0353  0.0447 -1.2883
  165SAPE   H4Y18612   1.274   6.774   6.938  1.0977  1.5003 -2.1009
  165SAPE   C3518613   1.440   6.761   7.089 -0.1039 -0.2167 -0.3138
  165SAPE   H5X18614   1.475   6.866   7.082 -0.2444  0.1391  2.8667
  165SAPE   H5Y18615   1.533   6.702   7.102  0.2651  0.5596  0.6722
  165SAPE   C3618616   1.354   6.760   7.217  0.1599 -0.8709  0.3962
  165SAPE   H6X18617   1.316   6.656   7.220  1.8404 -1.7586 -3.1386
  165SAPE   H6Y18618   1.266   6.828   7.217 -0.3678 -1.5453  0.9152
  165SAPE   C3718619   1.432   6.766   7.349  0.4204 -0.3994 -0.2849
  165SAPE   H7X18620   1.494   6.858   7.353  0.9058 -0.6470 -1.7377
  165SAPE   H7Y18621   1.484   6.668   7.357  2.1911  0.6113  1.6771
  165SAPE   C3818622   1.341   6.777   7.468  0.5836  0.2251  0.3159
  165SAPE   H8X18623   1.253   6.710   7.454  2.5245 -2.3723 -0.3606
  165SAPE   H8Y18624   1.303   6.880   7.482  0.1380  0.3483 -1.5574
  165SAPE   C3918625   1.416   6.742   7.595 -0.1402 -0.1529  0.4163
  165SAPE   H9X18626   1.513   6.794   7.606 -0.2580  0.4052 -0.9467
  165SAPE   H9Y18627   1.437   6.633   7.599  0.8943  0.0730  1.7400
  165SAPE  C31018628   1.328   6.769   7.715 -0.4250 -0.6068  0.0070
  165SAPE  H10X18629   1.227   6.727   7.694 -1.0569  0.5455  0.6565
  165SAPE  H10Y18630   1.323   6.878   7.735  2.8100 -0.0908 -1.3198
  165SAPE  C31118631   1.400   6.709   7.835  0.2860 -0.3402  0.4710
  165SAPE  H11X18632   1.498   6.761   7.840  0.5473 -0.8183  0.3783
  165SAPE  H11Y18633   1.408   6.599   7.831  0.4033 -0.3618  1.1145
  165SAPE  C31218634   1.325   6.737   7.960 -0.0638  0.3596 -0.1200
  165SAPE  H12X18635   1.223   6.696   7.948 -0.0120 -0.5415  2.0161
  165SAPE  H12Y18636   1.313   6.847   7.969  0.8236  0.5059 -0.6271
  165SAPE  C31318637   1.378   6.679   8.090  0.2116  0.3789 -0.3925
  165SAPE  H13X18638   1.303   6.710   8.166 -0.3152 -2.5839  0.4442
  165SAPE  H13Y18639   1.482   6.704   8.118  0.0838 -1.1051  1.6086
  165SAPE  C31418640   1.360   6.524   8.111  0.2394 -0.2842 -0.3181
  165SAPE  H14X18641   1.418   6.473   8.031 -0.3724 -0.9372 -0.3577
  165SAPE  H14Y18642   1.260   6.480   8.091 -0.5635  0.5872  1.5689
  165SAPE  C31518643   1.410   6.478   8.253  0.1651 -0.2361 -0.4634
  165SAPE  H15X18644   1.484   6.553   8.288 -0.4045  0.8506 -1.5271
  165SAPE  H15Y18645   1.446   6.373   8.252 -2.4323 -1.2153  0.5705
  165SAPE  C31618646   1.293   6.479   8.356 -0.7642  1.1659  0.1666
  165SAPE  H16X18647   1.214   6.404   8.332  1.6994 -1.3396 -0.6696
  165SAPE  H16Y18648   1.250   6.581   8.344  0.0812  1.6452  1.0625
  165SAPE  C31718649   1.336   6.444   8.495  0.0469 -0.5573  0.6814
  165SAPE  H17X18650   1.242   6.459   8.552  0.8179 -0.7668  2.0505
  165SAPE  H17Y18651   1.413   6.515   8.529 -2.1019  1.7638  1.0104
  165SAPE  C31818652   1.374   6.294   8.518  0.4410  0.1707  0.0645
  165SAPE  H18X18653   1.296   6.222   8.484  0.7505  0.3032 -0.9555
  165SAPE  H18Y18654   1.398   6.290   8.626  1.2414 -0.2041 -0.1225
  165SAPE  H18Z18655   1.461   6.265   8.456 -1.9555 -2.7702 -2.2640
  166SAPE     N18656   6.315   1.813   6.177 -0.0941 -0.8361  0.4677
  166SAPE   HN118657   6.260   1.882   6.123  1.6513  0.1629 -0.1428
  166SAPE   HN218658   6.392   1.772   6.120 -0.7869 -0.1547 -1.0266
  166SAPE   HN318659   6.249   1.740   6.211  2.1475 -2.8825  0.7362
  166SAPE   C1218660   6.380   1.882   6.296  0.4009 -0.6198  0.2297
  166SAPE  H12A18661   6.471   1.824   6.325 -0.2031 -1.0984  1.2241
  166SAPE  H12B18662   6.313   1.885   6.384  0.6411  2.4008  0.3816
  166SAPE   C1118663   6.402   2.037   6.263 -0.3865 -0.2705  0.3047
  166SAPE  H11A18664   6.470   2.037   6.174 -1.1113 -1.1183 -0.2633
  166SAPE  H11B18665   6.446   2.075   6.357  3.0405  0.7756 -1.5364
  166SAPE     P18666   6.295   2.259   6.209 -0.0854  0.1871 -0.3341
  166SAPE   O1318667   6.402   2.293   6.118  0.8049  0.1668 -0.1954
  166SAPE   O1418668   6.167   2.308   6.157 -0.8965  0.3114  0.0039
  166SAPE   O1218669   6.284   2.099   6.223 -0.0801  0.4432 -0.4045
  166SAPE   O1118670   6.323   2.313   6.349 -0.2803 -0.1176 -0.0207
  166SAPE    C118671   6.232   2.387   6.432 -0.3547 -0.4293 -0.2279
  166SAPE    HA18672   6.192   2.478   6.383 -2.3115 -0.3242  1.4419
  166SAPE    HB18673   6.140   2.331   6.457 -0.9787  1.2147  1.2833
  166SAPE    C218674   6.301   2.430   6.566  0.5922  0.1291 -0.2700
  166SAPE    HS18675   6.404   2.464   6.542  0.7479 -0.7228 -0.8611
  166SAPE   O2118676   6.308   2.321   6.661  0.6196  0.8953  0.0470
  166SAPE   C2118677   6.410   2.239   6.626  0.5642 -0.9228 -0.0137
  166SAPE   O2218678   6.506   2.269   6.561  0.4689  0.3171  0.4003
  166SAPE   C2218679   6.398   2.103   6.689 -0.0659 -0.3285  0.1574
  166SAPE   H2R18680   6.350   2.028   6.623  0.8769 -0.3193 -0.5605
  166SAPE   H2S18681   6.507   2.088   6.702  0.0529  2.0602  3.0145
  166SAPE    C318682   6.223   2.552   6.638 -0.0738  0.6912 -0.0619
  166SAPE    HX18683   6.119   2.517   6.650  0.2958 -0.8546 -1.0473
  166SAPE    HY18684   6.234   2.645   6.577 -2.6957  0.5936 -0.8140
  166SAPE   O3118685   6.281   2.572   6.772  0.1648 -0.0467  0.6189
  166SAPE   C3118686   6.244   2.691   6.814 -0.2836  0.4087  0.1664
  166SAPE   O3218687   6.156   2.765   6.767 -0.3481  0.5778  0.2122
  166SAPE   C3218688   6.329   2.723   6.932 -0.2601 -0.1605  0.2517
  166SAPE   H2X18689   6.298   2.819   6.978 -0.0836  1.4707 -2.8010
  166SAPE   H2Y18690   6.435   2.729   6.899  0.1962 -0.3343  1.5933
  166SAPE   C2318691   6.339   2.098   6.832  0.0316  0.7210  0.6627
  166SAPE   H3R18692   6.236   2.136   6.853 -0.9155 -0.6269 -1.2788
  166SAPE   H3S18693   6.408   2.158   6.896  0.4195 -0.6836  1.6127
  166SAPE   C2418694   6.329   1.955   6.898 -0.0972 -0.5741  0.0232
  166SAPE   H4R18695   6.312   1.974   7.006  2.1571 -0.8809  0.4786
  166SAPE   H4S18696   6.428   1.908   6.878  0.5984  1.6661 -2.5454
  166SAPE   C2518697   6.225   1.867   6.839 -0.5386  0.6702 -0.3277
  166SAPE   H5R18698   6.255   1.808   6.751 -0.5952  0.6015 -0.3015
  166SAPE   C2618699   6.099   1.846   6.894  0.1087 -0.2261  0.0335
  166SAPE   H6R18700   6.025   1.779   6.846  0.0413 -0.7455  0.8519
  166SAPE   C2718701   6.053   1.918   7.012 -0.0273  0.1313 -0.2123
  166SAPE   H7R18702   5.945   1.940   7.003 -0.2412 -0.4566  0.7928
  166SAPE   H7S18703   6.097   2.020   7.010  0.1777  0.0975  1.5368
  166SAPE   C2818704   6.081   1.862   7.146 -0.4218  0.4441  0.0439
  166SAPE   H8R18705   6.166   1.792   7.152 -1.7446 -1.0984  2.0674
  166SAPE   C2918706   6.005   1.878   7.259  0.0881  0.0470  0.1748
  166SAPE   H9R18707   6.029   1.835   7.357 -0.3124 -0.6285 -0.0163
  166SAPE  C21018708   5.877   1.960   7.253  0.2593  0.5486  0.2765
  166SAPE  H10R18709   5.795   1.895   7.215  1.3531 -1.6672  1.4822
  166SAPE  H10S18710   5.881   2.047   7.184 -0.9473  0.2557 -0.1834
  166SAPE  C21118711   5.837   2.016   7.390 -0.6141  0.4704 -1.0421
  166SAPE  H11R18712   5.889   2.112   7.409  1.3390 -0.6693 -0.3483
  166SAPE  C21218713   5.744   1.967   7.477  0.2710  0.5028 -0.2914
  166SAPE  H12R18714   5.714   2.024   7.566  0.1093 -1.9167  1.3116
  166SAPE  C21318715   5.658   1.842   7.457 -0.1996  0.4662 -0.4463
  166SAPE  H13R18716   5.722   1.761   7.417  1.6268  1.2238  0.7953
  166SAPE  H13S18717   5.587   1.860   7.373 -1.4639 -1.0408  0.2490
  166SAPE  C21418718   5.594   1.807   7.589  0.6788 -0.5257 -0.4611
  166SAPE  H14R18719   5.642   1.721   7.638 -0.0423 -0.3965  0.5054
  166SAPE  C21518720   5.478   1.861   7.639 -0.5561 -0.8350 -0.0364
  166SAPE  H15R18721   5.441   1.823   7.736  0.7216 -1.1645  0.3432
  166SAPE  C21618722   5.393   1.961   7.560  0.3383 -0.6088 -0.0420
  166SAPE  H16R18723   5.298   1.906   7.543  0.4617 -0.5240 -1.0607
  166SAPE  H16S18724   5.432   1.966   7.456 -1.0028 -3.8948 -0.8311
  166SAPE  C21718725   5.376   2.112   7.606  0.2967  0.0156  0.0309
  166SAPE  H17R18726   5.309   2.171   7.539  0.5562  0.3970  0.1042
  166SAPE  H17S18727   5.479   2.154   7.612  0.5941 -0.6952 -0.0263
  166SAPE  C21818728   5.317   2.125   7.751 -0.5546  0.5904 -0.1776
  166SAPE  H18R18729   5.391   2.082   7.822  0.5122 -0.9740 -2.1532
  166SAPE  H18S18730   5.220   2.072   7.764 -0.3901  0.7557  2.1631
  166SAPE  C21918731   5.285   2.266   7.799  0.3474 -1.0299 -0.3465
  166SAPE  H19R18732   5.206   2.307   7.732  0.3315 -0.3327  0.0817
  166SAPE  H19S18733   5.370   2.337   7.792 -0.3726 -0.1900 -0.8161
  166SAPE  C22018734   5.236   2.290   7.941 -0.1808  1.0063 -0.1150
  166SAPE  H20R18735   5.208   2.395   7.963 -2.1151  0.4087  0.4576
  166SAPE  H20S18736   5.320   2.252   8.004 -0.6311  0.6580  0.2865
  166SAPE  H20T18737   5.152   2.227   7.978  0.6104 -0.9555 -1.4767
  166SAPE   C3318738   6.325   2.613   7.040 -0.5181  0.2990 -0.2378
  166SAPE   H3X18739   6.350   2.510   7.005 -3.0301 -0.7976  0.9563
  166SAPE   H3Y18740   6.220   2.611   7.076 -0.1550 -0.2557  0.8143
  166SAPE   C3418741   6.407   2.650   7.161  0.3390 -0.6838  0.3273
  166SAPE   H4X18742   6.372   2.754   7.177  0.9991 -0.3162 -0.5068
  166SAPE   H4Y18743   6.509   2.644   7.118  0.0561  2.7624 -1.1883
  166SAPE   C3518744   6.368   2.561   7.280 -0.1760  0.2728 -0.3209
  166SAPE   H5X18745   6.377   2.453   7.254 -1.3608  0.0259  0.2614
  166SAPE   H5Y18746   6.259   2.569   7.300 -0.0131  2.1872 -0.0203
  166SAPE   C3618747   6.447   2.599   7.401 -0.0585  0.3069 -0.6177
  166SAPE   H6X18748   6.434   2.707   7.420 -3.6640 -0.1769  0.4132
  166SAPE   H6Y18749   6.554   2.575   7.382 -0.1903 -1.8796  0.9570
  166SAPE   C3718750   6.410   2.518   7.526  0.0346  0.6045 -0.0366
  166SAPE   H7X18751   6.428   2.410   7.509 -1.1928  0.5056 -0.8213
  166SAPE   H7Y18752   6.304   2.539   7.553  0.3452  1.3154  0.6876
  166SAPE   C3818753   6.493   2.553   7.646  0.1369 -0.5552  0.6885
  166SAPE   H8X18754   6.477   2.659   7.677 -0.5179 -0.1797 -0.8455
  166SAPE   H8Y18755   6.603   2.542   7.635  0.5805  1.0277  2.8692
  166SAPE   C3918756   6.466   2.461   7.770 -0.2850  0.1007 -1.0590
  166SAPE   H9X18757   6.462   2.358   7.730  1.6285 -1.4822  2.3833
  166SAPE   H9Y18758   6.365   2.487   7.809  0.9841  0.7124  2.0547
  166SAPE  C31018759   6.567   2.494   7.885 -0.1672  0.2027 -0.5320
  166SAPE  H10X18760   6.583   2.602   7.904 -0.5212  0.2879 -0.7072
  166SAPE  H10Y18761   6.665   2.447   7.865  0.1921  0.2137  1.0449
  166SAPE  C31118762   6.510   2.426   8.011 -0.3567  0.1424 -0.0128
  166SAPE  H11X18763   6.502   2.319   7.981 -1.0553  0.7140 -1.9633
  166SAPE  H11Y18764   6.411   2.470   8.035 -0.2760 -1.3606  3.9690
  166SAPE  C31218765   6.599   2.438   8.137  0.2411 -0.0161 -0.7760
  166SAPE  H12X18766   6.623   2.545   8.160 -0.2822  0.0072 -0.3352
  166SAPE  H12Y18767   6.691   2.381   8.113 -0.2321 -1.0958 -0.0501
  166SAPE  C31318768   6.546   2.356   8.253  0.1546 -0.2353 -0.9166
  166SAPE  H13X18769   6.469   2.279   8.230 -1.7109  0.3761  2.4906
  166SAPE  H13Y18770   6.485   2.424   8.316 -0.4479 -1.7238  0.1937
  166SAPE  C31418771   6.658   2.288   8.334 -0.2370 -0.2729  0.3973
  166SAPE  H14X18772   6.727   2.371   8.363  0.0894 -0.7162  0.8923
  166SAPE  H14Y18773   6.722   2.214   8.280 -1.6637 -1.8952  0.8452
  166SAPE  C31518774   6.610   2.218   8.467 -0.1421  0.0826 -0.3280
  166SAPE  H15X18775   6.567   2.121   8.435 -0.0128 -0.0665 -0.0572
  166SAPE  H15Y18776   6.530   2.283   8.508  0.0280  1.2806 -1.8040
  166SAPE  C31618777   6.720   2.197   8.565 -0.5232  0.5338  0.9516
  166SAPE  H16X18778   6.684   2.129   8.647  0.0579 -1.1042 -0.1023
  166SAPE  H16Y18779   6.746   2.292   8.616 -1.4626  1.0419  0.5213
  166SAPE  C31718780   6.845   2.132   8.509  1.1442  0.4875  0.4581
  166SAPE  H17X18781   6.908   2.216   8.474 -0.9854  1.0788 -2.3105
  166SAPE  H17Y18782   6.815   2.074   8.419  0.6094 -0.6563  1.3424
  166SAPE  C31818783   6.921   2.025   8.592  0.3012  0.1508  0.4010
  166SAPE  H18X18784   6.872   1.925   8.592  2.6237 -1.0624  1.9532
  166SAPE  H18Y18785   6.934   2.054   8.698 -2.1747  1.8886  0.3178
  166SAPE  H18Z18786   7.019   2.003   8.543  1.0247  0.3131  1.7376
  167SAPE     N18787   3.307   1.468   6.187  0.0434  0.0488 -0.0063
  167SAPE   HN118788   3.357   1.432   6.103 -0.7239  0.0961 -0.4891
  167SAPE   HN218789   3.224   1.524   6.161  0.5641  0.8504  0.0300
  167SAPE   HN318790   3.371   1.521   6.250  0.3426 -1.6131  1.1539
  167SAPE   C1218791   3.260   1.356   6.280  0.1885 -1.0630  0.2697
  167SAPE  H12A18792   3.221   1.410   6.369 -1.6475 -1.8938  0.0173
  167SAPE  H12B18793   3.350   1.301   6.316  1.5424  1.0468  0.2961
  167SAPE   C1118794   3.154   1.277   6.213  0.1835  0.2915  0.4711
  167SAPE  H11A18795   3.106   1.222   6.297  0.5284 -0.7392  0.0013
  167SAPE  H11B18796   3.192   1.193   6.153  1.7292  1.7054 -0.6256
  167SAPE     P18797   2.943   1.311   6.064 -0.1948 -0.3951  0.4695
  167SAPE   O1318798   2.931   1.398   5.938  0.4070  0.2565 -0.2245
  167SAPE   O1418799   2.951   1.170   6.040 -0.3829  0.3247  0.0692
  167SAPE   O1218800   3.061   1.358   6.151 -0.2642 -0.4136  0.1293
  167SAPE   O1118801   2.826   1.355   6.163  0.1827  0.9441 -0.2359
  167SAPE    C118802   2.802   1.286   6.286  0.7293  0.1296  0.8575
  167SAPE    HA18803   2.789   1.176   6.272  0.6982  0.4614 -2.2883
  167SAPE    HB18804   2.891   1.290   6.352  0.8428 -0.6783  0.7724
  167SAPE    C218805   2.680   1.322   6.376 -0.0167 -0.0455 -0.0280
  167SAPE    HS18806   2.590   1.304   6.315  0.5717  1.0861 -1.2807
  167SAPE   O2118807   2.690   1.459   6.428 -0.2201 -0.0669 -0.3923
  167SAPE   C2118808   2.574   1.523   6.447  0.8164  0.2972  0.8520
  167SAPE   O2218809   2.462   1.481   6.417  0.8801 -0.2417 -0.1978
  167SAPE   C2218810   2.603   1.651   6.519  0.2091 -0.3431  0.0324
  167SAPE   H2R18811   2.566   1.638   6.623  2.7560 -1.8479  0.8462
  167SAPE   H2S18812   2.712   1.656   6.541  0.2464  0.2908 -0.2797
  167SAPE    C318813   2.679   1.231   6.499  0.1283  0.3239 -0.5862
  167SAPE    HX18814   2.655   1.124   6.483  2.3789 -0.5521  1.3479
  167SAPE    HY18815   2.588   1.263   6.554  0.1371  1.4321 -1.1825
  167SAPE   O3118816   2.801   1.245   6.570  1.1211 -0.1105 -0.2419
  167SAPE   C3118817   2.808   1.338   6.662  0.2672 -0.2847 -0.2241
  167SAPE   O3218818   2.717   1.395   6.718 -0.2494 -0.2265 -0.0240
  167SAPE   C3218819   2.956   1.363   6.686  0.0539 -0.4269 -0.6219
  167SAPE   H2X18820   2.997   1.408   6.593  0.7024  1.2546  0.4261
  167SAPE   H2Y18821   3.006   1.265   6.701 -0.5324 -1.1732 -3.0929
  167SAPE   C2318822   2.546   1.775   6.444 -0.1079  0.3611 -0.1099
  167SAPE   H3R18823   2.440   1.756   6.414 -0.4415 -0.1118  1.3002
  167SAPE   H3S18824   2.596   1.783   6.345 -1.6719 -0.2733 -1.0027
  167SAPE   C2418825   2.567   1.907   6.515 -0.1390 -0.1795  0.0337
  167SAPE   H4R18826   2.551   1.991   6.444 -0.9907 -1.4735 -1.3721
  167SAPE   H4S18827   2.672   1.914   6.550 -0.0103  0.1379 -0.4100
  167SAPE   C2518828   2.470   1.918   6.624  0.2368  0.8279 -0.7268
  167SAPE   H5R18829   2.367   1.917   6.586 -0.5502 -0.6642  1.2569
  167SAPE   C2618830   2.488   1.918   6.754  0.4746  0.3091  0.1859
  167SAPE   H6R18831   2.400   1.923   6.821 -1.1208  0.4471 -1.8361
  167SAPE   C2718832   2.616   1.914   6.835  0.3982  0.2306  0.7741
  167SAPE   H7R18833   2.603   1.977   6.925  0.6940  2.7755 -0.8712
  167SAPE   H7S18834   2.694   1.961   6.772 -0.1816 -2.9932 -2.6980
  167SAPE   C2818835   2.665   1.777   6.868  0.0390 -0.4789  0.1734
  167SAPE   H8R18836   2.687   1.717   6.778 -0.3279  0.5521 -0.6278
  167SAPE   C2918837   2.689   1.706   6.979 -0.6433  0.8214 -0.1783
  167SAPE   H9R18838   2.716   1.600   6.968 -0.3076  0.0376  5.2521
  167SAPE  C21018839   2.670   1.745   7.125  0.2807 -0.0018 -0.5131
  167SAPE  H10R18840   2.764   1.780   7.172 -0.0087 -1.0274  0.9380
  167SAPE  H10S18841   2.641   1.648   7.172 -1.8858  1.5545  1.6177
  167SAPE  C21118842   2.555   1.834   7.171 -0.2454 -0.4036  0.1799
  167SAPE  H11R18843   2.486   1.866   7.091 -2.9694 -2.1333  1.6632
  167SAPE  C21218844   2.535   1.879   7.300 -0.4335  0.4079  0.4947
  167SAPE  H12R18845   2.457   1.957   7.308 -1.3723 -0.0387 -2.8140
  167SAPE  C21318846   2.615   1.838   7.417  0.8251 -0.5235 -0.0019
  167SAPE  H13R18847   2.664   1.931   7.452 -0.4414  0.4095 -0.6099
  167SAPE  H13S18848   2.695   1.764   7.396  0.8411 -0.3188 -0.6798
  167SAPE  C21418849   2.532   1.770   7.524 -0.4347  0.3921  0.2072
  167SAPE  H14R18850   2.455   1.700   7.490  0.8501 -0.7058 -0.5650
  167SAPE  C21518851   2.553   1.780   7.658 -0.9709 -0.4529 -0.3753
  167SAPE  H15R18852   2.498   1.722   7.733 -2.7172  1.2484 -0.2569
  167SAPE  C21618853   2.648   1.891   7.718  0.0056  0.4840 -0.3790
  167SAPE  H16R18854   2.714   1.947   7.650 -0.1207  0.8811 -0.1786
  167SAPE  H16S18855   2.714   1.836   7.789  0.6078 -0.8817 -1.9093
  167SAPE  C21718856   2.587   2.011   7.790 -0.8503 -0.3366  0.8464
  167SAPE  H17R18857   2.514   2.076   7.738  1.0383  1.1268 -0.0970
  167SAPE  H17S18858   2.664   2.084   7.824  0.0450 -2.0291  2.6747
  167SAPE  C21818859   2.509   1.980   7.923 -0.8721  0.7760 -0.2886
  167SAPE  H18R18860   2.585   1.934   7.990 -0.5393 -1.1277 -1.8506
  167SAPE  H18S18861   2.442   1.894   7.903  0.0018 -0.6988  2.5635
  167SAPE  C21918862   2.437   2.098   7.984  0.4857  0.0905  0.1909
  167SAPE  H19R18863   2.355   2.138   7.920  0.6416 -1.3479 -0.9721
  167SAPE  H19S18864   2.512   2.176   8.006  1.2606 -0.4198 -0.5770
  167SAPE  C22018865   2.376   2.057   8.116  0.3063  0.0033 -0.1822
  167SAPE  H20R18866   2.312   2.134   8.164 -0.1640 -1.9086  2.4323
  167SAPE  H20S18867   2.454   2.034   8.191 -0.1455  0.9484  0.5973
  167SAPE  H20T18868   2.320   1.965   8.088  2.2022 -0.9529 -0.9840
  167SAPE   C3318869   2.979   1.467   6.804  0.0344 -0.0659  0.2289
  167SAPE   H3X18870   2.916   1.556   6.783  1.2890  0.4835 -1.4158
  167SAPE   H3Y18871   3.086   1.497   6.809  0.3889 -1.1978 -0.3180
  167SAPE   C3418872   2.958   1.393   6.937 -0.0419 -0.3089 -0.1027
  167SAPE   H4X18873   3.019   1.300   6.936  0.8657  0.2893 -0.4784
  167SAPE   H4Y18874   2.848   1.374   6.945 -0.0429  0.0520  0.9405
  167SAPE   C3518875   2.997   1.482   7.051  0.6072 -0.4576  0.0849
  167SAPE   H5X18876   2.951   1.583   7.047  3.9662  1.2223 -3.1528
  167SAPE   H5Y18877   3.107   1.498   7.050  0.7136 -1.1603 -0.2933
  167SAPE   C3618878   2.970   1.422   7.192  0.1141 -0.7309  0.1944
  167SAPE   H6X18879   3.040   1.337   7.204  4.8237  2.8171  0.9653
  167SAPE   H6Y18880   2.869   1.377   7.184  0.0863 -0.4901 -1.0728
  167SAPE   C3718881   2.994   1.513   7.310  0.0622 -0.3416 -0.7593
  167SAPE   H7X18882   2.960   1.618   7.308 -1.1020 -0.7249 -1.8965
  167SAPE   H7Y18883   3.105   1.524   7.317  0.0565 -0.1299 -1.0051
  167SAPE   C3818884   2.962   1.445   7.450 -0.8154  0.1053  0.2742
  167SAPE   H8X18885   2.974   1.516   7.535 -0.4450 -1.4544  1.5868
  167SAPE   H8Y18886   3.038   1.366   7.471  2.4987  2.5652 -1.5477
  167SAPE   C3918887   2.822   1.395   7.465  0.3272 -0.4250  0.1944
  167SAPE   H9X18888   2.792   1.321   7.388  0.0277  0.9035 -1.0035
  167SAPE   H9Y18889   2.746   1.477   7.466  1.4405  0.7604  3.8001
  167SAPE  C31018890   2.799   1.335   7.605 -0.7049  0.0786 -0.9280
  167SAPE  H10X18891   2.810   1.412   7.684 -0.3110 -1.0655  0.1637
  167SAPE  H10Y18892   2.864   1.246   7.619 -1.1795 -0.2221 -0.5818
  167SAPE  C31118893   2.660   1.273   7.620 -0.3369 -0.4908 -0.4588
  167SAPE  H11X18894   2.657   1.186   7.551  0.3364  0.3249 -1.5419
  167SAPE  H11Y18895   2.572   1.338   7.599 -0.4222  0.4017  2.2801
  167SAPE  C31218896   2.629   1.214   7.754  0.2591 -0.3132 -0.0903
  167SAPE  H12X18897   2.708   1.144   7.787  0.3040 -0.6792 -0.9497
  167SAPE  H12Y18898   2.542   1.146   7.743  0.0419 -0.2231  1.0074
  167SAPE  C31318899   2.599   1.309   7.870 -0.2261 -0.8127 -0.7912
  167SAPE  H13X18900   2.512   1.374   7.842 -1.2535 -1.0117  1.7319
  167SAPE  H13Y18901   2.687   1.376   7.876 -1.6856  1.3092 -1.6287
  167SAPE  C31418902   2.576   1.237   8.002  0.6899 -0.7901 -0.1859
  167SAPE  H14X18903   2.573   1.303   8.090  3.0305 -1.1331  0.2008
  167SAPE  H14Y18904   2.656   1.161   8.014 -0.3972 -1.9489 -0.0289
  167SAPE  C31518905   2.450   1.151   8.002  0.3549  0.5808  0.0516
  167SAPE  H15X18906   2.448   1.095   7.906  0.6377 -0.2813  0.5423
  167SAPE  H15Y18907   2.362   1.218   7.986 -0.3345 -0.3546 -0.1293
  167SAPE  C31618908   2.433   1.066   8.121  0.0798  1.1199 -0.2564
  167SAPE  H16X18909   2.511   0.992   8.146  0.3657  1.4184 -0.2533
  167SAPE  H16Y18910   2.348   0.996   8.105  1.4278 -1.7716  3.7417
  167SAPE  C31718911   2.398   1.138   8.245  0.6333 -0.4977 -0.8786
  167SAPE  H17X18912   2.494   1.180   8.283 -0.4799  1.9803 -0.5934
  167SAPE  H17Y18913   2.351   1.062   8.310 -1.6820  0.7777 -0.9498
  167SAPE  C31818914   2.298   1.256   8.238 -0.3014 -0.3976  0.0535
  167SAPE  H18X18915   2.339   1.336   8.173 -0.2587 -0.6064 -0.1767
  167SAPE  H18Y18916   2.267   1.299   8.336  0.2749  0.4172 -0.1088
  167SAPE  H18Z18917   2.199   1.226   8.197 -1.6081  1.5991  1.5468
  168SAPE     N18918   2.790   3.304   6.318 -0.1724 -0.8124 -0.8638
  168SAPE   HN118919   2.716   3.374   6.295 -0.1583 -0.3924  0.3192
  168SAPE   HN218920   2.848   3.347   6.393  1.8975 -4.2155 -0.3068
  168SAPE   HN318921   2.856   3.278   6.242  2.3624 -2.6907  1.7448
  168SAPE   C1218922   2.724   3.186   6.380 -0.5054 -0.2870  0.2785
  168SAPE  H12A18923   2.640   3.158   6.312  1.4572  1.3651 -3.0608
  168SAPE  H12B18924   2.687   3.218   6.480  1.1540  1.2456  0.4531
  168SAPE   C1118925   2.830   3.067   6.393  0.2884 -0.0246 -0.3585
  168SAPE  H11A18926   2.768   2.989   6.440 -0.5967 -0.1746 -1.7282
  168SAPE  H11B18927   2.909   3.100   6.464 -2.5098  1.6668  2.2321
  168SAPE     P18928   2.904   2.877   6.220  0.2820 -0.1746 -0.0910
  168SAPE   O1318929   2.782   2.812   6.160 -0.4358 -0.7081 -0.6802
  168SAPE   O1418930   3.024   2.877   6.129  0.2055  0.0806  0.0122
  168SAPE   O1218931   2.881   3.022   6.263  0.0671 -0.1629 -0.1535
  168SAPE   O1118932   2.944   2.815   6.358 -0.0998  0.5976 -0.4958
  168SAPE    C118933   2.910   2.682   6.384 -0.5414  1.2713 -0.3174
  168SAPE    HA18934   2.800   2.674   6.394 -0.2794 -0.9423  1.6909
  168SAPE    HB18935   2.960   2.609   6.316  0.7402  0.5623  1.3154
  168SAPE    C218936   2.948   2.650   6.530 -0.0353 -0.3805 -0.1372
  168SAPE    HS18937   2.859   2.666   6.595 -0.8088 -0.6881 -1.1150
  168SAPE   O2118938   3.059   2.728   6.575  0.1488  0.0973 -0.3628
  168SAPE   C2118939   3.023   2.851   6.616 -0.0262 -0.0760  0.0419
  168SAPE   O2218940   2.911   2.880   6.649 -0.1552  0.4569 -0.0389
  168SAPE   C2218941   3.148   2.953   6.618 -0.1465  0.5320 -0.1730
  168SAPE   H2R18942   3.185   2.944   6.514  2.1591 -0.6473  0.6860
  168SAPE   H2S18943   3.103   3.054   6.632 -0.5814  0.3353 -0.1135
  168SAPE    C318944   2.994   2.500   6.531  0.4415 -0.2544  0.1954
  168SAPE    HX18945   3.058   2.480   6.443  2.0817 -1.3874  1.5783
  168SAPE    HY18946   2.912   2.427   6.515  2.2128 -2.5594  1.1209
  168SAPE   O3118947   3.048   2.467   6.661  0.5900 -0.6682  0.2903
  168SAPE   C3118948   3.181   2.460   6.665  0.3338  0.3421 -0.2996
  168SAPE   O3218949   3.257   2.458   6.566 -0.3819  0.0123 -0.4037
  168SAPE   C3218950   3.220   2.464   6.809 -0.1034  0.6336 -0.3986
  168SAPE   H2X18951   3.128   2.441   6.867 -0.6680  2.1915 -0.6441
  168SAPE   H2Y18952   3.254   2.565   6.840 -2.0974  0.3981  3.0293
  168SAPE   C2318953   3.256   2.914   6.724  0.0318 -0.9550 -0.2205
  168SAPE   H3R18954   3.346   2.961   6.679  1.1825 -0.9646  1.9247
  168SAPE   H3S18955   3.279   2.805   6.730  1.0822 -0.7515 -0.2468
  168SAPE   C2418956   3.224   2.980   6.856 -0.3222  0.0219  0.0186
  168SAPE   H4R18957   3.194   3.085   6.837  0.1503  0.3098  0.7851
  168SAPE   H4S18958   3.318   2.982   6.916  0.3329  0.4450 -0.9961
  168SAPE   C2518959   3.125   2.907   6.944  0.9750  0.2112 -0.4887
  168SAPE   H5R18960   3.050   2.838   6.902  0.6729 -0.9013  1.6964
  168SAPE   C2618961   3.114   2.927   7.079  0.3208 -0.0013  0.1941
  168SAPE   H6R18962   3.033   2.884   7.139  0.2629 -0.2501 -0.0642
  168SAPE   C2718963   3.210   3.010   7.156 -0.4676  0.1681 -0.0930
  168SAPE   H7R18964   3.315   2.978   7.139 -0.8085 -0.8915 -0.3238
  168SAPE   H7S18965   3.186   2.976   7.259 -0.5859  1.9390  0.4926
  168SAPE   C2818966   3.197   3.158   7.139  0.0850  0.0498 -0.5324
  168SAPE   H8R18967   3.195   3.187   7.033 -0.3695 -2.6115 -1.3132
  168SAPE   C2918968   3.196   3.254   7.231  0.6401 -0.1552 -0.5827
  168SAPE   H9R18969   3.181   3.356   7.194  0.5912 -0.8580 -2.7007
  168SAPE  C21018970   3.194   3.235   7.375 -0.1855  0.0093 -0.3253
  168SAPE  H10R18971   3.295   3.244   7.421 -0.1072  4.4464 -0.9408
  168SAPE  H10S18972   3.157   3.135   7.404 -0.4566 -0.2032 -1.3774
  168SAPE  C21118973   3.109   3.341   7.442  0.4886 -0.0509  0.0197
  168SAPE  H11R18974   3.029   3.383   7.378  1.4011  0.8272 -0.5767
  168SAPE  C21218975   3.121   3.395   7.568  0.1248 -0.4162  0.2895
  168SAPE  H12R18976   3.047   3.471   7.596 -0.5780 -1.1535  0.4712
  168SAPE  C21318977   3.217   3.376   7.681  0.0097  0.2764 -0.4164
  168SAPE  H13R18978   3.197   3.452   7.760 -0.5803 -0.2865 -0.0213
  168SAPE  H13S18979   3.317   3.408   7.643  0.2000  0.4321  0.1985
  168SAPE  C21418980   3.209   3.234   7.738  0.2367  0.2278  0.4100
  168SAPE  H14R18981   3.229   3.158   7.661 -1.6469  0.0811  0.0123
  168SAPE  C21518982   3.175   3.194   7.862  0.7148  0.5987 -0.1865
  168SAPE  H15R18983   3.180   3.087   7.889  2.8513  0.5853 -0.4532
  168SAPE  C21618984   3.133   3.275   7.978  0.3188 -0.0611  0.0406
  168SAPE  H16R18985   3.054   3.349   7.950  0.5953  0.5897  0.9211
  168SAPE  H16S18986   3.220   3.331   8.019  0.6738  0.2288 -1.0778
  168SAPE  C21718987   3.076   3.188   8.095 -0.4023 -0.0278  0.0754
  168SAPE  H17R18988   3.151   3.115   8.132 -2.0676 -1.1921  1.2705
  168SAPE  H17S18989   2.983   3.136   8.065  0.5073 -1.2444 -0.7221
  168SAPE  C21818990   3.041   3.272   8.218 -0.0791 -0.2116  0.2381
  168SAPE  H18R18991   3.134   3.326   8.247 -1.5167  1.7485  1.3836
  168SAPE  H18S18992   3.012   3.211   8.305 -0.3412  0.1320  0.3942
  168SAPE  C21918993   2.923   3.375   8.202 -0.7578 -0.0284  0.2556
  168SAPE  H19R18994   2.937   3.426   8.105  3.2228  1.3799  1.3496
  168SAPE  H19S18995   2.946   3.447   8.283  1.5801  1.0211 -1.2203
  168SAPE  C22018996   2.788   3.313   8.200  0.2713 -0.4670  0.3080
  168SAPE  H20R18997   2.756   3.269   8.297 -3.4031 -1.5903 -1.2620
  168SAPE  H20S18998   2.782   3.238   8.119 -2.0731 -0.6561  0.5911
  168SAPE  H20T18999   2.716   3.397   8.189  0.4307 -0.2657  0.7782
  168SAPE   C3319000   3.334   2.370   6.843 -0.4486 -0.9338 -0.0201
  168SAPE   H3X19001   3.416   2.393   6.772 -0.4267 -1.5757 -0.2070
  168SAPE   H3Y19002   3.311   2.262   6.849 -1.2441 -0.7059  1.8865
  168SAPE   C3419003   3.395   2.401   6.980  0.1484 -0.4550 -0.7454
  168SAPE   H4X19004   3.424   2.508   6.977 -1.6061  0.0921  0.3827
  168SAPE   H4Y19005   3.494   2.354   6.998  0.5122  1.5452  3.9056
  168SAPE   C3519006   3.311   2.364   7.100  0.2688 -0.6855  0.8835
  168SAPE   H5X19007   3.326   2.256   7.118  0.7927 -0.2492  3.4980
  168SAPE   H5Y19008   3.204   2.380   7.075  0.0458 -0.4636  1.9380
  168SAPE   C3619009   3.347   2.452   7.222  0.4517  0.2731 -0.3145
  168SAPE   H6X19010   3.409   2.537   7.188 -0.4828  1.0781 -0.0904
  168SAPE   H6Y19011   3.404   2.393   7.297 -0.8271 -1.3390 -0.5563
  168SAPE   C3719012   3.223   2.505   7.301  0.0262  0.2485  0.7019
  168SAPE   H7X19013   3.158   2.424   7.340  0.6847 -0.6536 -0.0253
  168SAPE   H7Y19014   3.173   2.571   7.227  0.2862 -1.8381 -1.4341
  168SAPE   C3819015   3.269   2.575   7.434 -0.0977 -0.3707 -0.3861
  168SAPE   H8X19016   3.352   2.511   7.472 -1.7261 -1.3673  1.6887
  168SAPE   H8Y19017   3.185   2.587   7.505  0.7639 -3.9012  1.4248
  168SAPE   C3919018   3.336   2.713   7.405 -0.1853  0.3650  0.0246
  168SAPE   H9X19019   3.260   2.772   7.350 -2.0073 -1.1571  0.8342
  168SAPE   H9Y19020   3.433   2.711   7.349  1.0783  3.1544  1.8712
  168SAPE  C31019021   3.373   2.775   7.538  0.6647 -0.2195  0.3665
  168SAPE  H10X19022   3.433   2.701   7.595  1.6254 -0.1466 -0.5142
  168SAPE  H10Y19023   3.282   2.788   7.600  2.0019 -1.8757  2.8370
  168SAPE  C31119024   3.449   2.903   7.521 -0.4936 -0.4143 -0.3421
  168SAPE  H11X19025   3.396   2.963   7.444 -1.9837 -2.5224 -1.0335
  168SAPE  H11Y19026   3.553   2.876   7.493 -0.7311 -1.1629 -0.5240
  168SAPE  C31219027   3.448   2.993   7.644  0.0766  0.1240  0.2609
  168SAPE  H12X19028   3.347   2.987   7.689 -0.2019  1.1257 -0.2031
  168SAPE  H12Y19029   3.479   3.094   7.609  4.6305 -1.5470 -1.2993
  168SAPE  C31319030   3.554   2.954   7.748  0.3234 -0.5359 -1.3256
  168SAPE  H13X19031   3.538   2.845   7.759  0.8910 -0.5486 -0.5456
  168SAPE  H13Y19032   3.533   3.000   7.847  1.6144 -0.4351 -1.0873
  168SAPE  C31419033   3.701   2.960   7.717 -0.6455  0.3646 -0.3242
  168SAPE  H14X19034   3.720   3.068   7.699 -1.8235  0.6362  0.0276
  168SAPE  H14Y19035   3.724   2.902   7.625 -1.2574 -2.0895  0.9910
  168SAPE  C31519036   3.784   2.900   7.830  0.9786 -0.5340 -0.5291
  168SAPE  H15X19037   3.775   2.794   7.862  0.3067 -0.3839 -0.1890
  168SAPE  H15Y19038   3.757   2.959   7.920  0.4856 -1.5496  0.0002
  168SAPE  C31619039   3.932   2.908   7.805 -0.4750 -0.1134  0.0722
  168SAPE  H16X19040   3.964   3.013   7.795  2.8474 -1.0902 -0.8528
  168SAPE  H16Y19041   3.959   2.846   7.717  0.3757  2.2648 -1.4266
  168SAPE  C31719042   4.016   2.846   7.924 -0.1540  0.3882 -0.7237
  168SAPE  H17X19043   4.121   2.869   7.895 -0.5284  2.1945 -0.7955
  168SAPE  H17Y19044   4.000   2.736   7.922  0.6734  0.2173  0.9137
  168SAPE  C31819045   3.984   2.892   8.068  0.2919  0.0636  0.2111
  168SAPE  H18X19046   3.884   2.852   8.093 -1.4852  4.1533  0.4641
  168SAPE  H18Y19047   3.983   3.003   8.067  0.3655  0.0842  1.1796
  168SAPE  H18Z19048   4.049   2.858   8.152  0.6741  0.3827  0.0498
  169SAPE     N19049   3.708   5.352   6.521  0.0677 -0.4892  0.0115
  169SAPE   HN119050   3.660   5.372   6.611  1.8582 -1.0775  1.1585
  169SAPE   HN219051   3.772   5.273   6.545 -0.0484 -0.2892  1.0557
  169SAPE   HN319052   3.775   5.425   6.489 -0.9930  1.4759  2.0093
  169SAPE   C1219053   3.622   5.324   6.402  0.8791  0.0186 -0.4106
  169SAPE  H12A19054   3.515   5.309   6.429  0.2793 -1.0075 -2.9791
  169SAPE  H12B19055   3.654   5.224   6.365  0.6043  0.1693 -1.0702
  169SAPE   C1119056   3.622   5.431   6.293  0.7214  0.8140  0.4388
  169SAPE  H11A19057   3.574   5.527   6.321 -0.7517 -0.0478  0.9705
  169SAPE  H11B19058   3.553   5.392   6.215 -1.8754 -0.7567  3.3438
  169SAPE     P19059   3.832   5.582   6.248  0.2523  0.0667  0.3822
  169SAPE   O1319060   3.961   5.569   6.182  0.1713  0.4368 -0.5143
  169SAPE   O1419061   3.748   5.700   6.215  0.0970  0.3105 -0.4691
  169SAPE   O1219062   3.746   5.446   6.230 -0.0403 -0.3311  0.3692
  169SAPE   O1119063   3.857   5.573   6.396  0.3517 -0.0893  0.3529
  169SAPE    C119064   3.983   5.599   6.457  0.6066  0.0988 -0.5768
  169SAPE    HA19065   4.052   5.511   6.455  3.0134  1.9080 -1.1652
  169SAPE    HB19066   4.039   5.676   6.401  0.3625 -0.1290 -1.1398
  169SAPE    C219067   3.969   5.655   6.600  0.8667  0.6247 -0.0056
  169SAPE    HS19068   3.951   5.571   6.671 -1.4088  2.3889  1.6328
  169SAPE   O2119069   3.882   5.765   6.607 -0.0177 -0.6920  0.3403
  169SAPE   C2119070   3.756   5.753   6.643 -0.3692 -0.1176 -1.1303
  169SAPE   O2219071   3.707   5.648   6.679  0.0331 -0.3948  0.4290
  169SAPE   C2219072   3.686   5.892   6.638 -0.5319  0.0921 -0.4305
  169SAPE   H2R19073   3.658   5.922   6.534  1.4198  1.2456 -0.6930
  169SAPE   H2S19074   3.589   5.883   6.690 -1.4468  2.0721 -1.6719
  169SAPE    C319075   4.114   5.691   6.643  0.0199  0.2104  0.5851
  169SAPE    HX19076   4.162   5.748   6.560 -0.5820 -1.4867 -0.9855
  169SAPE    HY19077   4.171   5.596   6.652 -0.2558  0.0451  0.5881
  169SAPE   O3119078   4.118   5.758   6.770 -0.3184  0.2210 -0.0820
  169SAPE   C3119079   4.118   5.888   6.770  0.7192  0.1570 -0.6503
  169SAPE   O3219080   4.116   5.963   6.675  0.0311 -0.1897 -0.3028
  169SAPE   C3219081   4.103   5.939   6.910 -0.1639 -0.0358 -0.9300
  169SAPE   H2X19082   4.024   5.886   6.967  0.5088  1.6960  1.8147
  169SAPE   H2Y19083   4.072   6.046   6.906 -0.9699 -0.1516  1.0595
  169SAPE   C2319084   3.779   6.008   6.690 -0.4663 -0.5496  0.3831
  169SAPE   H3R19085   3.727   6.102   6.661 -0.4320 -1.2407 -2.0663
  169SAPE   H3S19086   3.876   6.016   6.637 -1.7106  2.1857 -1.7075
  169SAPE   C2419087   3.786   6.006   6.841  0.2398  0.0060  0.0198
  169SAPE   H4R19088   3.844   6.098   6.864 -1.1655  1.5632 -2.2031
  169SAPE   H4S19089   3.849   5.920   6.873 -0.5669 -0.3834  0.6188
  169SAPE   C2519090   3.657   6.016   6.913 -0.0059 -0.0687  0.6514
  169SAPE   H5R19091   3.568   5.993   6.854 -0.4143 -0.8747  1.5677
  169SAPE   C2619092   3.632   6.020   7.046 -0.5670  0.7667  0.3104
  169SAPE   H6R19093   3.527   6.017   7.079 -0.1507  0.8633  1.6862
  169SAPE   C2719094   3.741   6.034   7.152 -0.0571 -0.8580  0.1091
  169SAPE   H7R19095   3.779   6.137   7.170  0.6232 -0.9823 -0.5396
  169SAPE   H7S19096   3.842   5.993   7.127  0.2552  0.6850 -1.3771
  169SAPE   C2819097   3.694   5.971   7.275 -0.1174 -0.0627 -0.4393
  169SAPE   H8R19098   3.612   5.897   7.270 -1.3619  1.1184  1.3309
  169SAPE   C2919099   3.744   5.997   7.401 -0.2396 -0.4812  0.4648
  169SAPE   H9R19100   3.705   5.935   7.483  1.1349 -3.2289 -0.8158
  169SAPE  C21019101   3.851   6.088   7.447 -0.4453  0.8397 -0.1205
  169SAPE  H10R19102   3.822   6.132   7.545  1.6391  1.3020  0.3415
  169SAPE  H10S19103   3.875   6.180   7.389  1.7208  1.3466  1.4378
  169SAPE  C21119104   3.989   6.023   7.460  0.7959 -0.1307 -0.0839
  169SAPE  H11R19105   4.047   6.029   7.367 -0.5653  3.0323 -0.9026
  169SAPE  C21219106   4.056   5.989   7.573  0.1647  0.4675 -0.5658
  169SAPE  H12R19107   4.156   5.945   7.561  0.6324  1.6296 -1.1123
  169SAPE  C21319108   4.009   6.020   7.716  0.1606  0.4027  0.2713
  169SAPE  H13R19109   3.905   5.985   7.732 -0.6117  2.6370  0.3988
  169SAPE  H13S19110   4.013   6.129   7.733 -2.4264  0.4885  0.7133
  169SAPE  C21419111   4.091   5.937   7.818  0.3094 -0.2064 -0.6272
  169SAPE  H14R19112   4.139   5.851   7.769 -1.7996 -1.1377 -1.1853
  169SAPE  C21519113   4.110   5.962   7.947 -0.0305  0.2282 -0.1771
  169SAPE  H15R19114   4.152   5.883   8.011 -0.9543  0.7975  1.1907
  169SAPE  C21619115   4.049   6.075   8.018 -0.1351  0.3724  0.2787
  169SAPE  H16R19116   3.944   6.049   8.042 -0.6463  0.8770 -1.2772
  169SAPE  H16S19117   4.049   6.161   7.947  1.8118  0.4440  0.3174
  169SAPE  C21719118   4.135   6.110   8.142  0.2049 -0.0714  0.6728
  169SAPE  H17R19119   4.099   6.209   8.175 -0.8970  0.7470 -2.6230
  169SAPE  H17S19120   4.244   6.119   8.120  0.4912  1.0250  2.3859
  169SAPE  C21819121   4.111   6.014   8.260 -0.1383  0.1285 -0.9194
  169SAPE  H18R19122   4.136   5.910   8.229  0.9761  0.4799 -1.2337
  169SAPE  H18S19123   4.001   6.019   8.277 -0.0050 -0.2836  0.2086
  169SAPE  C21919124   4.193   6.051   8.385  0.4041  0.8241 -0.4518
  169SAPE  H19R19125   4.159   6.152   8.417  2.9832  1.5484  0.3254
  169SAPE  H19S19126   4.302   6.056   8.364  0.8813  1.3495  1.9248
  169SAPE  C22019127   4.175   5.949   8.497 -0.2911 -0.0974 -0.3495
  169SAPE  H20R19128   4.188   5.841   8.475 -0.2429 -0.3861  0.9990
  169SAPE  H20S19129   4.071   5.951   8.536  0.1960  2.0441  1.0365
  169SAPE  H20T19130   4.242   5.975   8.582 -0.9327 -1.8965  0.7663
  169SAPE   C3319131   4.236   5.909   6.987  0.0245 -0.5488  0.2505
  169SAPE   H3X19132   4.328   5.948   6.939 -0.7996  1.7662  0.4350
  169SAPE   H3Y19133   4.240   5.801   7.012  2.2663  0.0727  3.1963
  169SAPE   C3419134   4.229   5.981   7.124  0.4735  0.0253 -0.0646
  169SAPE   H4X19135   4.155   5.923   7.184  0.0879 -1.1322 -1.6003
  169SAPE   H4Y19136   4.195   6.085   7.108  0.9865 -0.1055 -2.3603
  169SAPE   C3519137   4.361   5.981   7.197  0.4896 -0.4685 -0.5847
  169SAPE   H5X19138   4.446   6.028   7.143  0.1986  1.2709  0.4128
  169SAPE   H5Y19139   4.390   5.874   7.190 -0.1907 -0.5575 -2.4523
  169SAPE   C3619140   4.377   6.038   7.337 -0.7014 -0.1718  0.0180
  169SAPE   H6X19141   4.310   5.979   7.403  0.9507 -1.9308  0.2405
  169SAPE   H6Y19142   4.357   6.147   7.347  0.1008 -0.1016  1.0600
  169SAPE   C3719143   4.521   6.005   7.390  0.4772 -0.2158 -0.0552
  169SAPE   H7X19144   4.597   6.074   7.346  1.0190  0.5931  2.0597
  169SAPE   H7Y19145   4.550   5.901   7.366 -2.3968 -1.3683  1.0339
  169SAPE   C3819146   4.523   6.025   7.547  0.0646  0.2553  0.0685
  169SAPE   H8X19147   4.441   5.959   7.582 -0.1344  0.2368 -0.4135
  169SAPE   H8Y19148   4.501   6.132   7.564  4.5589  1.7652 -2.0334
  169SAPE   C3919149   4.667   5.997   7.615  0.8036  0.4025  0.2874
  169SAPE   H9X19150   4.648   6.043   7.714 -1.4047  0.5751 -0.1634
  169SAPE   H9Y19151   4.748   6.060   7.572  1.6705  0.3725  1.8138
  169SAPE  C31019152   4.705   5.853   7.606  0.3801  0.3529  0.8462
  169SAPE  H10X19153   4.737   5.819   7.505  0.9451 -0.2745  1.2300
  169SAPE  H10Y19154   4.620   5.787   7.634  1.4223 -0.3728  2.4336
  169SAPE  C31119155   4.823   5.816   7.690  0.0908  0.3143 -0.1758
  169SAPE  H11X19156   4.909   5.870   7.646 -0.6331 -0.2398 -2.3733
  169SAPE  H11Y19157   4.845   5.708   7.676 -2.8353 -0.4204  0.1277
  169SAPE  C31219158   4.816   5.858   7.838 -0.1509  0.4832 -0.1384
  169SAPE  H12X19159   4.724   5.821   7.888  0.9272 -0.9029  0.9085
  169SAPE  H12Y19160   4.807   5.968   7.846  0.1574  0.5615 -0.7636
  169SAPE  C31319161   4.933   5.794   7.915  0.5860  0.5620 -0.2321
  169SAPE  H13X19162   5.030   5.841   7.889  0.8799 -0.2913 -0.7109
  169SAPE  H13Y19163   4.938   5.684   7.902 -0.1108  0.5158 -0.1268
  169SAPE  C31419164   4.913   5.819   8.067 -0.1988  0.4475 -0.8459
  169SAPE  H14X19165   4.809   5.790   8.094  1.0912 -1.7347  2.4403
  169SAPE  H14Y19166   4.921   5.928   8.087  0.7838 -0.0808  2.3457
  169SAPE  C31519167   5.011   5.742   8.163 -0.3539  0.2018 -0.5357
  169SAPE  H15X19168   5.111   5.773   8.127 -0.8635  1.0930 -1.2225
  169SAPE  H15Y19169   5.002   5.632   8.153  0.2149  0.1890 -0.9919
  169SAPE  C31619170   4.987   5.752   8.314 -0.2323 -0.1394 -0.5771
  169SAPE  H16X19171   4.906   5.680   8.341 -1.0189  1.0145  0.2064
  169SAPE  H16Y19172   4.950   5.850   8.351  0.0039 -0.4735  0.6045
  169SAPE  C31719173   5.102   5.704   8.413  0.4089 -0.0299  0.6215
  169SAPE  H17X19174   5.061   5.725   8.514  0.1104 -0.1155  0.5184
  169SAPE  H17Y19175   5.187   5.775   8.396 -0.8320  1.7773  1.6130
  169SAPE  C31819176   5.132   5.552   8.409  0.0479  0.4338  0.2339
  169SAPE  H18X19177   5.172   5.525   8.309 -3.2171 -2.8907 -0.3806
  169SAPE  H18Y19178   5.053   5.480   8.437 -1.6995  0.4433 -3.9077
  169SAPE  H18Z19179   5.226   5.527   8.464 -1.4217 -0.5007  2.4510
  170SAPE     N19180   4.816   2.081   6.336  0.2939 -0.1950  0.5946
  170SAPE   HN119181   4.908   2.123   6.362  1.6343 -2.4908 -0.1432
  170SAPE   HN219182   4.823   1.978   6.345  0.2323 -0.2777 -0.2172
  170SAPE   HN319183   4.791   2.099   6.236 -1.0414  1.1481  1.1246
  170SAPE   C1219184   4.708   2.132   6.433  0.1520  0.8084 -1.0856
  170SAPE  H12A19185   4.731   2.078   6.527 -1.2134 -0.9123 -1.6839
  170SAPE  H12B19186   4.605   2.113   6.397 -0.0975  1.9742 -1.0376
  170SAPE   C1119187   4.727   2.283   6.455 -0.2286  0.0250 -0.5431
  170SAPE  H11A19188   4.835   2.286   6.481 -0.0382 -3.1075 -0.5472
  170SAPE  H11B19189   4.664   2.307   6.543 -0.1288  0.0627 -0.4824
  170SAPE     P19190   4.559   2.410   6.287  0.0057  0.3616 -0.1111
  170SAPE   O1319191   4.585   2.536   6.218 -0.1729 -0.0536 -0.1784
  170SAPE   O1419192   4.482   2.307   6.218 -0.3102 -0.0220 -0.4397
  170SAPE   O1219193   4.698   2.357   6.338 -0.0959  0.0040  0.4216
  170SAPE   O1119194   4.489   2.448   6.427  0.4019 -0.6964 -0.0507
  170SAPE    C119195   4.445   2.582   6.456 -0.2279 -0.1659  1.0418
  170SAPE    HA19196   4.517   2.658   6.418 -1.5543  0.7498  0.2483
  170SAPE    HB19197   4.354   2.606   6.398 -0.3940  0.3530  1.4974
  170SAPE    C219198   4.431   2.612   6.603  0.0640  0.1136  0.3941
  170SAPE    HS19199   4.405   2.720   6.612 -1.4610 -0.0057 -1.8390
  170SAPE   O2119200   4.548   2.573   6.677 -0.7275 -0.5581 -0.2353
  170SAPE   C2119201   4.655   2.646   6.630  0.6469  0.3088 -0.1720
  170SAPE   O2219202   4.650   2.760   6.584 -0.1383 -0.3250 -0.4120
  170SAPE   C2219203   4.791   2.575   6.658  0.1403 -0.1256 -0.1725
  170SAPE   H2R19204   4.774   2.494   6.732  0.6435 -0.8232 -0.8080
  170SAPE   H2S19205   4.819   2.538   6.557  1.5945  1.4016 -0.3859
  170SAPE    C319206   4.311   2.538   6.657 -0.9492  0.1928  0.9850
  170SAPE    HX19207   4.338   2.430   6.658  1.3753  0.7011 -0.2394
  170SAPE    HY19208   4.229   2.538   6.583  1.8292 -1.4973 -2.3940
  170SAPE   O3119209   4.263   2.581   6.784 -0.7232  0.0721 -0.4804
  170SAPE   C3119210   4.208   2.701   6.778 -1.2837 -0.2277  1.2590
  170SAPE   O3219211   4.190   2.771   6.676  0.3408  0.7763  0.3444
  170SAPE   C3219212   4.186   2.744   6.923 -0.1746 -0.1427 -0.8961
  170SAPE   H2X19213   4.265   2.697   6.986  0.2719  2.2122  0.4039
  170SAPE   H2Y19214   4.082   2.711   6.942 -0.0107 -0.4391 -0.4953
  170SAPE   C2319215   4.891   2.672   6.710 -0.3113 -0.1516 -0.1446
  170SAPE   H3R19216   4.871   2.774   6.670 -0.8881 -0.3403 -0.3409
  170SAPE   H3S19217   4.990   2.640   6.670  0.3833  2.5053 -0.7516
  170SAPE   C2419218   4.907   2.661   6.863 -0.6324 -0.4428 -0.5259
  170SAPE   H4R19219   4.998   2.719   6.887 -1.0466 -0.2135  0.5240
  170SAPE   H4S19220   4.925   2.553   6.883  2.2173  0.1478  0.5421
  170SAPE   C2519221   4.793   2.717   6.946  0.7302  0.7101 -0.0648
  170SAPE   H5R19222   4.719   2.783   6.900 -0.3179  1.5487  2.6320
  170SAPE   C2619223   4.782   2.695   7.082 -0.9738 -0.1900 -0.6762
  170SAPE   H6R19224   4.706   2.748   7.141  1.0833 -0.0443  2.0139
  170SAPE   C2719225   4.872   2.603   7.163  0.4726  0.3379  0.2433
  170SAPE   H7R19226   4.893   2.657   7.258  0.8214 -2.8463  2.1377
  170SAPE   H7S19227   4.963   2.575   7.106 -0.2445 -1.1321 -0.2222
  170SAPE   C2819228   4.801   2.477   7.206  0.1793 -1.1842  0.8478
  170SAPE   H8R19229   4.708   2.439   7.162 -0.1806  0.0968  0.4479
  170SAPE   C2919230   4.845   2.402   7.318  0.5516  0.0245  0.7288
  170SAPE   H9R19231   4.780   2.320   7.352 -0.5037  0.6991  0.3937
  170SAPE  C21019232   4.969   2.428   7.399 -0.1772  0.3585 -0.6351
  170SAPE  H10R19233   5.036   2.507   7.358 -1.7679  2.0029 -0.1752
  170SAPE  H10S19234   5.038   2.342   7.410  0.8604  1.1377 -0.8764
  170SAPE  C21119235   4.923   2.466   7.543  0.3651  0.4207 -0.2974
  170SAPE  H11R19236   4.957   2.568   7.567  0.0978  0.5409 -0.4250
  170SAPE  C21219237   4.882   2.399   7.648 -1.0131 -0.1675  0.3840
  170SAPE  H12R19238   4.843   2.463   7.728 -0.9699  0.7984 -0.3475
  170SAPE  C21319239   4.864   2.252   7.661 -0.0021 -0.0152  0.2156
  170SAPE  H13R19240   4.953   2.216   7.718  0.9515  1.7461 -0.0863
  170SAPE  H13S19241   4.882   2.217   7.557  1.1623 -0.8660  0.6730
  170SAPE  C21419242   4.730   2.210   7.707 -0.2482 -0.4412  0.2218
  170SAPE  H14R19243   4.651   2.219   7.631  1.6721  1.0285 -1.7496
  170SAPE  C21519244   4.697   2.181   7.833 -0.2124 -0.4158 -1.0691
  170SAPE  H15R19245   4.601   2.134   7.857 -0.4440  0.6305  0.1521
  170SAPE  C21619246   4.802   2.175   7.943  0.2930 -0.1040 -0.0559
  170SAPE  H16R19247   4.910   2.182   7.915  1.6042 -1.1884  3.9218
  170SAPE  H16S19248   4.798   2.068   7.971  1.5943 -0.0855  0.2827
  170SAPE  C21719249   4.779   2.262   8.071 -0.1926 -0.2142 -0.1954
  170SAPE  H17R19250   4.852   2.229   8.148 -3.6566  0.3480  3.6609
  170SAPE  H17S19251   4.681   2.242   8.120  0.0419 -1.6595 -0.2533
  170SAPE  C21819252   4.799   2.417   8.056  0.3938  0.5748  0.0643
  170SAPE  H18R19253   4.718   2.472   8.002 -1.6547  0.2108  2.5809
  170SAPE  H18S19254   4.891   2.427   7.995  0.1072 -0.2233 -0.5212
  170SAPE  C21919255   4.834   2.487   8.190  0.0059  0.0193  0.1728
  170SAPE  H19R19256   4.875   2.588   8.168  0.1949 -0.1975 -0.4852
  170SAPE  H19S19257   4.922   2.426   8.220  0.6753 -0.6698 -2.8915
  170SAPE  C22019258   4.722   2.504   8.297  0.0285 -1.1750  0.4471
  170SAPE  H20R19259   4.658   2.416   8.320 -1.2013 -0.2387  0.7372
  170SAPE  H20S19260   4.648   2.583   8.272 -1.3894 -2.3119  0.9490
  170SAPE  H20T19261   4.770   2.529   8.394 -0.3160 -0.8190  0.5298
  170SAPE   C3319262   4.201   2.897   6.943  0.4311  0.2973  0.2974
  170SAPE   H3X19263   4.111   2.939   6.994 -0.9688  1.0890 -2.5927
  170SAPE   H3Y19264   4.215   2.959   6.852 -2.4050  1.5126  0.5500
  170SAPE   C3419265   4.310   2.939   7.037  0.6751 -0.1043  0.1021
  170SAPE   H4X19266   4.303   2.880   7.131 -0.0606 -1.9850 -1.0672
  170SAPE   H4Y19267   4.291   3.047   7.053 -1.2802 -0.1853 -1.2487
  170SAPE   C3519268   4.450   2.924   6.972  0.0324  0.5927  0.4235
  170SAPE   H5X19269   4.436   2.970   6.871  1.7545  0.5049  0.1148
  170SAPE   H5Y19270   4.470   2.815   6.966  1.0166  0.6682  1.9227
  170SAPE   C3619271   4.566   3.000   7.045 -0.6369  0.2163 -0.7589
  170SAPE   H6X19272   4.551   3.109   7.028 -2.0102  0.0391 -0.8425
  170SAPE   H6Y19273   4.665   2.976   7.002 -0.5578 -0.0057 -0.4566
  170SAPE   C3719274   4.571   2.971   7.198 -0.3008 -0.3969 -0.0236
  170SAPE   H7X19275   4.549   2.863   7.211 -1.8143 -0.8143 -4.2448
  170SAPE   H7Y19276   4.481   3.023   7.237  1.3735  0.6801  2.6419
  170SAPE   C3819277   4.694   3.028   7.265  0.1016 -0.3926 -0.7479
  170SAPE   H8X19278   4.703   3.131   7.226  0.5543  0.3076  1.1239
  170SAPE   H8Y19279   4.787   2.978   7.232  2.0982  2.0741  0.8432
  170SAPE   C3919280   4.692   3.042   7.415 -0.3280  0.4745  0.1270
  170SAPE   H9X19281   4.784   3.095   7.449  0.9326 -1.2649 -0.4033
  170SAPE   H9Y19282   4.700   2.938   7.455 -0.9806  0.3068 -0.1750
  170SAPE  C31019283   4.572   3.111   7.472 -0.5167 -0.9961 -0.0997
  170SAPE  H10X19284   4.476   3.078   7.428 -0.5031 -1.1108 -0.0431
  170SAPE  H10Y19285   4.584   3.219   7.446  1.1421 -1.7680 -3.0601
  170SAPE  C31119286   4.566   3.106   7.623  0.6864  1.1039 -0.5625
  170SAPE  H11X19287   4.665   3.138   7.662  3.1218 -2.9100 -2.7370
  170SAPE  H11Y19288   4.549   2.998   7.640  1.3032  0.9411 -0.9507
  170SAPE  C31219289   4.447   3.186   7.677 -0.2255 -0.5498 -0.3547
  170SAPE  H12X19290   4.354   3.141   7.637  1.0973 -0.8654 -3.3387
  170SAPE  H12Y19291   4.454   3.293   7.650 -0.2819 -0.3619  0.3420
  170SAPE  C31319292   4.448   3.183   7.835 -0.5818 -1.1757  0.1891
  170SAPE  H13X19293   4.536   3.240   7.872 -2.1615  0.7931  1.1114
  170SAPE  H13Y19294   4.449   3.078   7.871  0.1110 -1.0327  0.6016
  170SAPE  C31419295   4.325   3.259   7.898  0.1395 -0.6136  0.0358
  170SAPE  H14X19296   4.238   3.237   7.834  0.0226 -0.1944  0.0447
  170SAPE  H14Y19297   4.342   3.369   7.893  0.2640 -0.6788 -1.8347
  170SAPE  C31519298   4.305   3.212   8.046 -0.1638 -0.2244  0.4498
  170SAPE  H15X19299   4.266   3.109   8.033  0.7719 -0.2872 -2.4805
  170SAPE  H15Y19300   4.228   3.272   8.100  1.7003  1.7191  1.0599
  170SAPE  C31619301   4.433   3.223   8.136 -0.4249  0.4577 -1.0473
  170SAPE  H16X19302   4.464   3.328   8.120 -1.5475  0.9309 -0.2631
  170SAPE  H16Y19303   4.514   3.156   8.102 -1.6492 -1.2077 -0.8311
  170SAPE  C31719304   4.415   3.196   8.290 -0.1251  0.0864  0.3134
  170SAPE  H17X19305   4.387   3.089   8.294 -3.9326  0.7645 -2.6335
  170SAPE  H17Y19306   4.329   3.252   8.332  0.8444  0.2202  2.2272
  170SAPE  C31819307   4.538   3.227   8.371 -0.2529  0.3276 -0.3299
  170SAPE  H18X19308   4.631   3.178   8.335  0.2700  0.7250  0.4639
  170SAPE  H18Y19309   4.521   3.197   8.476  3.3468  0.1224  0.3424
  170SAPE  H18Z19310   4.560   3.336   8.367 -1.1064  0.5006 -0.4098
  171SAPE     N19311   6.429   5.052   5.948  0.5339  0.2855 -0.0816
  171SAPE   HN119312   6.440   5.154   5.930  1.7430  0.6744  2.3913
  171SAPE   HN219313   6.511   4.996   5.915 -0.1844 -1.3041  0.7332
  171SAPE   HN319314   6.351   5.017   5.888  1.2481  1.7471 -1.9673
  171SAPE   C1219315   6.406   5.031   6.100  0.1988 -0.3704  0.1830
  171SAPE  H12A19316   6.403   4.921   6.112 -0.9529 -0.3626  0.0320
  171SAPE  H12B19317   6.310   5.079   6.128 -0.4168 -2.4332  1.7590
  171SAPE   C1119318   6.520   5.117   6.172  0.1712 -0.3233 -0.5191
  171SAPE  H11A19319   6.618   5.064   6.170  0.5045 -0.0603  2.6160
  171SAPE  H11B19320   6.500   5.113   6.282 -0.3619  0.1366 -0.5954
  171SAPE     P19321   6.453   5.371   6.180 -0.2614 -0.0549 -0.0922
  171SAPE   O1319322   6.507   5.504   6.149  0.1431 -0.0022 -0.3611
  171SAPE   O1419323   6.310   5.350   6.160  0.1075 -0.3843 -0.5013
  171SAPE   O1219324   6.537   5.254   6.110 -0.0866  0.4180 -0.6763
  171SAPE   O1119325   6.485   5.329   6.334 -0.3777 -0.4250  0.5475
  171SAPE    C119326   6.606   5.370   6.402 -0.4374  0.0558 -0.4217
  171SAPE    HA19327   6.649   5.463   6.360 -2.9813  2.5861  2.2014
  171SAPE    HB19328   6.588   5.397   6.508  1.4275  1.6286 -0.4491
  171SAPE    C219329   6.724   5.265   6.400 -0.2923 -0.0542 -0.5649
  171SAPE    HS19330   6.732   5.215   6.301  1.0092 -1.8984  0.4163
  171SAPE   O2119331   6.703   5.161   6.505 -0.3027  0.1636 -0.0185
  171SAPE   C2119332   6.786   5.061   6.491  0.1427  0.2370 -1.1727
  171SAPE   O2219333   6.872   5.048   6.408 -0.4267 -0.7549  0.1759
  171SAPE   C2219334   6.760   4.959   6.602  0.3257 -0.5237  0.1842
  171SAPE   H2R19335   6.781   5.008   6.699 -0.7580  2.0694 -0.8034
  171SAPE   H2S19336   6.649   4.953   6.611  0.3179 -2.0911 -0.5240
  171SAPE    C319337   6.861   5.341   6.425 -0.5547  0.5602 -1.0365
  171SAPE    HX19338   6.869   5.425   6.352 -1.0522  1.7239  0.2141
  171SAPE    HY19339   6.941   5.266   6.407 -0.3752  0.8665 -1.5466
  171SAPE   O3119340   6.850   5.400   6.556  0.8241 -0.4109 -0.0185
  171SAPE   C3119341   6.917   5.346   6.660 -0.4147  0.1705 -0.2821
  171SAPE   O3219342   6.990   5.251   6.649  0.5121  0.7313  0.0456
  171SAPE   C3219343   6.887   5.419   6.791  0.0098 -0.6625 -0.5274
  171SAPE   H2X19344   6.776   5.424   6.797 -0.2765 -1.6861 -3.4435
  171SAPE   H2Y19345   6.911   5.523   6.762 -1.1663 -0.7609 -1.9934
  171SAPE   C2319346   6.819   4.814   6.587  0.0906 -0.0428 -0.5371
  171SAPE   H3R19347   6.929   4.819   6.572  0.3306 -2.4612  0.0434
  171SAPE   H3S19348   6.781   4.768   6.493  1.4879  1.9958 -2.1882
  171SAPE   C2419349   6.785   4.723   6.705 -0.4589  0.0535 -0.5625
  171SAPE   H4R19350   6.832   4.760   6.798 -0.8016  0.9713 -0.7417
  171SAPE   H4S19351   6.821   4.621   6.679  2.7513  0.9280  0.0303
  171SAPE   C2519352   6.638   4.704   6.719  0.7990 -0.0674  0.1887
  171SAPE   H5R19353   6.591   4.705   6.619  2.3324  1.9573 -0.5922
  171SAPE   C2619354   6.564   4.706   6.828 -0.0234 -0.5503  0.4470
  171SAPE   H6R19355   6.456   4.709   6.806  0.1180 -0.0288 -0.1757
  171SAPE   C2719356   6.608   4.723   6.971 -0.8653 -0.2396 -0.6272
  171SAPE   H7R19357   6.519   4.760   7.025  0.5472  2.9673 -0.2917
  171SAPE   H7S19358   6.685   4.803   6.971 -2.0567  0.9497 -1.7736
  171SAPE   C2819359   6.663   4.595   7.037  0.3101  0.0676  0.8532
  171SAPE   H8R19360   6.668   4.509   6.970  0.9845  1.0859 -0.4593
  171SAPE   C2919361   6.685   4.589   7.168 -0.8441 -0.2472 -0.5751
  171SAPE   H9R19362   6.708   4.493   7.218 -1.0591 -1.5169 -2.7962
  171SAPE  C21019363   6.664   4.696   7.279 -0.0176  0.2377 -0.8617
  171SAPE  H10R19364   6.571   4.670   7.334 -3.1695  1.7365 -4.9794
  171SAPE  H10S19365   6.659   4.804   7.253 -1.2771  0.9247  1.8415
  171SAPE  C21119366   6.781   4.687   7.378  0.1553 -0.2951 -0.2525
  171SAPE  H11R19367   6.849   4.602   7.363  2.8228  2.0403 -2.4647
  171SAPE  C21219368   6.808   4.771   7.485 -0.3033  0.5618  0.1169
  171SAPE  H12R19369   6.900   4.742   7.539  0.2408  1.1911 -0.4472
  171SAPE  C21319370   6.733   4.889   7.521  0.2362  0.6953 -0.2169
  171SAPE  H13R19371   6.679   4.932   7.434 -0.1296  0.6012 -0.0397
  171SAPE  H13S19372   6.799   4.976   7.538 -0.4221  1.4975 -1.6135
  171SAPE  C21419373   6.643   4.861   7.641  0.2695 -0.6307  0.3367
  171SAPE  H14R19374   6.558   4.799   7.608  1.0714 -0.0952 -3.0852
  171SAPE  C21519375   6.647   4.912   7.763  0.2597  0.6182  0.0315
  171SAPE  H15R19376   6.575   4.883   7.842  2.1666  1.4854  2.1933
  171SAPE  C21619377   6.747   5.006   7.807  0.6991 -0.5133 -0.4570
  171SAPE  H16R19378   6.768   5.068   7.717 -1.5454  0.7053 -0.2238
  171SAPE  H16S19379   6.840   4.963   7.850  1.4599  2.1722  0.8478
  171SAPE  C21719380   6.696   5.094   7.926 -0.4470 -0.5747 -0.0089
  171SAPE  H17R19381   6.585   5.093   7.927 -0.4895 -3.2834 -0.5058
  171SAPE  H17S19382   6.744   5.195   7.930 -1.0933 -0.1890 -1.3562
  171SAPE  C21819383   6.735   5.026   8.067  0.2095 -0.0436  0.4159
  171SAPE  H18R19384   6.844   5.044   8.078  0.0806  0.2916  1.2213
  171SAPE  H18S19385   6.726   4.915   8.072  0.6091 -0.0270  2.5306
  171SAPE  C21919386   6.671   5.094   8.192 -0.2754 -0.2261 -0.4650
  171SAPE  H19R19387   6.690   5.021   8.274  0.2954  1.7379  1.2479
  171SAPE  H19S19388   6.563   5.110   8.172 -0.5003 -0.4244  0.5361
  171SAPE  C22019389   6.743   5.230   8.240 -0.4147 -0.3716  0.9909
  171SAPE  H20R19390   6.823   5.197   8.310  0.8386 -0.5168 -0.4389
  171SAPE  H20S19391   6.678   5.302   8.293 -1.2581 -0.4865  0.1317
  171SAPE  H20T19392   6.782   5.280   8.149 -2.9550  0.7732  0.4679
  171SAPE   C3319393   6.964   5.377   6.918  0.5494 -0.9047 -0.3052
  171SAPE   H3X19394   7.070   5.366   6.888  0.5965  1.1842 -1.0360
  171SAPE   H3Y19395   6.933   5.273   6.944 -0.3256 -0.1830  1.7216
  171SAPE   C3419396   6.943   5.469   7.041  0.2256  0.5264 -0.0508
  171SAPE   H4X19397   6.981   5.568   7.007  0.3178  0.1071 -1.1793
  171SAPE   H4Y19398   6.990   5.424   7.131 -1.2472  0.6896  0.8431
  171SAPE   C3519399   6.796   5.483   7.082  0.3165  0.0265 -0.0671
  171SAPE   H5X19400   6.755   5.380   7.093 -0.7517  0.6414  2.4386
  171SAPE   H5Y19401   6.748   5.532   6.995  1.5206 -0.7739 -1.2250
  171SAPE   C3619402   6.782   5.550   7.217 -0.1300 -0.1031  0.3292
  171SAPE   H6X19403   6.820   5.654   7.216  4.3694 -1.4122  3.6947
  171SAPE   H6Y19404   6.843   5.484   7.282 -0.2663 -2.6698 -1.9683
  171SAPE   C3719405   6.635   5.558   7.262 -1.2556 -0.3798  0.5772
  171SAPE   H7X19406   6.584   5.460   7.275  0.1404 -1.4691 -1.4109
  171SAPE   H7Y19407   6.593   5.611   7.174  0.5535 -0.7376 -0.5638
  171SAPE   C3819408   6.604   5.639   7.392 -0.7467 -0.1508  0.4712
  171SAPE   H8X19409   6.494   5.645   7.396 -0.8913 -0.8160 -1.4385
  171SAPE   H8Y19410   6.648   5.740   7.376  0.1292 -0.4303  1.0343
  171SAPE   C3919411   6.658   5.594   7.526  0.2273 -0.2838  0.3031
  171SAPE   H9X19412   6.642   5.684   7.589  2.0549  0.4250 -0.1650
  171SAPE   H9Y19413   6.764   5.566   7.509  0.6095  1.3151 -0.1117
  171SAPE  C31019414   6.566   5.488   7.589 -0.3970 -0.3044  0.7015
  171SAPE  H10X19415   6.615   5.389   7.583 -0.0801 -0.0597 -1.5573
  171SAPE  H10Y19416   6.473   5.487   7.529 -0.5238 -0.7907  0.9053
  171SAPE  C31119417   6.544   5.511   7.742 -0.1471  0.3454 -0.1041
  171SAPE  H11X19418   6.479   5.599   7.762  0.2521  0.4101  0.9892
  171SAPE  H11Y19419   6.647   5.522   7.783 -0.5873  0.0038  1.1441
  171SAPE  C31219420   6.474   5.383   7.794  0.2487  0.5648 -0.1496
  171SAPE  H12X19421   6.515   5.294   7.742  0.1759 -0.6923  1.8456
  171SAPE  H12Y19422   6.369   5.387   7.757 -0.1323  1.5341  0.9620
  171SAPE  C31319423   6.465   5.365   7.948 -0.0754 -0.5332  0.5631
  171SAPE  H13X19424   6.551   5.313   7.995 -0.1620  0.2568  1.6201
  171SAPE  H13Y19425   6.365   5.322   7.970 -0.1362 -1.2770 -1.0316
  171SAPE  C31419426   6.452   5.498   8.018 -0.4921  0.3888 -0.0663
  171SAPE  H14X19427   6.360   5.548   7.982 -0.0092  1.5017  0.2216
  171SAPE  H14Y19428   6.544   5.557   8.000 -0.5716 -0.0932 -2.2132
  171SAPE  C31519429   6.430   5.469   8.160  0.2053  0.2297 -0.3628
  171SAPE  H15X19430   6.513   5.406   8.200  0.1902  0.7937  0.5823
  171SAPE  H15Y19431   6.334   5.418   8.185  0.5389  0.2312  1.0303
  171SAPE  C31619432   6.433   5.591   8.253  0.1969  0.1889 -0.4360
  171SAPE  H16X19433   6.328   5.624   8.266  0.1021  0.2816 -1.3519
  171SAPE  H16Y19434   6.495   5.662   8.195 -0.8767  0.1517 -1.6531
  171SAPE  C31719435   6.504   5.585   8.390 -0.7318  0.4943  0.2166
  171SAPE  H17X19436   6.482   5.678   8.446 -0.6039 -1.7105  4.2779
  171SAPE  H17Y19437   6.612   5.561   8.381 -0.8682 -0.2661  0.5862
  171SAPE  C31819438   6.456   5.468   8.478 -0.2942 -0.1047 -0.0286
  171SAPE  H18X19439   6.345   5.470   8.490 -0.4193 -0.0784 -1.0856
  171SAPE  H18Y19440   6.501   5.463   8.579  1.5871  1.6686 -0.7101
  171SAPE  H18Z19441   6.483   5.370   8.435  2.2277 -0.3625  1.9171
  172SAPE     N19442   4.177   2.497   5.967 -0.0514  0.1907  0.0722
  172SAPE   HN119443   4.088   2.546   5.948  0.3915  0.5936 -1.0570
  172SAPE   HN219444   4.261   2.552   5.938  0.8934  1.2303  4.2140
  172SAPE   HN319445   4.174   2.402   5.927 -1.2101  0.6377 -0.9555
  172SAPE   C1219446   4.193   2.486   6.117  0.2292 -0.1712 -0.3169
  172SAPE  H12A19447   4.295   2.447   6.137  0.3206 -0.5824 -1.5418
  172SAPE  H12B19448   4.121   2.412   6.159  0.3419  1.6885  3.6037
  172SAPE   C1119449   4.158   2.623   6.181 -0.0112 -0.0063  0.0848
  172SAPE  H11A19450   4.245   2.691   6.172 -0.5572  0.6416 -0.3762
  172SAPE  H11B19451   4.129   2.599   6.286 -1.1278  2.1834  0.3569
  172SAPE     P19452   3.973   2.819   6.166  0.3778  0.0329 -0.2186
  172SAPE   O1319453   4.057   2.938   6.187 -0.4055  0.5041  0.1279
  172SAPE   O1419454   3.838   2.847   6.097  0.4194  0.0982 -0.4673
  172SAPE   O1219455   4.051   2.691   6.109 -0.1379  0.4947 -0.2113
  172SAPE   O1119456   3.939   2.773   6.314 -0.3323 -0.1059 -0.3273
  172SAPE    C119457   3.846   2.663   6.319  0.7719 -0.2348 -0.3841
  172SAPE    HA19458   3.746   2.695   6.285  0.6296  0.1276  0.3514
  172SAPE    HB19459   3.876   2.567   6.273 -2.2536 -2.5301  2.0029
  172SAPE    C219460   3.820   2.612   6.466  0.0991  0.3371 -0.0209
  172SAPE    HS19461   3.766   2.515   6.458 -0.9691  1.0453 -1.9927
  172SAPE   O2119462   3.746   2.710   6.549  0.4932 -0.1100 -0.2413
  172SAPE   C2119463   3.659   2.655   6.633 -0.1454  1.0228  0.2953
  172SAPE   O2219464   3.649   2.537   6.668 -0.0482 -0.3669  0.3467
  172SAPE   C2219465   3.572   2.761   6.683 -0.2057  0.0331 -1.0190
  172SAPE   H2R19466   3.544   2.822   6.594  0.1581 -0.2860 -1.3546
  172SAPE   H2S19467   3.485   2.709   6.728  0.1214  1.9043  2.0501
  172SAPE    C319468   3.963   2.576   6.535  0.1199 -0.4334 -0.0525
  172SAPE    HX19469   4.012   2.675   6.541 -1.3574  0.3711 -0.6454
  172SAPE    HY19470   4.018   2.522   6.456  0.8511  0.7188 -0.3455
  172SAPE   O3119471   3.955   2.514   6.662  0.0938  0.3726 -0.1380
  172SAPE   C3119472   3.931   2.382   6.664  0.8348 -0.5133  0.6322
  172SAPE   O3219473   3.917   2.312   6.568  1.1518  0.5620  0.2532
  172SAPE   C3219474   3.901   2.342   6.805 -0.4200 -0.5458  0.1238
  172SAPE   H2X19475   3.795   2.361   6.831 -0.4049  0.1517 -0.3070
  172SAPE   H2Y19476   3.963   2.401   6.876 -0.3959 -2.2816  1.6132
  172SAPE   C2319477   3.652   2.860   6.787 -0.7051  0.2288  0.7895
  172SAPE   H3R19478   3.609   2.960   6.765 -0.8040  0.0665  0.2280
  172SAPE   H3S19479   3.760   2.869   6.761 -0.6397  0.5000  1.1474
  172SAPE   C2419480   3.629   2.832   6.938  0.0117 -0.4122 -0.1034
  172SAPE   H4R19481   3.518   2.826   6.944 -0.0747  1.7081  4.0425
  172SAPE   H4S19482   3.664   2.924   6.989 -2.7652  1.7582 -1.7696
  172SAPE   C2519483   3.702   2.702   6.986  0.6500 -0.0170 -0.0497
  172SAPE   H5R19484   3.720   2.622   6.913  0.9157  2.1521 -2.4760
  172SAPE   C2619485   3.770   2.688   7.100  0.4490  0.7301 -0.7003
  172SAPE   H6R19486   3.812   2.591   7.134 -1.3985  1.1354  3.3822
  172SAPE   C2719487   3.783   2.789   7.209  0.2313 -0.1401  1.1346
  172SAPE   H7R19488   3.796   2.747   7.311  2.3543 -0.9101  0.5810
  172SAPE   H7S19489   3.687   2.845   7.219  0.3379  0.4793 -0.8484
  172SAPE   C2819490   3.901   2.887   7.179 -0.0993  0.5236 -0.6757
  172SAPE   H8R19491   3.903   2.927   7.077 -2.8885 -1.1899 -1.5359
  172SAPE   C2919492   3.998   2.916   7.267 -0.4921 -0.0311  0.1833
  172SAPE   H9R19493   4.074   2.989   7.235 -0.1823  0.2701  1.5586
  172SAPE  C21019494   4.005   2.863   7.405 -0.2125  0.2235 -0.3384
  172SAPE  H10R19495   4.014   2.753   7.392 -2.5226  0.1005 -1.4137
  172SAPE  H10S19496   3.910   2.880   7.460  0.7149 -0.2387  1.4950
  172SAPE  C21119497   4.122   2.916   7.485 -0.0654 -0.0104  0.2131
  172SAPE  H11R19498   4.113   3.016   7.529 -0.1194  2.3067 -4.4045
  172SAPE  C21219499   4.242   2.856   7.491 -0.9662  0.1410  0.1083
  172SAPE  H12R19500   4.325   2.900   7.548 -0.1240  1.2801 -1.9105
  172SAPE  C21319501   4.288   2.730   7.421  0.5137 -0.9340  0.0577
  172SAPE  H13R19502   4.260   2.751   7.315  0.3950  0.8025  0.4061
  172SAPE  H13S19503   4.243   2.641   7.469 -0.9388 -0.2364  0.0714
  172SAPE  C21419504   4.431   2.717   7.403 -1.0841 -0.6154 -0.0548
  172SAPE  H14R19505   4.491   2.810   7.407  0.6809 -1.7055  0.0299
  172SAPE  C21519506   4.501   2.608   7.377 -0.4006  0.0463  0.5033
  172SAPE  H15R19507   4.610   2.625   7.368  0.0189 -2.2305  0.6131
  172SAPE  C21619508   4.450   2.467   7.353  0.1232  0.7381  0.0090
  172SAPE  H16R19509   4.481   2.427   7.254 -0.4589 -0.4945  0.3034
  172SAPE  H16S19510   4.339   2.464   7.354  0.1223  0.7917  1.0832
  172SAPE  C21719511   4.498   2.374   7.464 -0.5752  0.4144  0.0751
  172SAPE  H17R19512   4.609   2.380   7.461 -0.2950 -2.8043 -0.1221
  172SAPE  H17S19513   4.473   2.270   7.434 -3.4325  1.5026 -1.7566
  172SAPE  C21819514   4.447   2.397   7.602  0.6793 -1.0684 -0.2298
  172SAPE  H18R19515   4.433   2.506   7.622  0.8075 -1.1117  0.0851
  172SAPE  H18S19516   4.516   2.366   7.683 -0.0267 -1.3141  0.2787
  172SAPE  C21919517   4.316   2.321   7.641 -0.0581  0.4126  0.0087
  172SAPE  H19R19518   4.350   2.217   7.663  3.2021  1.3133 -0.3126
  172SAPE  H19S19519   4.247   2.310   7.555 -1.4569 -1.9798  1.3183
  172SAPE  C22019520   4.229   2.370   7.750  0.3641  0.0829 -0.1358
  172SAPE  H20R19521   4.281   2.365   7.849  0.7241 -1.3362 -0.3731
  172SAPE  H20S19522   4.130   2.320   7.747  0.8931 -1.0780  0.8486
  172SAPE  H20T19523   4.205   2.477   7.736  0.1992 -0.0848 -1.1662
  172SAPE   C3319524   3.921   2.196   6.835 -0.4699  0.3561 -0.1080
  172SAPE   H3X19525   4.030   2.171   6.834 -0.2452  1.1607 -2.2895
  172SAPE   H3Y19526   3.876   2.125   6.762  0.4349 -0.2976 -0.0574
  172SAPE   C3419527   3.859   2.164   6.977  0.7619  0.2740  0.3088
  172SAPE   H4X19528   3.899   2.229   7.058  2.2721  0.0936 -0.2494
  172SAPE   H4Y19529   3.893   2.060   6.992 -1.8967 -0.8775 -0.9356
  172SAPE   C3519530   3.702   2.182   6.972  0.0561 -0.1676 -0.3155
  172SAPE   H5X19531   3.667   2.144   6.874 -0.4443 -0.3266 -0.0799
  172SAPE   H5Y19532   3.681   2.291   6.987 -0.2726 -0.4133  1.1791
  172SAPE   C3619533   3.629   2.101   7.080  0.2381 -0.1858  0.2994
  172SAPE   H6X19534   3.646   1.994   7.056 -1.1356  0.0468 -2.0453
  172SAPE   H6Y19535   3.521   2.113   7.060  0.6583  0.8197 -1.5788
  172SAPE   C3719536   3.669   2.148   7.223  0.4576 -0.9884  0.0061
  172SAPE   H7X19537   3.680   2.259   7.216  0.4837 -0.9751  0.2742
  172SAPE   H7Y19538   3.767   2.102   7.247  0.3903 -1.4325 -0.5304
  172SAPE   C3819539   3.568   2.104   7.328 -0.5643 -0.4952  0.7274
  172SAPE   H8X19540   3.560   1.993   7.333  3.5956 -1.0794 -1.3181
  172SAPE   H8Y19541   3.475   2.137   7.277  0.4719  1.7117  0.1403
  172SAPE   C3919542   3.585   2.181   7.458  0.3800 -0.4560  0.0120
  172SAPE   H9X19543   3.595   2.290   7.436  0.5338 -0.5253 -0.2632
  172SAPE   H9Y19544   3.685   2.152   7.497  2.8901  0.8563 -4.6513
  172SAPE  C31019545   3.469   2.165   7.557  1.0740 -0.1865  0.0430
  172SAPE  H10X19546   3.462   2.058   7.588 -1.2701 -0.1796 -0.3093
  172SAPE  H10Y19547   3.373   2.174   7.502  1.4667 -0.0898 -0.6286
  172SAPE  C31119548   3.459   2.255   7.679  0.0381  0.7274 -0.3661
  172SAPE  H11X19549   3.477   2.360   7.649 -0.9037  0.3617 -2.3663
  172SAPE  H11Y19550   3.539   2.223   7.749 -0.9354 -3.2457 -0.8326
  172SAPE  C31219551   3.318   2.233   7.741  0.0796 -0.0906 -0.2240
  172SAPE  H12X19552   3.288   2.128   7.719 -0.9860  0.1014  0.2524
  172SAPE  H12Y19553   3.239   2.288   7.686 -1.7447 -0.8749  1.4916
  172SAPE  C31319554   3.311   2.292   7.885  0.4573  0.1665 -0.2258
  172SAPE  H13X19555   3.395   2.250   7.945 -0.7901 -0.8327  0.8699
  172SAPE  H13Y19556   3.213   2.258   7.924  0.0213 -1.5617 -2.6060
  172SAPE  C31419557   3.325   2.438   7.900 -0.3311 -0.8865  0.4449
  172SAPE  H14X19558   3.237   2.486   7.852 -0.3414 -2.3416 -1.0666
  172SAPE  H14Y19559   3.407   2.477   7.838 -1.5541  0.6567 -0.2586
  172SAPE  C31519560   3.339   2.488   8.040  0.1081 -0.8224 -0.2342
  172SAPE  H15X19561   3.444   2.473   8.070 -0.0159 -1.8278 -0.2914
  172SAPE  H15Y19562   3.292   2.408   8.101  1.6943 -1.3583  0.3075
  172SAPE  C31619563   3.274   2.615   8.080 -0.0625 -0.7122 -0.3121
  172SAPE  H16X19564   3.268   2.616   8.191 -2.7130  0.2381 -0.3908
  172SAPE  H16Y19565   3.166   2.614   8.053 -0.9427 -0.6603  2.8353
  172SAPE  C31719566   3.343   2.748   8.038  1.4832  0.2508 -0.1383
  172SAPE  H17X19567   3.273   2.831   8.060  1.1082  0.0469 -0.5451
  172SAPE  H17Y19568   3.361   2.762   7.929  1.4004  2.7775  0.1037
  172SAPE  C31819569   3.468   2.767   8.114  0.0973  0.3816  0.1076
  172SAPE  H18X19570   3.521   2.862   8.092 -1.1649  1.1276  0.2385
  172SAPE  H18Y19571   3.542   2.691   8.081 -0.1473  0.6522 -1.0934
  172SAPE  H18Z19572   3.455   2.755   8.224 -0.6300  0.3966  0.0270
  173SOPE     N19573   1.435   6.578  10.835 -0.0874 -0.1490  0.3273
  173SOPE   HN119574   1.432   6.494  10.897 -3.0884  0.4304  1.1181
  173SOPE   HN219575   1.528   6.581  10.788 -0.5823 -2.3244 -0.9684
  173SOPE   HN319576   1.420   6.668  10.884 -0.3120  1.0648 -1.8196
  173SOPE   C1219577   1.339   6.563  10.717 -0.4385  0.0709  0.3330
  173SOPE  H12A19578   1.359   6.462  10.676 -2.3696 -0.1671 -0.1484
  173SOPE  H12B19579   1.358   6.644  10.644 -1.4237 -1.1964 -1.3889
  173SOPE   C1119580   1.189   6.569  10.767 -0.4513 -0.1920 -0.6370
  173SOPE  H11A19581   1.178   6.498  10.853 -2.0669  0.0735 -0.5888
  173SOPE  H11B19582   1.127   6.532  10.683 -0.9422  0.1087 -0.4091
  173SOPE     P19583   1.049   6.800  10.767  0.2838  0.0634 -0.2843
  173SOPE   O1319584   1.050   6.921  10.854 -0.1982 -0.8204  0.2077
  173SOPE   O1419585   0.925   6.720  10.754  0.3881  0.1770 -0.0831
  173SOPE   O1219586   1.167   6.700  10.821 -0.9200  0.2632 -0.4727
  173SOPE   O1119587   1.103   6.840  10.620 -0.2951  0.2516 -0.1702
  173SOPE    C119588   1.238   6.897  10.615  0.2157  0.2182 -0.4000
  173SOPE    HA19589   1.307   6.823  10.571  0.9316 -0.3716  1.6101
  173SOPE    HB19590   1.291   6.909  10.712  0.6690 -1.8919 -0.3567
  173SOPE    C219591   1.252   7.021  10.524  0.2320 -0.7750 -0.2912
  173SOPE    HS19592   1.177   7.099  10.549 -0.8972 -2.3757  1.6398
  173SOPE   O2119593   1.243   6.977  10.389 -0.0630  0.6946 -0.5818
  173SOPE   C2119594   1.127   6.975  10.334  0.3753  0.9743 -0.3793
  173SOPE   O2219595   1.021   7.025  10.372  0.0274  0.1000  0.2148
  173SOPE   C2219596   1.143   6.913  10.193 -0.5438  0.4334 -0.0392
  173SOPE   H2R19597   1.083   6.820  10.189 -0.4061  0.3623 -0.4514
  173SOPE   H2S19598   1.250   6.891  10.175 -0.1420  2.7041 -0.8080
  173SOPE    C319599   1.383   7.084  10.553 -0.6341  0.8194  0.0008
  173SOPE    HX19600   1.459   7.005  10.534 -0.5429  0.8699  0.1520
  173SOPE    HY19601   1.407   7.109  10.658 -2.7843 -0.7870  0.9473
  173SOPE   O3119602   1.413   7.190  10.458 -0.1106  0.2849 -0.1456
  173SOPE   C3119603   1.352   7.306  10.485  0.3163  0.1065 -0.0584
  173SOPE   O3219604   1.279   7.326  10.579  0.5454  0.2933 -0.4504
  173SOPE   C3219605   1.384   7.408  10.374  0.0612 -0.0833  0.3258
  173SOPE   H2X19606   1.473   7.375  10.316 -0.0381 -1.8810  1.1537
  173SOPE   H2Y19607   1.419   7.500  10.426  0.3991 -1.0489  1.8615
  173SOPE   C2319608   1.104   7.014  10.082 -0.5573  1.3762 -0.3063
  173SOPE   H3R19609   1.157   7.112  10.083 -1.2571  1.7716 -0.7762
  173SOPE   H3S19610   0.995   7.029  10.100 -1.0406  0.0720 -1.9690
  173SOPE   C2419611   1.126   6.953   9.941 -0.1362 -0.3244  0.1169
  173SOPE   H4R19612   1.223   6.903   9.966 -1.2635 -2.2086  0.9401
  173SOPE   H4S19613   1.053   6.874   9.915  1.2480 -0.8439 -2.5333
  173SOPE   C2519614   1.115   7.056   9.823  0.3011  1.5162  0.1763
  173SOPE   H5R19615   1.107   7.002   9.726  0.5243 -0.2023  1.0669
  173SOPE   H5S19616   1.013   7.097   9.830 -0.1507  0.7285 -1.3565
  173SOPE   C2619617   1.220   7.166   9.822  0.1984 -0.2496  0.1659
  173SOPE   H6R19618   1.256   7.203   9.920  1.4196  0.0937 -0.3941
  173SOPE   H6S19619   1.311   7.138   9.764 -0.8983  0.3362 -1.9432
  173SOPE   C2719620   1.164   7.300   9.773 -0.1869  0.4015  0.3554
  173SOPE   H7R19621   1.071   7.318   9.831  0.7068 -0.4573  2.1216
  173SOPE   H7S19622   1.235   7.384   9.791 -1.6487  1.4066  1.8069
  173SOPE   C2819623   1.136   7.295   9.619 -0.5225  0.6490 -1.0190
  173SOPE   H8R19624   1.094   7.193   9.603 -0.1556 -0.1543  2.2844
  173SOPE   H8S19625   1.067   7.374   9.584  0.2932  0.5618 -2.9319
  173SOPE   C2919626   1.260   7.292   9.533  0.9303 -0.3978 -0.1754
  173SOPE   H9119627   1.305   7.192   9.530 -0.6671 -1.2812  2.2587
  173SOPE  C21019628   1.288   7.376   9.431  0.3811  0.0982 -0.3112
  173SOPE  H10119629   1.376   7.363   9.366 -0.6809  3.0644 -2.5690
  173SOPE  C21119630   1.206   7.501   9.398 -0.6566 -0.1607  0.9716
  173SOPE  H11R19631   1.267   7.592   9.385 -0.4708 -0.4601 -0.3384
  173SOPE  H11S19632   1.137   7.524   9.483 -1.5086 -0.2880  0.3260
  173SOPE  C21219633   1.115   7.472   9.272 -0.0813 -0.3314  0.2578
  173SOPE  H12R19634   1.052   7.562   9.256  2.2875  1.1160 -1.8910
  173SOPE  H12S19635   1.049   7.388   9.302  1.3133 -1.6656 -0.2837
  173SOPE  C21319636   1.183   7.456   9.133 -0.0400 -1.2101 -0.3056
  173SOPE  H13R19637   1.097   7.423   9.070 -0.8935  1.0574 -0.4369
  173SOPE  H13S19638   1.261   7.377   9.135  0.7648 -0.4346 -0.9417
  173SOPE  C21419639   1.236   7.592   9.081 -0.1094  0.4230 -0.3706
  173SOPE  H14R19640   1.328   7.627   9.133 -0.5120  1.0424 -0.0505
  173SOPE  H14S19641   1.153   7.659   9.114 -0.8025 -0.2179 -0.8096
  173SOPE  C21519642   1.247   7.605   8.935 -0.0372 -0.1581  0.8515
  173SOPE  H15R19643   1.281   7.709   8.918  0.7384 -0.1544  2.1959
  173SOPE  H15S19644   1.150   7.587   8.884 -0.1104  2.5950 -0.1250
  173SOPE  C21619645   1.365   7.522   8.867 -0.0556  0.4347  0.8679
  173SOPE  H16R19646   1.348   7.412   8.867 -0.1796  0.4471  0.2445
  173SOPE  H16S19647   1.461   7.540   8.920  1.0651 -0.2548 -0.8415
  173SOPE  C21719648   1.377   7.539   8.717  0.5040 -0.1286  0.0606
  173SOPE  H17R19649   1.293   7.493   8.661 -0.0055  1.8844 -0.8896
  173SOPE  H17S19650   1.470   7.493   8.676  1.2491  0.6237  0.8612
  173SOPE  C21819651   1.384   7.682   8.675 -0.7874  0.5500  0.2208
  173SOPE  H18R19652   1.413   7.691   8.568  2.7063  0.9842  1.0721
  173SOPE  H18S19653   1.446   7.749   8.738 -0.8438  3.2439 -2.3580
  173SOPE  H18T19654   1.280   7.720   8.684 -0.4116  1.4328  1.0190
  173SOPE   C3319655   1.271   7.434  10.272 -0.8218 -0.2427  0.0004
  173SOPE   H3X19656   1.176   7.472  10.316 -0.3909  1.7373 -0.6729
  173SOPE   H3Y19657   1.253   7.344  10.210 -2.2434  0.4954 -0.7095
  173SOPE   C3419658   1.314   7.552  10.180  0.0323  0.6997  0.3720
  173SOPE   H4X19659   1.413   7.531  10.133  0.1428  3.3105 -0.6855
  173SOPE   H4Y19660   1.318   7.637  10.251 -0.7970  1.9297 -1.0039
  173SOPE   C3519661   1.208   7.571  10.075 -0.1509 -0.1613  0.4334
  173SOPE   H5X19662   1.115   7.625  10.105 -0.3525  0.8768 -1.8498
  173SOPE   H5Y19663   1.154   7.477  10.053  0.6583 -0.0793 -2.2536
  173SOPE   C3619664   1.249   7.644   9.949 -0.3438 -0.1093 -1.3650
  173SOPE   H6X19665   1.326   7.590   9.889 -0.0247 -0.1967 -0.8802
  173SOPE   H6Y19666   1.297   7.741   9.977  1.3610 -1.0165 -0.9588
  173SOPE   C3719667   1.124   7.678   9.858 -0.0155  0.3742 -0.9644
  173SOPE   H7X19668   1.038   7.712   9.918  0.0911 -0.3048 -0.4113
  173SOPE   H7Y19669   1.097   7.580   9.814 -0.6699  1.5116 -3.2312
  173SOPE   C3819670   1.145   7.769   9.742 -0.4123  0.3144  0.5322
  173SOPE   H8X19671   1.237   7.728   9.694 -0.3796 -0.4360  1.2069
  173SOPE   H8Y19672   1.166   7.873   9.775  3.5124 -0.0459 -0.3007
  173SOPE   C3919673   1.029   7.768   9.651  0.2610 -0.3923  0.2606
  173SOPE   H9X19674   0.940   7.806   9.705 -0.1365 -0.3087 -0.4477
  173SOPE   H9Y19675   1.004   7.669   9.607 -0.6745  0.9541 -2.4957
  173SOPE  C31019676   1.052   7.867   9.534  0.4133  0.3411  0.5793
  173SOPE  H10X19677   1.147   7.828   9.492 -1.2030 -0.8769 -2.1561
  173SOPE  H10Y19678   1.042   7.974   9.564 -1.2137  0.6040 -0.7912
  173SOPE  C31119679   0.936   7.854   9.434  0.0519  0.0097 -0.6394
  173SOPE  H11X19680   0.833   7.869   9.473 -0.1657  0.9819 -1.5507
  173SOPE  H11Y19681   0.940   7.753   9.388  1.1125  0.3450 -1.3272
  173SOPE  C31219682   0.944   7.951   9.316  0.3759 -0.0101 -0.0956
  173SOPE  H12X19683   0.964   8.052   9.356  2.1873 -0.4526  0.1975
  173SOPE  H12Y19684   0.840   7.941   9.277 -0.0116 -1.1977  1.1419
  173SOPE  C31319685   1.042   7.911   9.203 -0.4093  1.0147 -0.6205
  173SOPE  H13X19686   1.002   7.815   9.166 -0.3630 -0.2478  2.2773
  173SOPE  H13Y19687   1.151   7.904   9.228 -0.5107  2.7322  0.5197
  173SOPE  C31419688   1.035   8.019   9.096 -0.2002  0.0540  0.0353
  173SOPE  H14X19689   1.059   8.115   9.147  1.6616 -0.1117 -0.4391
  173SOPE  H14Y19690   0.928   8.018   9.065  0.2550  2.7010 -1.9827
  173SOPE  C31519691   1.114   8.013   8.962 -0.1572  0.0300 -0.1426
  173SOPE  H15X19692   1.113   7.908   8.926 -0.8573 -0.2800  0.7240
  173SOPE  H15Y19693   1.223   8.030   8.976 -0.3012  0.6405  0.2608
  173SOPE  C31619694   1.063   8.088   8.842  0.1165  0.4189 -0.4185
  173SOPE  H16X19695   1.052   8.196   8.864  2.3014  0.5343  0.3029
  173SOPE  H16Y19696   0.964   8.050   8.808  1.1283 -1.1760 -1.7668
  173SOPE  C31719697   1.153   8.090   8.716 -0.8598  0.2054 -0.2340
  173SOPE  H17X19698   1.156   7.994   8.659 -0.3488 -0.4459  0.8569
  173SOPE  H17Y19699   1.258   8.104   8.750 -0.8963 -2.5377  1.3452
  173SOPE  C31819700   1.112   8.205   8.623  0.4258 -0.2533 -0.2362
  173SOPE  H18X19701   1.004   8.198   8.597  0.8356  2.4394 -3.3635
  173SOPE  H18Y19702   1.168   8.208   8.526 -0.3511  2.7940 -0.6910
  173SOPE  H18Z19703   1.119   8.301   8.678  0.8546 -1.0809  1.1991
  174SOPE     N19704   6.413   6.562  10.874  0.4573 -0.0854 -0.4202
  174SOPE   HN119705   6.356   6.572  10.961  1.2650  1.0995  0.0026
  174SOPE   HN219706   6.508   6.526  10.898  1.5077  0.7161 -3.0986
  174SOPE   HN319707   6.426   6.650  10.821 -0.7223  0.9488  0.9241
  174SOPE   C1219708   6.360   6.462  10.788 -0.1114  0.0700 -0.0410
  174SOPE  H12A19709   6.429   6.376  10.772  0.6230  0.8419 -1.2536
  174SOPE  H12B19710   6.340   6.504  10.687  1.2313 -1.1224 -0.8492
  174SOPE   C1119711   6.224   6.409  10.845  0.1593  0.5911 -0.4164
  174SOPE  H11A19712   6.243   6.345  10.933 -1.8824  0.5190  0.0163
  174SOPE  H11B19713   6.181   6.347  10.764 -0.4344 -0.3550  0.5885
  174SOPE     P19714   5.995   6.530  10.815  0.0649  0.0465 -0.0427
  174SOPE   O1319715   5.921   6.644  10.868 -0.1040 -0.1812  0.0328
  174SOPE   O1419716   5.925   6.399  10.828 -0.1897  0.4827 -0.1292
  174SOPE   O1219717   6.133   6.512  10.882 -0.1702  0.6445 -0.2685
  174SOPE   O1119718   6.026   6.550  10.657 -0.1949  0.1048 -0.6766
  174SOPE    C119719   6.067   6.680  10.615  0.1482 -0.3009 -0.7777
  174SOPE    HA19720   6.131   6.664  10.527  0.2765  2.1839 -1.2133
  174SOPE    HB19721   6.145   6.725  10.681  0.6890 -2.6556  0.2710
  174SOPE    C219722   5.956   6.783  10.564 -0.0594  0.1212 -0.0800
  174SOPE    HS19723   5.888   6.804  10.649  0.4103 -1.9338  0.8618
  174SOPE   O2119724   5.883   6.726  10.457  0.0429 -0.0651  0.6208
  174SOPE   C2119725   5.777   6.660  10.475 -0.1296  0.3761 -0.1903
  174SOPE   O2219726   5.723   6.645  10.584 -0.6390  0.3240 -0.4778
  174SOPE   C2219727   5.722   6.615  10.339 -0.3550 -0.2219 -0.1934
  174SOPE   H2R19728   5.638   6.546  10.362  0.3281 -0.8452  0.5081
  174SOPE   H2S19729   5.809   6.565  10.289  0.8468  0.4739  1.1153
  174SOPE    C319730   6.019   6.913  10.517  0.1653 -0.4187  0.0212
  174SOPE    HX19731   6.074   6.933  10.611 -2.0246 -1.7619  1.6662
  174SOPE    HY19732   5.945   6.996  10.511  0.1908 -0.3652  0.4439
  174SOPE   O3119733   6.102   6.897  10.395  0.0239 -0.1224  0.3584
  174SOPE   C3119734   6.072   6.951  10.279  0.7812 -1.2757  0.0533
  174SOPE   O3219735   5.969   7.013  10.251 -0.3065 -0.2445 -0.3262
  174SOPE   C3219736   6.192   6.931  10.183  0.4606  0.8925 -0.2023
  174SOPE   H2X19737   6.212   6.822  10.174  0.4102  0.7629  1.0684
  174SOPE   H2Y19738   6.282   6.975  10.231  0.1474 -0.3632  1.6515
  174SOPE   C2319739   5.694   6.748  10.252  0.4625 -0.2646 -0.8753
  174SOPE   H3R19740   5.793   6.798  10.246 -0.4100  1.4374 -1.5026
  174SOPE   H3S19741   5.618   6.813  10.300  0.0790 -0.7747 -0.7854
  174SOPE   C2419742   5.663   6.710  10.108 -0.6893  0.2942 -0.0206
  174SOPE   H4R19743   5.755   6.669  10.060 -0.3417  1.0899 -0.0554
  174SOPE   H4S19744   5.592   6.624  10.109  1.0647 -1.2291  1.6989
  174SOPE   C2519745   5.606   6.822  10.022 -0.2425  0.2575  0.0477
  174SOPE   H5R19746   5.503   6.836  10.062  0.8117 -0.4662  3.3057
  174SOPE   H5S19747   5.664   6.915  10.043 -0.3116  0.0529  1.2108
  174SOPE   C2619748   5.598   6.793   9.874  0.6265  0.2134  0.2462
  174SOPE   H6R19749   5.554   6.884   9.828 -0.0151 -1.2435 -2.2118
  174SOPE   H6S19750   5.704   6.787   9.844  0.3628 -3.0330 -0.3927
  174SOPE   C2719751   5.515   6.669   9.818 -0.3409 -0.5016  0.1116
  174SOPE   H7R19752   5.560   6.576   9.859 -1.1874 -1.3134 -0.7479
  174SOPE   H7S19753   5.413   6.672   9.861 -0.2234 -0.0580  0.3725
  174SOPE   C2819754   5.513   6.667   9.662 -0.1693  0.1382 -0.2650
  174SOPE   H8R19755   5.524   6.774   9.634 -1.4599  0.3096 -0.1684
  174SOPE   H8S19756   5.604   6.615   9.626 -0.2547 -1.8749  2.1123
  174SOPE   C2919757   5.392   6.625   9.591  0.2653 -0.2249 -0.8254
  174SOPE   H9119758   5.301   6.640   9.652  1.5875  2.8466  0.6202
  174SOPE  C21019759   5.385   6.551   9.478  0.6568 -0.1754 -0.5129
  174SOPE  H10119760   5.287   6.527   9.435 -0.1289 -2.4399  2.1735
  174SOPE  C21119761   5.499   6.500   9.394 -0.1172 -0.4032 -0.1135
  174SOPE  H11R19762   5.514   6.393   9.417 -0.8405 -0.8780 -1.7513
  174SOPE  H11S19763   5.594   6.554   9.416  0.1702  0.3611 -2.8899
  174SOPE  C21219764   5.473   6.520   9.243  0.8023  0.1709  0.0212
  174SOPE  H12R19765   5.557   6.484   9.181  0.7411  0.6886 -0.3752
  174SOPE  H12S19766   5.449   6.626   9.216 -0.4666 -0.4385 -1.4129
  174SOPE  C21319767   5.351   6.432   9.207 -0.4586  0.0258 -0.5544
  174SOPE  H13R19768   5.257   6.465   9.256  0.1224 -0.7306  1.1489
  174SOPE  H13S19769   5.370   6.334   9.254  2.4025  1.0631  0.7110
  174SOPE  C21419770   5.336   6.424   9.050 -0.3062 -0.4328 -0.1054
  174SOPE  H14R19771   5.438   6.390   9.019  0.3232  2.5285 -1.6953
  174SOPE  H14S19772   5.314   6.525   9.010 -0.3421  0.4449  2.0140
  174SOPE  C21519773   5.240   6.305   9.010  0.2668 -0.8113  0.0305
  174SOPE  H15R19774   5.143   6.321   9.062  0.1048 -0.4889 -0.3655
  174SOPE  H15S19775   5.299   6.221   9.051  2.0822  0.1484 -0.4716
  174SOPE  C21619776   5.199   6.296   8.865 -0.3045  0.0842 -0.6771
  174SOPE  H16R19777   5.139   6.206   8.841  1.2709 -1.4214  0.7552
  174SOPE  H16S19778   5.293   6.276   8.809  1.8417  1.0699  2.3003
  174SOPE  C21719779   5.115   6.409   8.827  0.2822 -0.4495  0.3789
  174SOPE  H17R19780   5.140   6.508   8.870 -2.0301 -0.0222  0.8905
  174SOPE  H17S19781   5.013   6.378   8.859  1.1263 -2.5401  1.2334
  174SOPE  C21819782   5.134   6.438   8.676 -0.1722  0.3797 -0.5399
  174SOPE  H18R19783   5.074   6.524   8.639  0.1627  1.0374  0.3923
  174SOPE  H18S19784   5.094   6.350   8.622  0.5172 -0.7645  0.7377
  174SOPE  H18T19785   5.242   6.459   8.659 -0.3503  1.4903 -0.3680
  174SOPE   C3319786   6.173   6.990  10.041 -0.4962  0.8167  0.7278
  174SOPE   H3X19787   6.273   6.981   9.992 -1.5562  0.8242 -1.5771
  174SOPE   H3Y19788   6.147   7.098  10.040  2.0205  1.5013 -0.8694
  174SOPE   C3419789   6.078   6.906   9.954  1.0320 -0.0602  0.4994
  174SOPE   H4X19790   5.972   6.897   9.988  1.4302 -2.0692  1.3685
  174SOPE   H4Y19791   6.122   6.804   9.946  0.3225 -0.3973  0.7145
  174SOPE   C3519792   6.074   6.953   9.806 -0.5250  0.4734 -0.9875
  174SOPE   H5X19793   6.176   6.943   9.762 -0.3014  0.4362 -0.4688
  174SOPE   H5Y19794   6.050   7.061   9.808  1.7861  1.0374 -0.3436
  174SOPE   C3619795   5.981   6.866   9.714 -0.2267  0.6065  0.2008
  174SOPE   H6X19796   5.913   6.801   9.774  0.9213 -3.2752 -2.3424
  174SOPE   H6Y19797   6.047   6.790   9.667 -1.4597 -0.5695  0.3122
  174SOPE   C3719798   5.896   6.949   9.619  0.4131 -0.8288 -0.0442
  174SOPE   H7X19799   5.934   7.044   9.577 -2.2728  0.7225  0.8075
  174SOPE   H7Y19800   5.808   6.985   9.676  1.4352  1.0272  0.4285
  174SOPE   C3819801   5.843   6.864   9.503  0.1089 -0.2728  0.2846
  174SOPE   H8X19802   5.798   6.772   9.547  2.2554 -0.3907  2.4639
  174SOPE   H8Y19803   5.928   6.835   9.438  1.8258  0.8018  1.9501
  174SOPE   C3919804   5.736   6.945   9.421  0.2869  0.1600  0.3155
  174SOPE   H9X19805   5.761   7.053   9.412 -0.7965  0.2488 -2.5358
  174SOPE   H9Y19806   5.643   6.951   9.482  0.1850  2.1612  0.0413
  174SOPE  C31019807   5.691   6.892   9.286  0.2456 -0.0753 -0.5967
  174SOPE  H10X19808   5.641   6.793   9.295  1.1513 -0.4236  1.2510
  174SOPE  H10Y19809   5.780   6.896   9.220  1.0484  2.6563  0.5065
  174SOPE  C31119810   5.590   6.981   9.224 -0.3290 -0.4644 -0.1642
  174SOPE  H11X19811   5.632   7.084   9.234 -0.7800  0.0887 -3.1159
  174SOPE  H11Y19812   5.509   6.980   9.301  2.1622 -1.2853  2.6554
  174SOPE  C31219813   5.555   6.964   9.081  0.1405  0.3576  0.3242
  174SOPE  H12X19814   5.465   7.025   9.058  0.4732  0.4915 -0.6429
  174SOPE  H12Y19815   5.525   6.857   9.071 -0.8043  0.6971 -0.5641
  174SOPE  C31319816   5.672   6.970   8.980  0.5043 -0.4429  0.2002
  174SOPE  H13X19817   5.744   6.885   8.993 -0.9013 -1.8571 -0.9342
  174SOPE  H13Y19818   5.726   7.065   9.001 -1.0302  1.2117 -2.7887
  174SOPE  C31419819   5.640   6.958   8.837 -0.5790  0.5169  1.1193
  174SOPE  H14X19820   5.734   6.965   8.779  0.1009  0.8796  2.2372
  174SOPE  H14Y19821   5.574   7.041   8.803  2.0715  2.2444 -0.1838
  174SOPE  C31519822   5.575   6.820   8.800 -0.1993  0.1912  0.3810
  174SOPE  H15X19823   5.486   6.795   8.862 -1.7704 -0.4722 -1.9860
  174SOPE  H15Y19824   5.665   6.756   8.799 -0.5864 -0.4903 -3.2758
  174SOPE  C31619825   5.532   6.822   8.654  0.7945  0.5647 -0.7409
  174SOPE  H16X19826   5.622   6.850   8.596  1.1038  1.7716  0.2657
  174SOPE  H16Y19827   5.449   6.896   8.643 -1.7660 -1.9781  0.2330
  174SOPE  C31719828   5.474   6.688   8.596  0.2323 -0.1198 -0.3196
  174SOPE  H17X19829   5.436   6.707   8.494  0.3755  3.2856  0.1439
  174SOPE  H17Y19830   5.389   6.670   8.666  0.7021 -0.2327  0.2328
  174SOPE  C31819831   5.565   6.562   8.600 -0.0918 -0.6715  0.2154
  174SOPE  H18X19832   5.657   6.572   8.538 -1.0428  0.2714 -1.0815
  174SOPE  H18Y19833   5.522   6.470   8.554  1.6983 -0.7194 -1.4929
  174SOPE  H18Z19834   5.598   6.525   8.700  2.2361  1.5302  0.3541
  175SOPE     N19835   2.251   0.007  10.913 -0.0930 -0.0226 -0.0993
  175SOPE   HN119836   2.275   0.105  10.939  0.9864 -0.8803  2.4077
  175SOPE   HN219837   2.165  -0.016  10.966  0.3543 -2.0757 -0.1763
  175SOPE   HN319838   2.323  -0.056  10.951  1.2818  0.2536 -2.0902
  175SOPE   C1219839   2.218  -0.011  10.769 -0.4369 -0.0465 -0.1750
  175SOPE  H12A19840   2.249  -0.116  10.750 -1.0239 -0.2015 -0.3055
  175SOPE  H12B19841   2.289   0.046  10.706  1.4277 -1.7824  0.2458
  175SOPE   C1119842   2.073   0.017  10.729 -0.5175  0.4311 -0.0841
  175SOPE  H11A19843   2.000  -0.042  10.789  0.1521 -2.9573 -2.3064
  175SOPE  H11B19844   2.055  -0.027  10.628  0.1021 -0.9481  0.3834
  175SOPE     P19845   1.892   0.205  10.709  0.3076 -0.7287 -1.0903
  175SOPE   O1319846   1.896   0.350  10.710  0.7661 -0.7305  0.1327
  175SOPE   O1419847   1.810   0.145  10.815 -0.2504  0.4572  0.4087
  175SOPE   O1219848   2.045   0.152  10.730  0.4414  0.2346  0.1261
  175SOPE   O1119849   1.849   0.144  10.577 -0.1418 -0.4984  0.2916
  175SOPE    C119850   1.915   0.161  10.454  0.2191 -0.2704  0.1872
  175SOPE    HA19851   1.934   0.066  10.400  1.5809  1.1248 -1.9120
  175SOPE    HB19852   2.012   0.213  10.466  0.5069 -0.2482 -1.9307
  175SOPE    C219853   1.837   0.262  10.368  0.5841 -0.0622  0.0771
  175SOPE    HS19854   1.814   0.355  10.424 -0.2032  0.0218 -0.3731
  175SOPE   O2119855   1.718   0.201  10.322 -1.0643 -0.0381  0.0321
  175SOPE   C2119856   1.630   0.284  10.266  0.5636 -0.7935  0.1562
  175SOPE   O2219857   1.642   0.407  10.259 -0.4150 -0.5137 -0.0789
  175SOPE   C2219858   1.510   0.200  10.225  0.2790 -0.0145  0.6189
  175SOPE   H2R19859   1.425   0.263  10.192  0.6079 -1.3578 -3.3466
  175SOPE   H2S19860   1.498   0.141  10.319 -1.1757 -0.8131 -0.0249
  175SOPE    C319861   1.917   0.296  10.236 -0.9901  0.2876 -0.3762
  175SOPE    HX19862   2.009   0.348  10.272 -0.3635 -1.5548  0.8217
  175SOPE    HY19863   1.860   0.374  10.181 -2.5582  0.8744  1.8928
  175SOPE   O3119864   1.962   0.180  10.164 -0.0066 -0.2294  0.4320
  175SOPE   C3119865   1.991   0.187  10.035  0.5198  0.7469  0.3378
  175SOPE   O3219866   1.974   0.280   9.962 -0.1541  0.4004  0.1060
  175SOPE   C3219867   2.049   0.052  10.000  0.1156 -0.1494  0.5214
  175SOPE   H2X19868   1.989  -0.031  10.044 -1.8847  0.7217 -0.4312
  175SOPE   H2Y19869   2.154   0.047  10.038  0.2775 -0.3719  0.0491
  175SOPE   C2319870   1.543   0.100  10.108  0.3664 -0.1065  0.5649
  175SOPE   H3R19871   1.485   0.006  10.126  0.9279 -0.8816 -1.4210
  175SOPE   H3S19872   1.651   0.074  10.105  0.3790 -0.0371  0.4421
  175SOPE   C2419873   1.525   0.158   9.967  0.2921 -0.1808  0.2253
  175SOPE   H4R19874   1.431   0.217   9.964 -1.6372 -3.0415 -0.1857
  175SOPE   H4S19875   1.601   0.236   9.946 -1.2293  1.3001  0.0835
  175SOPE   C2519876   1.521   0.048   9.865 -0.6977  0.0719  0.4540
  175SOPE   H5R19877   1.618  -0.006   9.861 -0.1969  0.9653  0.0681
  175SOPE   H5S19878   1.435  -0.019   9.885 -0.6621  0.1146  0.7653
  175SOPE   C2619879   1.493   0.109   9.723  0.1027 -0.8632  0.8964
  175SOPE   H6R19880   1.384   0.123   9.711  0.3919  0.0051 -1.0473
  175SOPE   H6S19881   1.554   0.201   9.720  0.3949 -1.0636 -1.9108
  175SOPE   C2719882   1.551   0.033   9.598  0.7019  0.2140 -0.2602
  175SOPE   H7R19883   1.661   0.035   9.612  0.5377 -0.9002  1.4385
  175SOPE   H7S19884   1.511  -0.070   9.611  0.5201  0.5895  3.2239
  175SOPE   C2819885   1.523   0.093   9.460 -0.4005  0.6691 -0.0818
  175SOPE   H8R19886   1.584   0.187   9.466 -1.6066  1.3979  1.3904
  175SOPE   H8S19887   1.564   0.027   9.381 -0.5578 -1.5651  1.6103
  175SOPE   C2919888   1.378   0.119   9.428  0.3818 -0.0676 -0.1447
  175SOPE   H9119889   1.301   0.106   9.506 -2.4192  3.5836 -1.9800
  175SOPE  C21019890   1.329   0.180   9.311 -0.7342 -0.7788 -0.6327
  175SOPE  H10119891   1.221   0.199   9.311 -0.6570  0.0960  1.9594
  175SOPE  C21119892   1.423   0.231   9.201 -0.1381 -0.2418 -0.4613
  175SOPE  H11R19893   1.529   0.214   9.226 -0.6015  0.4212  2.2790
  175SOPE  H11S19894   1.411   0.342   9.208  3.0328  0.1217  0.4955
  175SOPE  C21219895   1.388   0.190   9.049  0.4785 -0.2922  0.0852
  175SOPE  H12R19896   1.447   0.251   8.977 -0.3982  1.1035  0.5086
  175SOPE  H12S19897   1.282   0.217   9.030  1.1344  1.4991 -1.4113
  175SOPE  C21319898   1.422   0.041   9.011  0.8462 -0.5583 -0.2350
  175SOPE  H13R19899   1.354  -0.011   9.081  1.0660 -1.2590 -0.5339
  175SOPE  H13S19900   1.527   0.011   9.032  2.5187  3.8238 -1.1342
  175SOPE  C21419901   1.387   0.011   8.867 -0.2004  0.5309 -0.2194
  175SOPE  H14R19902   1.280   0.036   8.850 -0.2624  1.4662  1.3408
  175SOPE  H14S19903   1.391  -0.099   8.853  0.7517  0.2482  1.9729
  175SOPE  C21519904   1.482   0.076   8.763  0.0605 -0.3804  0.7632
  175SOPE  H15R19905   1.587   0.041   8.772  0.6152  1.3815  1.5231
  175SOPE  H15S19906   1.503   0.184   8.772  1.0747 -0.1790 -2.6469
  175SOPE  C21619907   1.440   0.044   8.620  0.6918 -0.9030 -0.6390
  175SOPE  H16R19908   1.345   0.098   8.598  0.8932 -0.1007  0.3994
  175SOPE  H16S19909   1.416  -0.064   8.614  0.8517 -1.0508  1.0642
  175SOPE  C21719910   1.553   0.098   8.532  1.1990 -0.4934  1.1567
  175SOPE  H17R19911   1.641   0.033   8.552  1.5870 -0.8461 -1.3979
  175SOPE  H17S19912   1.564   0.206   8.554  3.3532  0.3089 -3.0158
  175SOPE  C21819913   1.513   0.092   8.384 -0.6576 -0.3316 -0.4399
  175SOPE  H18R19914   1.406   0.110   8.361 -0.9944 -0.9445  0.5778
  175SOPE  H18S19915   1.531  -0.012   8.349  1.1892  0.3378 -1.6410
  175SOPE  H18T19916   1.567   0.156   8.311 -2.7621  1.5875 -0.4288
  175SOPE   C3319917   2.061   0.030   9.843 -0.1555  0.3039 -0.3140
  175SOPE   H3X19918   2.134  -0.051   9.822 -0.9035 -0.7692  1.0566
  175SOPE   H3Y19919   2.104   0.116   9.787  1.5213 -0.5256 -0.3537
  175SOPE   C3419920   1.934  -0.023   9.792 -0.2024 -0.2580  0.4867
  175SOPE   H4X19921   1.848   0.048   9.789 -0.7816 -0.9763 -0.1427
  175SOPE   H4Y19922   1.906  -0.115   9.847  2.2895 -1.1740  0.3582
  175SOPE   C3519923   1.953  -0.065   9.634  0.1769 -0.7130  0.2239
  175SOPE   H5X19924   1.861  -0.124   9.614 -0.9794  0.1447  2.5757
  175SOPE   H5Y19925   2.038  -0.135   9.624  0.4667 -0.2754 -0.4003
  175SOPE   C3619926   1.946   0.055   9.529 -0.4910  0.1817  0.0460
  175SOPE   H6X19927   2.051   0.090   9.524 -0.6083  0.4224 -1.2629
  175SOPE   H6Y19928   1.884   0.140   9.564 -0.5959  0.7788 -1.5078
  175SOPE   C3719929   1.897   0.013   9.389 -0.0453 -0.7747 -0.1280
  175SOPE   H7X19930   1.880   0.098   9.318 -3.3429 -1.4170 -0.2949
  175SOPE   H7Y19931   1.794  -0.028   9.383 -1.5905  2.7442 -0.3894
  175SOPE   C3819932   2.007  -0.084   9.321 -0.0221 -0.1107  0.9979
  175SOPE   H8X19933   2.012  -0.180   9.377 -2.0787 -0.1667  1.1483
  175SOPE   H8Y19934   2.108  -0.040   9.337 -0.3510  0.7502  0.7601
  175SOPE   C3919935   1.981  -0.124   9.177 -0.2300 -0.6802  0.3466
  175SOPE   H9X19936   1.890  -0.188   9.176  0.1348 -1.2263  1.2603
  175SOPE   H9Y19937   2.063  -0.193   9.147  0.6626  0.9388 -1.1442
  175SOPE  C31019938   1.962  -0.022   9.068  0.3177 -0.3228  0.1903
  175SOPE  H10X19939   2.053   0.041   9.066  0.9542 -1.1934 -2.1482
  175SOPE  H10Y19940   1.882   0.053   9.086  0.9052  1.6048 -4.0298
  175SOPE  C31119941   1.944  -0.102   8.931 -0.2562 -0.3717 -0.6348
  175SOPE  H11X19942   1.847  -0.156   8.938 -1.5309  1.4765 -2.6391
  175SOPE  H11Y19943   2.029  -0.172   8.924 -1.3065 -1.6506 -1.1196
  175SOPE  C31219944   1.952  -0.006   8.811 -0.1672  0.0531  0.5061
  175SOPE  H12X19945   2.044   0.053   8.830  1.4197 -1.3885 -2.1925
  175SOPE  H12Y19946   1.869   0.068   8.804  0.0778  0.1510 -2.0114
  175SOPE  C31319947   1.953  -0.085   8.673  0.2900  0.2728 -0.6375
  175SOPE  H13X19948   1.852  -0.131   8.664  0.3612  0.1584 -0.8534
  175SOPE  H13Y19949   2.032  -0.163   8.669  0.0782  0.0690 -0.8445
  175SOPE  C31419950   1.975   0.007   8.560 -0.1189 -0.6089  0.2686
  175SOPE  H14X19951   2.071   0.064   8.557 -0.3028 -0.3220 -0.4824
  175SOPE  H14Y19952   1.892   0.081   8.563  0.0971 -0.3039 -0.6489
  175SOPE  C31519953   1.967  -0.076   8.429 -0.4174 -0.0546 -0.6067
  175SOPE  H15X19954   1.881  -0.146   8.436  0.4803 -1.4019 -2.1173
  175SOPE  H15Y19955   2.049  -0.148   8.405  0.3500  0.6685 -0.1975
  175SOPE  C31619956   1.933  -0.001   8.294 -0.4717  0.0106  0.3324
  175SOPE  H16X19957   1.862   0.080   8.321 -1.0184 -0.1543 -0.5830
  175SOPE  H16Y19958   1.881  -0.064   8.219  0.6501  0.9778 -1.2949
  175SOPE  C31719959   2.063   0.051   8.228  0.0625 -0.9140 -0.0980
  175SOPE  H17X19960   2.133  -0.034   8.212  0.1573 -1.1964  1.6352
  175SOPE  H17Y19961   2.106   0.116   8.307 -2.0945  1.0254 -0.4196
  175SOPE  C31819962   2.030   0.136   8.107 -0.3140 -0.2506  0.1486
  175SOPE  H18X19963   2.124   0.145   8.048  0.3638  0.6158  1.3321
  175SOPE  H18Y19964   1.989   0.237   8.126 -0.4868 -0.1938 -0.5047
  175SOPE  H18Z19965   1.950   0.076   8.057 -0.6320 -0.8903  1.3817
  176SOPE     N19966   5.181   1.964  10.962  0.1724 -0.1925  0.5874
  176SOPE   HN119967   5.091   1.964  11.014 -1.2081  1.0476 -1.6839
  176SOPE   HN219968   5.173   1.900  10.881 -2.8830  2.1447 -1.1848
  176SOPE   HN319969   5.247   1.923  11.032 -0.0286  0.2786  1.0670
  176SOPE   C1219970   5.224   2.102  10.909 -0.2741  0.3011  0.3021
  176SOPE  H12A19971   5.255   2.166  10.995  4.3714  2.0101 -2.3400
  176SOPE  H12B19972   5.136   2.149  10.860 -1.4168 -2.5837 -0.6030
  176SOPE   C1119973   5.343   2.091  10.808 -0.1086  0.3087 -0.0928
  176SOPE  H11A19974   5.366   2.194  10.774  0.2350 -0.2489 -1.6531
  176SOPE  H11B19975   5.303   2.039  10.718  0.0801  0.9813 -0.5745
  176SOPE     P19976   5.494   1.872  10.815 -0.2365  0.2876 -0.2351
  176SOPE   O1319977   5.384   1.782  10.862 -0.7081 -0.0393  0.3075
  176SOPE   O1419978   5.626   1.837  10.861 -0.1035 -0.4402 -0.6242
  176SOPE   O1219979   5.457   2.021  10.867  0.5692 -0.1342 -0.1058
  176SOPE   O1119980   5.490   1.886  10.657  0.6761  1.1823  0.0385
  176SOPE    C119981   5.571   1.971  10.584 -0.1738 -0.4356  0.2724
  176SOPE    HA19982   5.628   2.045  10.644 -2.6396  0.4458  1.6550
  176SOPE    HB19983   5.496   2.035  10.534  1.0370 -0.1381 -1.2642
  176SOPE    C219984   5.669   1.904  10.484 -0.6399  0.2413  0.3295
  176SOPE    HS19985   5.708   1.987  10.422 -2.3980  0.3774 -0.6692
  176SOPE   O2119986   5.597   1.817  10.395  0.1434  0.2501 -0.3766
  176SOPE   C2119987   5.524   1.871  10.298  0.9989 -0.3163  0.0777
  176SOPE   O2219988   5.528   1.991  10.276  0.2038  0.3205  0.4738
  176SOPE   C2219989   5.434   1.772  10.224  0.3935  0.9422 -0.3740
  176SOPE   H2R19990   5.332   1.777  10.267  0.5879  1.6908  0.0245
  176SOPE   H2S19991   5.476   1.669  10.231 -2.0038 -0.2534 -2.1009
  176SOPE    C319992   5.783   1.825  10.547 -0.3150  0.2152 -0.5212
  176SOPE    HX19993   5.739   1.724  10.562 -0.3090  0.3906  0.7965
  176SOPE    HY19994   5.812   1.865  10.647  2.4252  0.1259 -1.2010
  176SOPE   O3119995   5.909   1.823  10.471  0.3184 -0.2243  0.5412
  176SOPE   C3119996   5.986   1.926  10.469 -0.1212 -0.8002 -0.4010
  176SOPE   O3219997   5.967   2.021  10.541  0.5385 -0.3479 -0.4948
  176SOPE   C3219998   6.097   1.919  10.365  0.0514  0.1994 -0.4109
  176SOPE   H2X19999   6.174   1.844  10.391 -1.0301 -0.6155  0.5793
  176SOPE   H2Y20000   6.143   2.019  10.355  0.5092 -0.0864 -1.2217
  176SOPE   C2320001   5.423   1.795  10.064 -0.6230 -0.1984  0.0117
  176SOPE   H3R20002   5.526   1.802  10.024  0.7824 -2.3438  2.9098
  176SOPE   H3S20003   5.378   1.896  10.057  3.0932  1.6073  0.0907
  176SOPE   C2420004   5.356   1.689   9.980 -0.4225  0.7331  0.2270
  176SOPE   H4R20005   5.407   1.591   9.993 -1.5570  0.3846  2.7317
  176SOPE   H4S20006   5.253   1.686  10.022 -0.5550 -1.0707 -0.1351
  176SOPE   C2520007   5.344   1.728   9.833  0.1858  1.2673 -0.3388
  176SOPE   H5R20008   5.287   1.822   9.817  0.7656  1.6493 -0.2022
  176SOPE   H5S20009   5.442   1.767   9.796  0.7002  0.1180 -0.2231
  176SOPE   C2620010   5.294   1.620   9.738  0.0862  0.7082 -0.6662
  176SOPE   H6R20011   5.360   1.531   9.735  1.4721  1.6067  1.2874
  176SOPE   H6S20012   5.190   1.591   9.765  0.8154  1.0990  3.0541
  176SOPE   C2720013   5.294   1.672   9.592  0.0184  0.3125 -0.3000
  176SOPE   H7R20014   5.223   1.756   9.586 -0.6644 -0.3095 -1.2638
  176SOPE   H7S20015   5.397   1.711   9.573 -0.0763 -0.8115 -3.7410
  176SOPE   C2820016   5.274   1.565   9.481  0.2142  0.4880  0.3859
  176SOPE   H8R20017   5.304   1.615   9.386  0.5178 -0.8293 -0.2322
  176SOPE   H8S20018   5.334   1.476   9.508  2.7678  2.6854  2.4685
  176SOPE   C2920019   5.134   1.516   9.468 -0.0757 -0.5616  0.2997
  176SOPE   H9120020   5.071   1.515   9.558 -3.0721  0.7646 -1.5886
  176SOPE  C21020021   5.073   1.490   9.349 -0.1543 -0.8547  0.5338
  176SOPE  H10120022   4.963   1.483   9.338 -0.4880  1.3328  1.9965
  176SOPE  C21120023   5.147   1.497   9.216  0.5197 -0.4778 -0.5998
  176SOPE  H11R20024   5.240   1.437   9.223  0.7972 -0.0292 -0.3504
  176SOPE  H11S20025   5.169   1.604   9.196 -1.9638  0.3546  0.6809
  176SOPE  C21220026   5.051   1.449   9.110  0.1158 -0.5271  0.2175
  176SOPE  H12R20027   5.098   1.475   9.013  0.5188 -1.3916  0.1761
  176SOPE  H12S20028   4.957   1.507   9.122  0.1849 -0.1062 -1.1064
  176SOPE  C21320029   5.023   1.300   9.098  0.0873  0.7915  0.0118
  176SOPE  H13R20030   4.954   1.273   9.015 -0.4335  1.8488  0.0786
  176SOPE  H13S20031   4.970   1.256   9.186  0.2602 -1.4134 -0.9269
  176SOPE  C21420032   5.149   1.215   9.082 -0.2826  1.0167 -0.5665
  176SOPE  H14R20033   5.207   1.228   9.176  0.3313 -0.7889 -0.6648
  176SOPE  H14S20034   5.208   1.263   9.001  1.2133 -0.8800 -0.6602
  176SOPE  C21520035   5.117   1.060   9.095  0.0188 -0.4478  0.1637
  176SOPE  H15R20036   5.043   1.063   9.178  0.4234  0.0622  0.5138
  176SOPE  H15S20037   5.208   1.007   9.129  0.8285  0.6995 -0.1321
  176SOPE  C21620038   5.064   0.990   8.972  0.1996  0.0960 -0.2329
  176SOPE  H16R20039   5.012   1.061   8.905 -0.7904 -0.3726  0.0242
  176SOPE  H16S20040   4.998   0.908   9.010  1.9472 -1.1385  0.2933
  176SOPE  C21720041   5.175   0.933   8.882 -1.1312  0.3493 -0.9699
  176SOPE  H17R20042   5.248   0.880   8.947 -2.7887 -0.9581 -0.0807
  176SOPE  H17S20043   5.241   1.012   8.842  0.8782 -1.6796 -1.8879
  176SOPE  C21820044   5.131   0.838   8.780  0.4552  0.2000 -0.8933
  176SOPE  H18R20045   5.067   0.892   8.707 -0.8165  2.6937  1.8586
  176SOPE  H18S20046   5.067   0.758   8.822  0.8375 -0.1948 -1.0516
  176SOPE  H18T20047   5.225   0.802   8.733  1.5222  0.8740  0.6494
  176SOPE   C3320048   6.021   1.889  10.228  0.3377 -1.0099  0.0345
  176SOPE   H3X20049   5.930   1.950  10.214  2.0584  1.3957 -1.4331
  176SOPE   H3Y20050   5.988   1.783  10.227 -0.4799 -0.7564  0.2073
  176SOPE   C3420051   6.113   1.915  10.114 -0.4532 -0.3423  0.5379
  176SOPE   H4X20052   6.151   2.019  10.124 -1.3643  0.4108 -2.7689
  176SOPE   H4Y20053   6.050   1.930  10.024  0.8456 -1.5240 -0.6103
  176SOPE   C3520054   6.228   1.809  10.086  0.6270  0.0470  0.5164
  176SOPE   H5X20055   6.178   1.714  10.058 -0.2832  0.8909 -0.8440
  176SOPE   H5Y20056   6.284   1.792  10.181 -0.5297 -1.5132  0.9622
  176SOPE   C3620057   6.346   1.844   9.988  0.4708  0.4017  0.0187
  176SOPE   H6X20058   6.427   1.768   9.993  0.3753  0.2395 -0.7216
  176SOPE   H6Y20059   6.388   1.938  10.030  0.6521 -0.4746  1.8857
  176SOPE   C3720060   6.311   1.867   9.840 -1.3606 -0.6296  0.1223
  176SOPE   H7X20061   6.397   1.910   9.785 -2.4740  1.4524 -0.1035
  176SOPE   H7Y20062   6.234   1.947   9.834  2.7815  3.7182 -0.8398
  176SOPE   C3820063   6.248   1.738   9.781 -0.4118 -0.3415 -0.8744
  176SOPE   H8X20064   6.182   1.687   9.854 -1.1221  0.1443 -1.1630
  176SOPE   H8Y20065   6.335   1.669   9.772 -0.3488 -0.5111  0.7729
  176SOPE   C3920066   6.182   1.762   9.648 -0.2030  0.1519  1.0857
  176SOPE   H9X20067   6.260   1.801   9.579 -0.4188 -1.7170 -0.2942
  176SOPE   H9Y20068   6.104   1.839   9.670 -1.0378 -0.2666 -0.2807
  176SOPE  C31020069   6.132   1.637   9.576  0.0998 -0.3210 -0.0644
  176SOPE  H10X20070   6.065   1.574   9.638  0.7499 -1.9950 -1.0004
  176SOPE  H10Y20071   6.217   1.579   9.535  1.1295  2.2499 -1.8149
  176SOPE  C31120072   6.033   1.681   9.459 -0.6746  0.0659 -0.0962
  176SOPE  H11X20073   5.965   1.747   9.516  1.1960 -0.9447  3.6378
  176SOPE  H11Y20074   5.977   1.593   9.420 -0.1209 -0.1104 -0.4934
  176SOPE  C31220075   6.101   1.749   9.336 -0.4896 -0.3732 -0.7463
  176SOPE  H12X20076   6.177   1.673   9.306  1.7165  0.9961  1.0185
  176SOPE  H12Y20077   6.152   1.842   9.368  0.8091 -1.2444 -0.1998
  176SOPE  C31320078   6.009   1.764   9.222  0.5172 -0.4685  0.5365
  176SOPE  H13X20079   5.936   1.846   9.240  3.0703  2.0880  0.1690
  176SOPE  H13Y20080   5.949   1.672   9.209 -0.1812  0.0633 -0.1338
  176SOPE  C31420081   6.083   1.794   9.091 -0.7647 -0.1834  0.3699
  176SOPE  H14X20082   6.142   1.702   9.068 -1.8554 -0.1298 -3.3643
  176SOPE  H14Y20083   6.159   1.873   9.106  0.6138 -1.6602  1.4687
  176SOPE  C31520084   5.984   1.845   8.982  0.0691 -0.3494  0.0069
  176SOPE  H15X20085   5.957   1.947   9.016 -0.6008  0.9685 -3.8926
  176SOPE  H15Y20086   5.894   1.781   8.975 -1.4022  1.8169 -3.4670
  176SOPE  C31620087   6.051   1.855   8.844 -0.5325 -0.2620 -1.0740
  176SOPE  H16X20088   6.067   1.756   8.797  1.2196 -1.8098  2.4228
  176SOPE  H16Y20089   6.147   1.909   8.857 -0.1886 -1.3215  1.3451
  176SOPE  C31720090   5.974   1.949   8.745  0.2564  0.1066  0.0951
  176SOPE  H17X20091   5.941   2.044   8.793  0.4556 -0.1105  0.6653
  176SOPE  H17Y20092   5.885   1.897   8.702  1.9173 -3.0422  0.1801
  176SOPE  C31820093   6.064   1.981   8.616  0.8219  0.7326 -0.2904
  176SOPE  H18X20094   6.068   1.887   8.558 -2.4470  1.2656 -1.5991
  176SOPE  H18Y20095   6.164   2.024   8.639  0.8368 -0.8420  3.2954
  176SOPE  H18Z20096   6.007   2.051   8.551  0.3579  1.5245  0.9376
  177SOPE     N20097   6.413   4.907  10.956  0.3363  0.2999  0.7242
  177SOPE   HN120098   6.343   4.831  10.971  3.1900 -2.0923  3.4244
  177SOPE   HN220099   6.487   4.866  10.895 -0.5099  0.1787 -0.2476
  177SOPE   HN320100   6.455   4.928  11.049 -0.0934  1.0189  0.7664
  177SOPE   C1220101   6.355   5.022  10.879  0.7788 -0.6344  0.0144
  177SOPE  H12A20102   6.277   5.060  10.948  0.3479 -1.7491  0.1639
  177SOPE  H12B20103   6.296   4.970  10.800 -1.7455 -1.6382  2.4178
  177SOPE   C1120104   6.462   5.118  10.826  0.2972 -0.0299 -0.7150
  177SOPE  H11A20105   6.410   5.203  10.776  1.8356  1.8365  0.7219
  177SOPE  H11B20106   6.529   5.060  10.760  0.4845 -1.6098  0.8023
  177SOPE     P20107   6.538   5.303  10.990 -0.5371 -0.1458 -0.0831
  177SOPE   O1320108   6.636   5.323  11.099  0.4143  0.1785  0.1365
  177SOPE   O1420109   6.396   5.329  11.023  0.6907  0.1712 -0.0280
  177SOPE   O1220110   6.548   5.158  10.931 -0.1466  0.6236  0.1431
  177SOPE   O1120111   6.572   5.397  10.866 -0.1114  0.5393 -0.0395
  177SOPE    C120112   6.705   5.447  10.848  0.5847  0.8416 -0.2031
  177SOPE    HA20113   6.753   5.391  10.766  0.1345  1.3688 -0.8323
  177SOPE    HB20114   6.768   5.432  10.939  0.3507  1.2192  0.0248
  177SOPE    C220115   6.704   5.601  10.836  0.1094 -0.4027  0.0313
  177SOPE    HS20116   6.622   5.637  10.902 -0.0258  0.9160 -0.8230
  177SOPE   O2120117   6.668   5.637  10.708  0.2398 -0.4478  0.1796
  177SOPE   C2120118   6.624   5.761  10.685  0.0173 -0.0202  0.3244
  177SOPE   O2220119   6.623   5.858  10.759  0.5622  0.6465  0.7098
  177SOPE   C2220120   6.577   5.753  10.540  0.1038 -0.3521 -0.2934
  177SOPE   H2R20121   6.496   5.677  10.543  0.2856 -0.4941  1.7220
  177SOPE   H2S20122   6.668   5.735  10.479  0.6852  0.2411  0.3916
  177SOPE    C320123   6.841   5.665  10.885  0.1770  0.3975  0.0268
  177SOPE    HX20124   6.863   5.623  10.985  1.2514  1.1442  0.1207
  177SOPE    HY20125   6.806   5.766  10.915  0.9856  0.1944  1.7157
  177SOPE   O3120126   6.953   5.645  10.800  0.2314 -0.6862 -0.1432
  177SOPE   C3120127   7.031   5.751  10.784  0.1984  0.7469  0.2571
  177SOPE   O3220128   7.016   5.857  10.833  0.5441  0.1834 -0.4664
  177SOPE   C3220129   7.149   5.723  10.682  0.4298  0.2353  0.2138
  177SOPE   H2X20130   7.188   5.621  10.701  1.6068  0.3993 -1.1742
  177SOPE   H2Y20131   7.233   5.790  10.709 -0.1591 -0.3412  4.0212
  177SOPE   C2320132   6.532   5.895  10.488 -0.1762  1.0737 -0.3245
  177SOPE   H3R20133   6.604   5.975  10.513  1.9490 -1.1728  1.1536
  177SOPE   H3S20134   6.439   5.923  10.544 -1.1984 -0.8474 -0.9757
  177SOPE   C2420135   6.516   5.898  10.334  0.1380  0.0552  0.1361
  177SOPE   H4R20136   6.529   6.001  10.294  0.7427 -0.3030 -0.6182
  177SOPE   H4S20137   6.594   5.830  10.293 -3.1007 -3.4711 -0.7649
  177SOPE   C2520138   6.387   5.839  10.289  0.5651  0.1083 -0.8742
  177SOPE   H5R20139   6.368   5.737  10.328 -0.4806 -0.2770 -2.2910
  177SOPE   H5S20140   6.300   5.898  10.325 -0.2950 -1.1434 -0.8405
  177SOPE   C2620141   6.382   5.809  10.136 -0.4157 -0.0231 -0.1774
  177SOPE   H6R20142   6.475   5.765  10.094 -1.0257 -0.9675 -0.5793
  177SOPE   H6S20143   6.304   5.730  10.126  0.8102 -1.3678  0.5094
  177SOPE   C2720144   6.320   5.921  10.045 -0.2139  0.1277  0.3306
  177SOPE   H7R20145   6.222   5.943  10.095 -1.5266 -0.9637 -1.6377
  177SOPE   H7S20146   6.378   6.015  10.048 -1.2917  0.7974  1.8779
  177SOPE   C2820147   6.289   5.885   9.906 -0.2862  0.4321 -0.0254
  177SOPE   H8R20148   6.209   5.810   9.921 -0.6446  0.8876  0.3714
  177SOPE   H8S20149   6.254   5.974   9.849 -1.1088 -0.9468 -1.7583
  177SOPE   C2920150   6.394   5.827   9.818 -0.8798  0.3351  0.1801
  177SOPE   H9120151   6.487   5.804   9.873  0.2751  1.8853 -1.0129
  177SOPE  C21020152   6.388   5.814   9.681  0.1274  0.0998 -0.9254
  177SOPE  H10120153   6.473   5.768   9.629  1.3132  2.9826 -1.7106
  177SOPE  C21120154   6.274   5.846   9.596 -0.5361 -1.1988  0.4756
  177SOPE  H11R20155   6.183   5.870   9.655 -0.7625 -0.3324 -0.1944
  177SOPE  H11S20156   6.253   5.758   9.531 -3.0542 -0.0343 -0.4307
  177SOPE  C21220157   6.306   5.982   9.523  0.2664  0.4681 -0.0407
  177SOPE  H12R20158   6.341   6.055   9.600  0.5379 -0.3209  0.5961
  177SOPE  H12S20159   6.208   6.023   9.489 -0.0635  0.2857  0.6630
  177SOPE  C21320160   6.406   5.957   9.418 -0.4966 -0.1492 -0.0371
  177SOPE  H13R20161   6.489   5.897   9.462 -1.1295 -0.4137  0.8147
  177SOPE  H13S20162   6.448   6.058   9.394  1.0811 -0.8228 -0.2679
  177SOPE  C21420163   6.352   5.895   9.290  0.2835  0.0392  0.2377
  177SOPE  H14R20164   6.304   5.980   9.238  0.5511  0.3074  0.4241
  177SOPE  H14S20165   6.282   5.809   9.290  0.3848 -0.0908  2.2767
  177SOPE  C21520166   6.470   5.859   9.192  0.1050  1.0121  1.1336
  177SOPE  H15R20167   6.518   5.768   9.232  0.3797 -0.8928 -3.0503
  177SOPE  H15S20168   6.543   5.943   9.196  1.4553 -0.1246  1.0369
  177SOPE  C21620169   6.428   5.829   9.041  0.2171  0.0813  1.3452
  177SOPE  H16R20170   6.405   5.925   8.992  0.2626 -1.2045 -1.3875
  177SOPE  H16S20171   6.337   5.765   9.040 -0.5749  1.1614 -1.0815
  177SOPE  C21720172   6.535   5.751   8.958 -0.1059 -0.2241 -1.3659
  177SOPE  H17R20173   6.547   5.659   9.019  2.1383  0.4726 -0.6611
  177SOPE  H17S20174   6.636   5.797   8.969  0.9505 -2.6600  0.0404
  177SOPE  C21820175   6.487   5.735   8.817 -0.2936  0.1944 -0.0455
  177SOPE  H18R20176   6.524   5.647   8.762  0.3667  1.0223 -0.9525
  177SOPE  H18S20177   6.513   5.817   8.747 -3.2945 -0.3644 -1.9936
  177SOPE  H18T20178   6.376   5.735   8.823 -0.2734 -0.9770  0.6733
  177SOPE   C3320179   7.107   5.742  10.533  0.6356  0.7713 -0.6227
  177SOPE   H3X20180   7.025   5.671  10.509  1.3348  0.2948 -1.6868
  177SOPE   H3Y20181   7.192   5.707  10.470  1.1355  0.9421 -0.0492
  177SOPE   C3420182   7.079   5.885  10.487  0.1077  0.2307 -0.0200
  177SOPE   H4X20183   7.160   5.957  10.514 -1.4317  1.5983  1.2256
  177SOPE   H4Y20184   7.002   5.920  10.559  2.0300 -1.6115  3.1795
  177SOPE   C3520185   7.038   5.902  10.343 -0.5910  0.7088 -0.1148
  177SOPE   H5X20186   6.972   5.818  10.312  1.1353 -1.0842  0.8369
  177SOPE   H5Y20187   7.134   5.904  10.287 -0.9666 -0.5838 -0.8432
  177SOPE   C3620188   6.955   6.035  10.318 -0.5885  0.0086  0.6082
  177SOPE   H6X20189   6.991   6.120  10.379  1.1092 -0.0963 -0.1935
  177SOPE   H6Y20190   6.849   6.017  10.345 -1.0891  1.9455  0.1216
  177SOPE   C3720191   6.953   6.062  10.168 -0.0513  0.3911 -0.1432
  177SOPE   H7X20192   6.951   5.966  10.112 -0.2907  0.2754  0.0634
  177SOPE   H7Y20193   7.053   6.107  10.149  1.5410 -3.0659 -0.8868
  177SOPE   C3820194   6.852   6.174  10.124 -0.7115 -0.6200 -0.3673
  177SOPE   H8X20195   6.882   6.266  10.177 -0.2508 -0.6855 -0.5100
  177SOPE   H8Y20196   6.753   6.135  10.154  0.1441 -1.4803  1.4700
  177SOPE   C3920197   6.860   6.212   9.976  0.2705  0.0773 -0.1550
  177SOPE   H9X20198   6.961   6.245   9.943  1.1769 -2.5559 -0.1977
  177SOPE   H9Y20199   6.776   6.283   9.956 -0.9705 -0.9109  1.2888
  177SOPE  C31020200   6.825   6.084   9.885 -0.4326  0.0123 -0.7430
  177SOPE  H10X20201   6.727   6.039   9.914 -0.9335  1.4953 -0.0676
  177SOPE  H10Y20202   6.897   6.000   9.898  0.9145  0.9404 -1.9499
  177SOPE  C31120203   6.827   6.115   9.736 -0.7488  0.3999 -0.7200
  177SOPE  H11X20204   6.916   6.173   9.705  0.6135 -1.5741 -0.6793
  177SOPE  H11Y20205   6.740   6.179   9.708 -1.6207 -0.2607  0.3970
  177SOPE  C31220206   6.848   5.992   9.650  0.1736  0.1926  0.6483
  177SOPE  H12X20207   6.770   5.917   9.678  1.0600 -0.1465  2.3577
  177SOPE  H12Y20208   6.940   5.939   9.683  0.3211 -0.8972 -1.3427
  177SOPE  C31320209   6.853   6.024   9.502 -0.0496 -0.3087 -0.7051
  177SOPE  H13X20210   6.950   6.074   9.479 -0.3150  0.9539  0.6835
  177SOPE  H13Y20211   6.770   6.094   9.476 -0.6164 -0.3042  0.9698
  177SOPE  C31420212   6.839   5.901   9.411 -0.3058 -0.2333 -0.6953
  177SOPE  H14X20213   6.737   5.857   9.422 -1.4991  2.2690 -1.0335
  177SOPE  H14Y20214   6.919   5.831   9.443 -1.0546 -0.6453  0.3418
  177SOPE  C31520215   6.872   5.941   9.264  0.1117  0.0080  0.9709
  177SOPE  H15X20216   6.963   6.005   9.263 -0.4882  0.8700  0.4332
  177SOPE  H15Y20217   6.792   6.009   9.230 -1.2466 -1.3055  1.4574
  177SOPE  C31620218   6.891   5.822   9.159 -0.0452  0.0044  0.3375
  177SOPE  H16X20219   6.793   5.776   9.136  0.4846 -1.3485  0.6991
  177SOPE  H16Y20220   6.961   5.749   9.205  1.4328  1.8529  1.1472
  177SOPE  C31720221   6.950   5.878   9.030  1.2957  0.3836  0.0788
  177SOPE  H17X20222   7.048   5.928   9.041  1.2854  0.3726  0.2234
  177SOPE  H17Y20223   6.870   5.950   9.000  0.3842  0.6320  2.8254
  177SOPE  C31820224   6.958   5.761   8.935  0.2318  0.0213 -0.0835
  177SOPE  H18X20225   6.866   5.700   8.934 -0.3944  0.9048 -2.2775
  177SOPE  H18Y20226   7.041   5.698   8.974  0.4906  0.7080  0.5034
  177SOPE  H18Z20227   6.982   5.784   8.829  1.8829 -1.9252 -0.1953
  178SOPE     N20228   6.551   3.588  10.763  0.1215  0.0191  0.2145
  178SOPE   HN120229   6.614   3.609  10.843 -0.4695 -0.1715  0.7420
  178SOPE   HN220230   6.565   3.497  10.715 -4.2530 -1.0976  0.5785
  178SOPE   HN320231   6.580   3.659  10.693 -0.6615 -1.9122 -2.1768
  178SOPE   C1220232   6.407   3.608  10.811 -0.3412 -0.5431 -0.3586
  178SOPE  H12A20233   6.379   3.534  10.888 -0.6519  0.2505  0.3033
  178SOPE  H12B20234   6.342   3.589  10.723 -1.2962 -1.9342  0.6061
  178SOPE   C1120235   6.384   3.754  10.849 -0.0615 -0.0692 -0.0350
  178SOPE  H11A20236   6.429   3.772  10.949  0.0810 -2.6663  0.4324
  178SOPE  H11B20237   6.274   3.758  10.862 -0.0168 -0.0069  0.3260
  178SOPE     P20238   6.323   3.953  10.681  0.2863 -0.0897  0.1092
  178SOPE   O1320239   6.405   4.053  10.606  0.4223 -0.5477  0.1049
  178SOPE   O1420240   6.233   4.002  10.783  0.1280 -0.5073  0.4925
  178SOPE   O1220241   6.426   3.842  10.742  0.4732  0.7205 -0.3380
  178SOPE   O1120242   6.247   3.853  10.584  0.1031  0.3627 -0.2852
  178SOPE    C120243   6.316   3.818  10.461 -0.0382 -0.5629  0.2404
  178SOPE    HA20244   6.306   3.711  10.434 -0.4229 -0.1894 -1.1511
  178SOPE    HB20245   6.425   3.842  10.460 -0.1824  0.1296  0.2579
  178SOPE    C220246   6.247   3.882  10.337  0.0119  0.8792 -0.0892
  178SOPE    HS20247   6.220   3.985  10.367  0.8250  0.2562  3.2128
  178SOPE   O2120248   6.147   3.790  10.292  0.9147 -0.7006 -0.6511
  178SOPE   C2120249   6.038   3.849  10.259  1.0449 -0.3415 -0.8892
  178SOPE   O2220250   6.013   3.967  10.249  0.2450 -0.1419  0.5960
  178SOPE   C2220251   5.944   3.741  10.212 -0.1285  0.1314 -0.0588
  178SOPE   H2R20252   5.860   3.722  10.282 -0.5079 -1.2376 -0.8599
  178SOPE   H2S20253   6.006   3.651  10.193 -1.3665 -0.4014 -1.8513
  178SOPE    C320254   6.350   3.889  10.217 -0.0495  0.2013  0.2112
  178SOPE    HX20255   6.367   3.784  10.186  2.6728  0.3359  1.0187
  178SOPE    HY20256   6.449   3.925  10.253  0.3740 -1.1480  0.4568
  178SOPE   O3120257   6.303   3.966  10.104 -0.5781 -0.2287  0.3751
  178SOPE   C3120258   6.313   4.101  10.111 -0.2339 -0.0215 -0.2332
  178SOPE   O3220259   6.379   4.157  10.202 -0.0073  0.9591 -0.0726
  178SOPE   C3220260   6.248   4.177   9.995  0.2941 -0.1676 -0.5747
  178SOPE   H2X20261   6.242   4.286  10.013 -0.5338 -0.3871  0.5759
  178SOPE   H2Y20262   6.146   4.133   9.995  0.8003 -1.3941  0.0124
  178SOPE   C2320263   5.883   3.763  10.068 -0.3281 -0.7197  0.1603
  178SOPE   H3R20264   5.965   3.789   9.998  1.4509  0.2761  2.4811
  178SOPE   H3S20265   5.817   3.852  10.060 -2.2014 -1.9138  1.4072
  178SOPE   C2420266   5.801   3.645  10.016 -0.5862 -0.0654 -0.8923
  178SOPE   H4R20267   5.872   3.566   9.985  0.4616  1.2256 -1.9104
  178SOPE   H4S20268   5.734   3.623  10.102  0.8235 -0.7660  0.0785
  178SOPE   C2520269   5.715   3.677   9.891 -0.0655  0.2910 -0.1973
  178SOPE   H5R20270   5.661   3.772   9.911  1.7923  1.1889  0.8526
  178SOPE   H5S20271   5.792   3.706   9.817  2.0080 -2.3447  0.7576
  178SOPE   C2620272   5.622   3.566   9.845  0.3162 -0.2018  0.8889
  178SOPE   H6R20273   5.683   3.474   9.836 -0.8058 -0.7417 -2.6688
  178SOPE   H6S20274   5.549   3.539   9.924  1.5546  0.3729  2.2682
  178SOPE   C2720275   5.564   3.579   9.700  0.7172  0.2061  0.3142
  178SOPE   H7R20276   5.458   3.546   9.697  1.0306 -1.1803  2.1060
  178SOPE   H7S20277   5.569   3.682   9.661 -0.7703 -0.3029 -1.3534
  178SOPE   C2820278   5.632   3.485   9.601 -0.1314 -0.7826  0.1784
  178SOPE   H8R20279   5.647   3.380   9.633  0.0328 -0.6878  0.4151
  178SOPE   H8S20280   5.561   3.485   9.515  1.7295  3.5659 -1.6549
  178SOPE   C2920281   5.769   3.539   9.562 -0.8019  0.0840 -0.4291
  178SOPE   H9120282   5.845   3.511   9.636 -1.6722  0.3015  0.5654
  178SOPE  C21020283   5.796   3.610   9.451 -0.1592 -0.3945 -0.2995
  178SOPE  H10120284   5.902   3.623   9.421 -0.4442 -0.1565 -1.2553
  178SOPE  C21120285   5.698   3.671   9.348  0.0585  0.3484  0.2021
  178SOPE  H11R20286   5.751   3.763   9.315 -0.9513  0.8451 -0.0795
  178SOPE  H11S20287   5.607   3.700   9.405  1.2590  1.8549  1.4555
  178SOPE  C21220288   5.655   3.580   9.224 -0.6871  0.6190 -0.2896
  178SOPE  H12R20289   5.610   3.487   9.266  1.2109  0.1300  0.7671
  178SOPE  H12S20290   5.736   3.546   9.156  0.4295  0.5978  1.0109
  178SOPE  C21320291   5.550   3.650   9.144  0.2795  0.0978 -0.9219
  178SOPE  H13R20292   5.471   3.662   9.221  1.1985 -0.7616  0.1993
  178SOPE  H13S20293   5.523   3.593   9.053 -1.3275 -0.0121 -0.3974
  178SOPE  C21420294   5.583   3.793   9.113 -0.2432 -0.0004 -0.6742
  178SOPE  H14R20295   5.681   3.789   9.060  0.3133 -1.5631  0.3912
  178SOPE  H14S20296   5.587   3.860   9.202  2.3587 -0.0795 -0.6416
  178SOPE  C21520297   5.484   3.856   9.018  0.2706  0.3214 -0.2470
  178SOPE  H15R20298   5.384   3.815   9.046 -0.1099  1.0498 -0.5024
  178SOPE  H15S20299   5.506   3.818   8.916  2.5925  0.7279  0.0545
  178SOPE  C21620300   5.486   4.012   9.014 -0.0175 -0.0695 -0.4409
  178SOPE  H16R20301   5.476   4.035   9.122 -0.8633 -1.8435 -0.1035
  178SOPE  H16S20302   5.402   4.052   8.953 -0.3091  0.9654  0.6140
  178SOPE  C21720303   5.616   4.073   8.960  0.0257 -0.2003  0.2819
  178SOPE  H17R20304   5.655   4.020   8.871 -0.5271  0.5929 -0.4560
  178SOPE  H17S20305   5.693   4.062   9.039  1.6453 -5.0944 -1.6465
  178SOPE  C21820306   5.593   4.222   8.927  0.1942 -0.5085 -0.0683
  178SOPE  H18R20307   5.506   4.237   8.860 -1.3437  0.4889  2.0498
  178SOPE  H18S20308   5.680   4.254   8.866 -0.6729 -0.3827 -1.2804
  178SOPE  H18T20309   5.571   4.272   9.024 -0.2492 -0.5689 -0.1381
  178SOPE   C3320310   6.314   4.165   9.857 -0.4092  0.5137 -0.1771
  178SOPE   H3X20311   6.370   4.069   9.848 -0.4031  0.4989  0.0227
  178SOPE   H3Y20312   6.371   4.259   9.838  2.1646 -0.5503  1.6433
  178SOPE   C3420313   6.202   4.149   9.749 -0.1235 -0.7758 -0.8996
  178SOPE   H4X20314   6.122   4.224   9.765  1.4827  0.3783  2.7458
  178SOPE   H4Y20315   6.166   4.045   9.764  2.5453 -1.6845 -0.2539
  178SOPE   C3520316   6.251   4.168   9.609 -0.4786  0.6186 -0.0128
  178SOPE   H5X20317   6.346   4.112   9.596 -1.0604 -0.5293  0.5063
  178SOPE   H5Y20318   6.271   4.277   9.601  0.6127  0.3003 -2.3999
  178SOPE   C3620319   6.140   4.157   9.504  0.4113  0.3958 -0.1326
  178SOPE   H6X20320   6.053   4.220   9.531  1.0140  0.9136  0.6633
  178SOPE   H6Y20321   6.098   4.055   9.491 -0.1182  0.6684 -0.6043
  178SOPE   C3720322   6.182   4.182   9.352 -0.4078  0.1615 -0.0585
  178SOPE   H7X20323   6.161   4.290   9.342 -2.2651 -0.3333 -2.9434
  178SOPE   H7Y20324   6.105   4.149   9.279  0.9348  1.7017 -2.3049
  178SOPE   C3820325   6.317   4.142   9.306 -0.7786 -0.3933  0.1170
  178SOPE   H8X20326   6.327   4.034   9.282  0.7824  0.0546 -1.4223
  178SOPE   H8Y20327   6.404   4.179   9.364  0.9397 -0.3715 -2.3383
  178SOPE   C3920328   6.345   4.201   9.165 -0.1682 -0.5227  0.1307
  178SOPE   H9X20329   6.264   4.175   9.092 -1.8335  0.9889  1.3408
  178SOPE   H9Y20330   6.435   4.157   9.119  1.4106  0.6103  1.9917
  178SOPE  C31020331   6.377   4.357   9.159 -0.4794 -0.6537 -0.0677
  178SOPE  H10X20332   6.442   4.387   9.244  1.1384 -1.0046 -1.1304
  178SOPE  H10Y20333   6.279   4.405   9.177  0.2341 -0.4888  4.8190
  178SOPE  C31120334   6.442   4.406   9.015 -0.3516  0.3525 -0.1200
  178SOPE  H11X20335   6.516   4.333   8.975 -1.3641  0.8976 -3.2445
  178SOPE  H11Y20336   6.504   4.494   9.043 -0.6717  0.5641 -0.0716
  178SOPE  C31220337   6.333   4.438   8.914  0.9959 -0.0139  0.6880
  178SOPE  H12X20338   6.283   4.535   8.938  0.4484  0.0744 -0.7010
  178SOPE  H12Y20339   6.260   4.356   8.931 -0.9107  1.8387  2.0204
  178SOPE  C31320340   6.380   4.448   8.763  0.3826  0.6714 -0.4375
  178SOPE  H13X20341   6.424   4.347   8.749 -0.8983 -0.1225  0.9818
  178SOPE  H13Y20342   6.465   4.516   8.743 -0.8585  1.6466 -2.7696
  178SOPE  C31420343   6.282   4.501   8.662  0.4073 -0.0364 -0.1850
  178SOPE  H14X20344   6.328   4.548   8.572 -1.2363 -0.6039 -1.3936
  178SOPE  H14Y20345   6.211   4.576   8.702 -1.0845 -1.2576 -0.4208
  178SOPE  C31520346   6.188   4.386   8.603 -0.0619 -0.0546  0.0677
  178SOPE  H15X20347   6.097   4.447   8.581 -0.3169 -1.1509 -2.1692
  178SOPE  H15Y20348   6.178   4.305   8.678  2.0404 -0.1370  0.3154
  178SOPE  C31620349   6.243   4.318   8.475 -0.4231 -0.3405 -0.5829
  178SOPE  H16X20350   6.322   4.245   8.504  0.5794  0.7632 -0.4724
  178SOPE  H16Y20351   6.270   4.397   8.401 -0.3470 -0.5388 -0.7691
  178SOPE  C31720352   6.130   4.253   8.407  0.7044 -0.6823  0.2161
  178SOPE  H17X20353   6.167   4.210   8.311 -0.0615  2.0960 -1.4487
  178SOPE  H17Y20354   6.049   4.325   8.384 -0.3522 -1.6926  0.7241
  178SOPE  C31820355   6.063   4.136   8.476  0.7598  0.2743 -0.0590
  178SOPE  H18X20356   6.044   4.165   8.581  0.2068 -2.4962  0.6900
  178SOPE  H18Y20357   6.132   4.049   8.463  0.9019  0.7761 -3.8283
  178SOPE  H18Z20358   5.967   4.097   8.437  0.1576  0.3672  1.2645
  179SOPE     N20359   3.288   4.355   6.478  0.4333  0.1190  0.7380
  179SOPE   HN120360   3.279   4.252   6.490 -1.0936  0.4693  3.2951
  179SOPE   HN220361   3.334   4.380   6.568 -0.1960 -0.4619  1.2314
  179SOPE   HN320362   3.192   4.393   6.478  0.2268 -0.3804  1.2573
  179SOPE   C1220363   3.374   4.394   6.363 -0.6486  0.1521  0.0320
  179SOPE  H12A20364   3.344   4.494   6.324 -0.8036 -0.3587 -1.2011
  179SOPE  H12B20365   3.370   4.319   6.282 -2.0238  1.0727 -0.8012
  179SOPE   C1120366   3.516   4.416   6.424 -0.2922 -0.3862 -0.1249
  179SOPE  H11A20367   3.507   4.484   6.511  1.9404  1.4369 -1.1704
  179SOPE  H11B20368   3.586   4.465   6.352  1.0697 -0.3916  1.1417
  179SOPE     P20369   3.730   4.265   6.470 -0.2871 -0.0907 -0.0730
  179SOPE   O1320370   3.798   4.386   6.514 -0.2103 -0.0026  0.4076
  179SOPE   O1420371   3.755   4.214   6.333  0.2667 -0.0933 -0.2875
  179SOPE   O1220372   3.577   4.295   6.466  0.5840 -0.0703 -0.7367
  179SOPE   O1120373   3.746   4.147   6.581 -0.0230  0.3430 -0.0491
  179SOPE    C120374   3.638   4.049   6.587  0.3358  0.0913 -0.1169
  179SOPE    HA20375   3.674   3.950   6.623 -1.0452 -0.0630  0.9413
  179SOPE    HB20376   3.585   4.032   6.491 -0.6486 -0.2660  0.4781
  179SOPE    C220377   3.537   4.088   6.698 -0.4582 -0.0748  0.4930
  179SOPE    HS20378   3.501   4.190   6.670 -0.1693 -0.3636 -1.0287
  179SOPE   O2120379   3.607   4.082   6.828 -0.2634  0.2723 -0.8819
  179SOPE   C2120380   3.628   4.191   6.898 -0.4922 -0.3167  0.2939
  179SOPE   O2220381   3.585   4.303   6.868  0.5204 -0.8651  0.0997
  179SOPE   C2220382   3.696   4.152   7.032  0.0867 -0.0359  0.3308
  179SOPE   H2R20383   3.734   4.048   7.026 -1.9843 -0.8696  0.7978
  179SOPE   H2S20384   3.609   4.147   7.101  0.2990  0.0134  0.6050
  179SOPE    C320385   3.419   3.992   6.714  0.0161  0.4324 -0.5846
  179SOPE    HX20386   3.463   3.892   6.730 -1.0513 -0.1318 -1.0526
  179SOPE    HY20387   3.370   4.003   6.615 -2.2422 -0.3700  0.3874
  179SOPE   O3120388   3.332   4.031   6.820  0.2057 -0.1347  0.0817
  179SOPE   C3120389   3.225   4.106   6.783 -0.4691 -0.2425  0.4045
  179SOPE   O3220390   3.208   4.158   6.669 -0.2415 -0.0748 -0.4142
  179SOPE   C3220391   3.128   4.111   6.894  0.1719  0.9651  0.5879
  179SOPE   H2X20392   3.069   4.017   6.885  1.1103  0.5175 -1.3012
  179SOPE   H2Y20393   3.058   4.191   6.863  1.6352  1.4887 -1.6225
  179SOPE   C2320394   3.788   4.260   7.087 -0.1017  0.1520  0.2186
  179SOPE   H3R20395   3.738   4.359   7.083 -0.9252 -0.2568  0.1138
  179SOPE   H3S20396   3.876   4.268   7.020 -0.3617  3.5856  0.1157
  179SOPE   C2420397   3.839   4.235   7.230 -0.0585 -0.2999 -0.0128
  179SOPE   H4R20398   3.871   4.129   7.233  1.5617  0.0852 -1.7670
  179SOPE   H4S20399   3.921   4.307   7.255 -1.2052  0.7341  0.8848
  179SOPE   C2520400   3.735   4.252   7.344 -0.2870 -0.0634 -0.2839
  179SOPE   H5R20401   3.679   4.345   7.323 -1.7796 -0.2895  2.2742
  179SOPE   H5S20402   3.661   4.170   7.353 -0.1867 -0.0149  1.2903
  179SOPE   C2620403   3.804   4.270   7.483 -0.1162  0.2817  0.7863
  179SOPE   H6R20404   3.859   4.174   7.498 -2.0294 -0.7074  1.7667
  179SOPE   H6S20405   3.870   4.359   7.474 -1.6851  1.3640 -0.6973
  179SOPE   C2720406   3.697   4.299   7.592 -0.2723 -0.4210 -0.1483
  179SOPE   H7R20407   3.668   4.407   7.592  1.9131  0.2465 -2.1983
  179SOPE   H7S20408   3.612   4.230   7.575 -0.6986 -0.2111  1.0070
  179SOPE   C2820409   3.762   4.262   7.726  0.5053 -0.2655  0.7157
  179SOPE   H8R20410   3.672   4.263   7.791 -0.9967 -0.0358 -1.2560
  179SOPE   H8S20411   3.808   4.161   7.723  1.1116  0.0187 -0.2215
  179SOPE   C2920412   3.869   4.349   7.770  0.0606  0.4069 -0.1605
  179SOPE   H9120413   3.946   4.378   7.697 -1.5730 -0.6850 -2.4494
  179SOPE  C21020414   3.884   4.380   7.903 -0.6859 -0.6557  0.1965
  179SOPE  H10120415   3.968   4.439   7.942 -1.8826  1.1851  0.1149
  179SOPE  C21120416   3.790   4.329   8.011 -0.1470  0.3877 -0.3590
  179SOPE  H11R20417   3.684   4.307   7.984  0.5747 -2.6447 -1.0443
  179SOPE  H11S20418   3.776   4.400   8.095 -0.7554  2.9762 -2.4808
  179SOPE  C21220419   3.861   4.201   8.066 -0.5364 -0.1504 -0.3381
  179SOPE  H12R20420   3.962   4.201   8.112  0.2539 -0.6123 -1.9759
  179SOPE  H12S20421   3.875   4.148   7.969 -1.0517  2.8889 -2.1901
  179SOPE  C21320422   3.770   4.117   8.154  0.4552  0.0870  0.6294
  179SOPE  H13R20423   3.807   4.013   8.153 -0.7092 -0.3537 -0.5384
  179SOPE  H13S20424   3.671   4.103   8.105  2.0203 -2.0917 -2.2741
  179SOPE  C21420425   3.728   4.158   8.299  0.1486  0.1321 -0.0876
  179SOPE  H14R20426   3.687   4.260   8.309  1.9458  0.7290  1.8489
  179SOPE  H14S20427   3.813   4.147   8.369  2.4764 -0.5345 -2.7981
  179SOPE  C21520428   3.597   4.082   8.343 -0.6368 -0.6117 -0.1250
  179SOPE  H15R20429   3.614   3.973   8.355  2.3018 -0.0740  1.5531
  179SOPE  H15S20430   3.518   4.087   8.265 -1.3856 -1.7684  0.5321
  179SOPE  C21620431   3.539   4.129   8.475 -0.4283  0.3399  0.3402
  179SOPE  H16R20432   3.489   4.228   8.486  0.7202  0.9552  0.1268
  179SOPE  H16S20433   3.623   4.120   8.548 -0.2489 -1.3044 -0.0251
  179SOPE  C21720434   3.435   4.033   8.543  0.2810  0.1547  0.4533
  179SOPE  H17R20435   3.491   3.941   8.569  0.1964  0.3979  1.5219
  179SOPE  H17S20436   3.344   4.006   8.484  1.0733 -0.1867 -0.6633
  179SOPE  C21820437   3.376   4.086   8.667 -0.4551 -0.6748  0.7894
  179SOPE  H18R20438   3.317   4.013   8.727 -2.0311  0.9055  1.2443
  179SOPE  H18S20439   3.311   4.172   8.640  1.1649  0.2016 -0.4676
  179SOPE  H18T20440   3.451   4.127   8.738 -1.0342 -0.8924  1.5391
  179SOPE   C3320441   3.185   4.120   7.037  0.3968 -0.1435 -0.4131
  179SOPE   H3X20442   3.242   4.028   7.060  1.5302  0.3063 -1.3240
  179SOPE   H3Y20443   3.100   4.133   7.108  1.2112  1.5463  0.2913
  179SOPE   C3420444   3.282   4.236   7.049  0.6593  0.8300  0.0866
  179SOPE   H4X20445   3.236   4.336   7.031  0.0018  0.3496 -0.9441
  179SOPE   H4Y20446   3.362   4.226   6.972  1.1783  1.0583  0.5922
  179SOPE   C3520447   3.368   4.238   7.180 -0.3441 -0.1824  0.0179
  179SOPE   H5X20448   3.458   4.301   7.169  0.0019 -0.7666 -0.5358
  179SOPE   H5Y20449   3.397   4.137   7.216  1.5710  0.8044  1.4133
  179SOPE   C3620450   3.279   4.300   7.295 -0.1126  0.1594  0.2567
  179SOPE   H6X20451   3.206   4.222   7.325  0.7434 -0.9589 -0.4538
  179SOPE   H6Y20452   3.209   4.373   7.251 -2.8683 -2.2112  0.4246
  179SOPE   C3720453   3.374   4.334   7.412  0.3225  0.5723 -0.2692
  179SOPE   H7X20454   3.455   4.401   7.377 -0.0289  0.5606 -1.1454
  179SOPE   H7Y20455   3.415   4.239   7.451  1.9982  0.7424 -1.4776
  179SOPE   C3820456   3.292   4.415   7.517  0.8463  0.3664 -0.3756
  179SOPE   H8X20457   3.188   4.376   7.520  0.7009  0.7819  0.2653
  179SOPE   H8Y20458   3.291   4.521   7.485 -0.2928  1.1615  2.0128
  179SOPE   C3920459   3.354   4.405   7.662  0.7205  0.0785 -0.1485
  179SOPE   H9X20460   3.323   4.490   7.726 -2.0700 -2.2374  1.8407
  179SOPE   H9Y20461   3.464   4.399   7.646  0.7407  1.0628 -0.4082
  179SOPE  C31020462   3.302   4.287   7.749 -0.1868 -0.2550  1.1450
  179SOPE  H10X20463   3.340   4.193   7.704 -1.0448  0.8246 -2.1960
  179SOPE  H10Y20464   3.192   4.272   7.752 -0.6054  2.0841 -0.0655
  179SOPE  C31120465   3.353   4.311   7.893  0.2334  0.2004 -0.2010
  179SOPE  H11X20466   3.305   4.403   7.931 -1.0238 -0.6226  0.2809
  179SOPE  H11Y20467   3.463   4.330   7.885 -0.0105  1.0764 -1.7931
  179SOPE  C31220468   3.342   4.188   7.995 -0.3500  0.7526  0.3005
  179SOPE  H12X20469   3.409   4.213   8.080 -1.7157 -0.0501  1.6474
  179SOPE  H12Y20470   3.356   4.089   7.947  0.4601  1.7127 -1.5610
  179SOPE  C31320471   3.207   4.195   8.064 -0.2475  0.3917 -0.3128
  179SOPE  H13X20472   3.130   4.170   7.988 -0.9899 -1.4215  0.9683
  179SOPE  H13Y20473   3.204   4.298   8.105  2.0400  0.1759  0.5627
  179SOPE  C31420474   3.191   4.104   8.184 -0.6559  0.1675  0.8736
  179SOPE  H14X20475   3.282   4.105   8.248 -0.0847 -0.0355  0.0836
  179SOPE  H14Y20476   3.189   4.001   8.143 -0.2898 -0.0807  1.4626
  179SOPE  C31520477   3.057   4.120   8.260  0.1588  0.2077  0.2704
  179SOPE  H15X20478   3.037   4.048   8.343  1.4400 -0.8806 -0.3309
  179SOPE  H15Y20479   2.983   4.106   8.179  0.6520  1.7354 -0.4870
  179SOPE  C31620480   3.030   4.259   8.317  0.1612 -0.0242  0.0938
  179SOPE  H16X20481   2.940   4.257   8.383  1.4630  1.3978  2.0290
  179SOPE  H16Y20482   2.995   4.332   8.241 -0.0032 -1.6535 -1.4642
  179SOPE  C31720483   3.145   4.330   8.389  0.4794 -0.2191 -0.4405
  179SOPE  H17X20484   3.236   4.326   8.325  1.7052 -1.0561  1.3023
  179SOPE  H17Y20485   3.159   4.272   8.482 -5.1013 -0.7560  0.4225
  179SOPE  C31820486   3.110   4.472   8.422  0.5630 -0.5770  0.1395
  179SOPE  H18X20487   3.190   4.524   8.478 -0.0990  1.4256 -0.7033
  179SOPE  H18Y20488   3.013   4.493   8.472 -0.7800  1.1563 -2.9350
  179SOPE  H18Z20489   3.104   4.524   8.324  2.3887  0.0852  0.3516
  180SOPE     N20490   2.048   4.931   6.407  0.1563 -0.3317 -0.2404
  180SOPE   HN120491   2.084   4.839   6.441  2.6240  1.0447  1.1297
  180SOPE   HN220492   2.126   4.993   6.380 -0.8770  1.2566  0.2692
  180SOPE   HN320493   2.000   4.981   6.484  1.5926  0.4642  0.1657
  180SOPE   C1220494   1.956   4.906   6.292 -0.2450 -0.5873  0.8068
  180SOPE  H12A20495   1.899   4.813   6.315 -4.4360  1.0578 -1.6613
  180SOPE  H12B20496   2.011   4.893   6.196 -2.0622  0.7648 -0.5000
  180SOPE   C1120497   1.831   5.000   6.285 -0.5757 -1.6716 -0.4194
  180SOPE  H11A20498   1.756   4.984   6.365  0.1045 -0.1848  0.5669
  180SOPE  H11B20499   1.781   4.968   6.192 -0.2528  0.1229 -1.2579
  180SOPE     P20500   1.770   5.250   6.223  0.3059 -0.0603  0.7421
  180SOPE   O1320501   1.734   5.225   6.080  0.1227  0.7768 -1.0874
  180SOPE   O1420502   1.823   5.384   6.261 -0.4727 -0.2124  0.2490
  180SOPE   O1220503   1.870   5.138   6.277  0.1785 -0.1439  0.7275
  180SOPE   O1120504   1.640   5.224   6.318 -0.1269 -0.5268  0.5727
  180SOPE    C120505   1.669   5.243   6.457  0.4102  0.4438  0.5286
  180SOPE    HA20506   1.680   5.353   6.467 -4.0007  1.1949 -0.7200
  180SOPE    HB20507   1.760   5.186   6.486  0.0462 -0.7109 -0.5395
  180SOPE    C220508   1.555   5.186   6.552  0.3481  0.2673 -0.9924
  180SOPE    HS20509   1.560   5.076   6.541  1.9544  0.4384 -2.3412
  180SOPE   O2120510   1.433   5.248   6.509 -0.2729 -0.5093  0.2529
  180SOPE   C2120511   1.322   5.178   6.528 -0.0960 -0.4665  0.0385
  180SOPE   O2220512   1.314   5.065   6.577 -0.7873  0.3432 -0.5384
  180SOPE   C2220513   1.209   5.280   6.494  0.4745 -0.0007 -0.7530
  180SOPE   H2R20514   1.207   5.297   6.385  0.3294  0.6607 -0.6554
  180SOPE   H2S20515   1.235   5.377   6.542 -0.1007  0.1547 -0.7423
  180SOPE    C320516   1.596   5.237   6.699 -0.4375 -0.2592  0.1701
  180SOPE    HX20517   1.582   5.347   6.699 -1.1575 -0.3455  0.0053
  180SOPE    HY20518   1.703   5.208   6.706 -0.5084 -0.3847  0.7856
  180SOPE   O3120519   1.511   5.177   6.802 -0.7964  0.4982 -0.1808
  180SOPE   C3120520   1.553   5.052   6.834 -0.1006  0.1731  0.2880
  180SOPE   O3220521   1.654   5.003   6.790 -0.1863  0.3889 -0.1250
  180SOPE   C3220522   1.447   4.994   6.920  0.6104 -0.6380 -0.0096
  180SOPE   H2X20523   1.357   4.976   6.857  0.1009  0.3689  0.4031
  180SOPE   H2Y20524   1.414   5.054   7.008 -0.8132 -0.1298 -0.8434
  180SOPE   C2320525   1.065   5.232   6.543  0.2702 -0.1607  0.5904
  180SOPE   H3R20526   1.053   5.128   6.507 -0.2773 -0.6975  2.2352
  180SOPE   H3S20527   0.996   5.293   6.480  1.8764 -0.2242 -1.3245
  180SOPE   C2420528   1.032   5.257   6.688 -0.5780  0.8422 -0.5757
  180SOPE   H4R20529   1.067   5.360   6.708  0.0384 -0.1099  4.6915
  180SOPE   H4S20530   0.923   5.252   6.711 -0.2894 -0.2687  0.7340
  180SOPE   C2520531   1.099   5.153   6.791  0.7517  0.7983  0.0137
  180SOPE   H5R20532   1.059   5.057   6.754  1.2049  0.2586  0.9032
  180SOPE   H5S20533   1.209   5.137   6.783  0.4549 -0.9409 -0.9422
  180SOPE   C2620534   1.065   5.181   6.936  0.4346  0.0190  0.4845
  180SOPE   H6R20535   1.125   5.111   6.998  0.2396 -2.3646 -1.8407
  180SOPE   H6S20536   1.077   5.288   6.962 -2.8232  0.6880 -0.4150
  180SOPE   C2720537   0.925   5.141   6.970 -0.4975  0.0266 -0.3174
  180SOPE   H7R20538   0.863   5.187   6.891  1.2239 -0.5480 -2.0686
  180SOPE   H7S20539   0.910   5.032   6.958  0.1613 -0.0769 -0.2696
  180SOPE   C2820540   0.886   5.188   7.113  0.4911  0.0536 -0.4822
  180SOPE   H8R20541   0.883   5.299   7.116  0.5650  0.0547  2.1643
  180SOPE   H8S20542   0.790   5.139   7.140 -1.6465  3.1300 -1.8994
  180SOPE   C2920543   0.985   5.143   7.217  0.0913  1.1066  0.7728
  180SOPE   H9120544   1.042   5.056   7.180 -0.0924  1.4113 -0.2719
  180SOPE  C21020545   1.019   5.205   7.330  0.1321 -0.1231 -0.4821
  180SOPE  H10120546   1.101   5.173   7.396 -0.0111 -1.5739 -0.9698
  180SOPE  C21120547   0.953   5.333   7.378  0.2153 -0.2301  0.0979
  180SOPE  H11R20548   0.913   5.338   7.482  0.8758 -0.9688  0.3971
  180SOPE  H11S20549   0.861   5.348   7.317 -1.4954 -4.4840  1.2598
  180SOPE  C21220550   1.037   5.457   7.361 -0.5586 -0.0679  0.0868
  180SOPE  H12R20551   0.973   5.547   7.372  0.2529  0.6268 -0.6352
  180SOPE  H12S20552   1.071   5.468   7.255 -1.0258 -1.3145 -0.1994
  180SOPE  C21320553   1.152   5.473   7.449 -0.2546  0.1181 -0.6853
  180SOPE  H13R20554   1.191   5.575   7.430  0.4199  0.2862  1.3761
  180SOPE  H13S20555   1.226   5.391   7.435 -0.3621 -0.3997  1.3928
  180SOPE  C21420556   1.116   5.457   7.604 -0.2026  0.0845  0.3307
  180SOPE  H14R20557   1.078   5.354   7.621  3.5277 -1.9404 -2.0707
  180SOPE  H14S20558   1.036   5.522   7.644  0.5773  0.4960  1.2582
  180SOPE  C21520559   1.231   5.483   7.693 -0.3064 -1.0461  0.4110
  180SOPE  H15R20560   1.270   5.586   7.681  0.5104 -1.1301  2.0077
  180SOPE  H15S20561   1.314   5.413   7.670  0.6597 -0.2061  1.2365
  180SOPE  C21620562   1.195   5.460   7.840  0.0947 -0.5950 -0.5226
  180SOPE  H16R20563   1.098   5.512   7.856  0.9504  1.2299 -0.9366
  180SOPE  H16S20564   1.277   5.504   7.902 -2.6377  1.2092  2.0553
  180SOPE  C21720565   1.176   5.317   7.891 -0.4035  0.6250  0.2213
  180SOPE  H17R20566   1.261   5.256   7.853  0.2368  0.9380  1.1072
  180SOPE  H17S20567   1.084   5.266   7.855  1.9150 -3.9081 -0.0349
  180SOPE  C21820568   1.167   5.294   8.049 -0.2582  0.0424  0.0507
  180SOPE  H18R20569   1.070   5.331   8.089  0.4688  0.6040  1.3413
  180SOPE  H18S20570   1.248   5.350   8.100 -0.4429 -1.6967  2.4103
  180SOPE  H18T20571   1.180   5.188   8.081 -1.4252  0.0598  0.6516
  180SOPE   C3320572   1.491   4.861   6.991  0.1020  0.3611 -0.3289
  180SOPE   H3X20573   1.580   4.889   7.050  1.2169  0.8583 -2.1834
  180SOPE   H3Y20574   1.538   4.791   6.920 -0.9712 -0.0285 -0.6858
  180SOPE   C3420575   1.391   4.789   7.072  0.0075 -0.0919  0.1002
  180SOPE   H4X20576   1.446   4.711   7.130  0.7359  0.6741  0.4653
  180SOPE   H4Y20577   1.314   4.745   7.005  0.8643  0.8327 -1.5478
  180SOPE   C3520578   1.328   4.879   7.177 -0.3963 -0.2791 -0.9293
  180SOPE   H5X20579   1.253   4.821   7.234  0.6526  1.2867  2.3076
  180SOPE   H5Y20580   1.291   4.980   7.147 -0.7457  0.1767  0.9338
  180SOPE   C3620581   1.444   4.920   7.278 -0.0161  0.5749  0.8584
  180SOPE   H6X20582   1.519   4.975   7.218  0.6673  0.8603  1.9500
  180SOPE   H6Y20583   1.488   4.828   7.323  3.5089  1.7259  0.0755
  180SOPE   C3720584   1.420   5.018   7.392 -0.2887  0.5712  0.4767
  180SOPE   H7X20585   1.334   5.083   7.364  1.6152  2.5324 -1.1550
  180SOPE   H7Y20586   1.504   5.089   7.402  0.1204  0.1189  0.2896
  180SOPE   C3820587   1.398   4.931   7.516  0.1697 -0.0168 -0.4791
  180SOPE   H8X20588   1.470   4.847   7.504  1.2075  1.0157 -1.8536
  180SOPE   H8Y20589   1.301   4.880   7.496  0.1394  0.1095 -0.6674
  180SOPE   C3920590   1.402   4.999   7.655  0.1162 -0.6081  0.1344
  180SOPE   H9X20591   1.391   4.917   7.729  0.3697  0.4073  1.3359
  180SOPE   H9Y20592   1.314   5.066   7.666  0.2269 -0.5404  0.6320
  180SOPE  C31020593   1.541   5.065   7.686  0.3863  0.6556  0.3380
  180SOPE  H10X20594   1.574   5.114   7.592 -0.8322 -0.1532 -0.5446
  180SOPE  H10Y20595   1.609   4.977   7.696  0.6837  0.9216  0.6637
  180SOPE  C31120596   1.555   5.161   7.806 -0.1564  0.8227  0.2030
  180SOPE  H11X20597   1.494   5.251   7.788  2.4006  2.9129  1.2858
  180SOPE  H11Y20598   1.661   5.194   7.797  0.2211 -0.6123 -1.0550
  180SOPE  C31220599   1.542   5.096   7.937  0.3574  0.1778  0.5637
  180SOPE  H12X20600   1.601   5.001   7.937  1.8348  0.9671 -2.4449
  180SOPE  H12Y20601   1.436   5.062   7.938  0.4902 -0.2463  1.5034
  180SOPE  C31320602   1.582   5.171   8.066  0.3063  0.0711  0.3216
  180SOPE  H13X20603   1.501   5.245   8.082  0.6025  0.3094  0.7508
  180SOPE  H13Y20604   1.681   5.220   8.052  0.6477 -0.3273  1.2416
  180SOPE  C31420605   1.594   5.085   8.195  0.8360 -0.1144 -0.0346
  180SOPE  H14X20606   1.637   5.149   8.275  0.6251  0.1331 -0.1148
  180SOPE  H14Y20607   1.663   5.001   8.173  3.5504  1.7444  0.8186
  180SOPE  C31520608   1.457   5.032   8.234  0.1773 -0.3523  0.1964
  180SOPE  H15X20609   1.416   4.969   8.152  3.6103 -0.3334 -1.7138
  180SOPE  H15Y20610   1.382   5.114   8.243  0.1732 -0.3882  0.4981
  180SOPE  C31620611   1.454   4.956   8.369  0.0061 -0.5143 -0.2635
  180SOPE  H16X20612   1.482   5.018   8.456 -2.1712  0.5718 -0.2890
  180SOPE  H16Y20613   1.526   4.872   8.356 -0.7672 -0.8679 -2.8269
  180SOPE  C31720614   1.306   4.903   8.392 -0.1605  0.3868 -0.5050
  180SOPE  H17X20615   1.285   4.825   8.315 -0.0078  0.6907 -0.8606
  180SOPE  H17Y20616   1.239   4.987   8.364 -0.7948  0.0885  0.0974
  180SOPE  C31820617   1.280   4.849   8.534 -0.3296  0.3767  0.2252
  180SOPE  H18X20618   1.277   4.930   8.611 -0.8815  0.9545 -0.3889
  180SOPE  H18Y20619   1.359   4.776   8.560  1.8204  3.2247  2.4480
  180SOPE  H18Z20620   1.180   4.803   8.550 -0.1459 -0.9592 -2.1502
  181SOPE     N20621   6.612   2.143   5.794  0.6073  0.0374  0.4126
  181SOPE   HN120622   6.632   2.166   5.893  2.8659  1.2008 -0.2372
  181SOPE   HN220623   6.696   2.165   5.737 -0.1690  0.1760 -0.7256
  181SOPE   HN320624   6.548   2.217   5.758  2.1880  1.0095 -0.5207
  181SOPE   C1220625   6.557   2.005   5.772 -0.0794 -0.0382 -0.5529
  181SOPE  H12A20626   6.510   1.994   5.672  1.5251  0.9927 -1.4662
  181SOPE  H12B20627   6.477   1.993   5.848  0.4462  1.8749  0.3531
  181SOPE   C1120628   6.679   1.898   5.782  0.1076 -0.3626 -0.5750
  181SOPE  H11A20629   6.751   1.897   5.697  2.6334 -2.5369  1.4243
  181SOPE  H11B20630   6.626   1.804   5.758 -2.1740  0.8048 -0.4544
  181SOPE     P20631   6.699   1.784   6.020 -0.2856 -0.1091  0.1724
  181SOPE   O1320632   6.763   1.655   5.986 -0.4482 -0.6413 -0.2700
  181SOPE   O1420633   6.556   1.775   6.039  0.3973  0.1536  0.0168
  181SOPE   O1220634   6.742   1.892   5.904  0.0474  0.5948 -0.0364
  181SOPE   O1120635   6.766   1.842   6.154 -0.2159 -0.2031 -0.1161
  181SOPE    C120636   6.858   1.950   6.157 -0.1700  0.2934  0.0084
  181SOPE    HA20637   6.814   2.036   6.103 -0.6725 -0.0567 -0.1513
  181SOPE    HB20638   6.953   1.924   6.106  0.5600  1.5837  0.6567
  181SOPE    C220639   6.895   1.992   6.302 -0.4539 -0.2190  0.1712
  181SOPE    HS20640   6.976   2.066   6.289 -1.2913  0.7651  0.4154
  181SOPE   O2120641   6.929   1.879   6.374  0.4338  0.7035 -0.5037
  181SOPE   C2120642   7.057   1.836   6.355  0.9891 -0.4039  0.5421
  181SOPE   O2220643   7.125   1.871   6.258 -0.2696 -0.0238 -0.0478
  181SOPE   C2220644   7.085   1.725   6.459  0.2569 -0.5412  0.1424
  181SOPE   H2R20645   7.020   1.643   6.420 -1.0033  0.2505  0.5189
  181SOPE   H2S20646   7.034   1.761   6.551 -3.7407  0.8249 -2.3285
  181SOPE    C320647   6.778   2.051   6.374 -0.5266  0.5938  0.0755
  181SOPE    HX20648   6.707   1.974   6.410  2.1410 -1.6172  0.9567
  181SOPE    HY20649   6.728   2.111   6.294  0.7332  0.7459 -0.6336
  181SOPE   O3120650   6.823   2.133   6.483  0.1329  0.3656 -0.0896
  181SOPE   C3120651   6.843   2.074   6.603  0.5630  0.0519  0.0252
  181SOPE   O3220652   6.833   1.959   6.632 -0.4350  0.4012  0.4995
  181SOPE   C3220653   6.889   2.178   6.703 -0.6362 -0.0347  0.5838
  181SOPE   H2X20654   6.824   2.269   6.706  0.4530  1.0223 -2.8220
  181SOPE   H2Y20655   6.983   2.223   6.665 -0.8803  2.4122  2.6268
  181SOPE   C2320656   7.232   1.692   6.469 -0.4698 -0.1254 -0.3517
  181SOPE   H3R20657   7.294   1.746   6.395 -0.4378 -1.7001 -1.5179
  181SOPE   H3S20658   7.247   1.588   6.434  1.1140  0.6959 -2.2471
  181SOPE   C2420659   7.286   1.700   6.613  0.1061 -0.1561  1.2799
  181SOPE   H4R20660   7.392   1.669   6.604  0.0252  0.2003 -2.4450
  181SOPE   H4S20661   7.282   1.810   6.628 -0.9502  0.5542 -2.9523
  181SOPE   C2520662   7.215   1.625   6.718  0.2758 -0.4657 -0.7547
  181SOPE   H5R20663   7.107   1.620   6.690 -0.5287  0.9962  1.7997
  181SOPE   H5S20664   7.245   1.518   6.712 -0.1673 -0.6566  0.2702
  181SOPE   C2620665   7.235   1.685   6.857  0.3733 -0.5516  0.5576
  181SOPE   H6R20666   7.342   1.710   6.873  0.2720 -0.2040  0.6872
  181SOPE   H6S20667   7.183   1.783   6.856  0.2718 -0.6023 -0.5966
  181SOPE   C2720668   7.169   1.608   6.971  0.9919 -0.0081  0.1715
  181SOPE   H7R20669   7.068   1.652   6.964  1.0428  0.5320  2.1419
  181SOPE   H7S20670   7.166   1.498   6.958 -0.5062  0.0738 -0.3044
  181SOPE   C2820671   7.229   1.627   7.112 -0.7055 -0.1454 -0.8919
  181SOPE   H8R20672   7.182   1.564   7.191 -1.7763  1.4087 -0.2525
  181SOPE   H8S20673   7.337   1.602   7.111 -0.5409  0.2776  1.4907
  181SOPE   C2920674   7.221   1.775   7.151  0.2524 -0.5823 -0.2850
  181SOPE   H9120675   7.287   1.836   7.087 -1.4593  2.4474  0.6170
  181SOPE  C21020676   7.143   1.836   7.241  1.0528 -0.3108 -0.5151
  181SOPE  H10120677   7.149   1.944   7.257 -2.3542  0.0825 -1.2116
  181SOPE  C21120678   7.039   1.774   7.332 -0.3340 -0.3031  0.2245
  181SOPE  H11R20679   6.978   1.700   7.276 -0.1814 -0.7440  0.6307
  181SOPE  H11S20680   6.971   1.847   7.381 -0.8611 -0.9243  0.4269
  181SOPE  C21220681   7.102   1.698   7.454 -0.1849  0.2729  0.3027
  181SOPE  H12R20682   7.183   1.623   7.435  0.3161  0.5904  1.1048
  181SOPE  H12S20683   7.017   1.648   7.503 -0.7156 -0.5330 -1.3803
  181SOPE  C21320684   7.166   1.804   7.552 -0.3124 -0.6689  0.5885
  181SOPE  H13R20685   7.105   1.896   7.560  1.1453  0.6626 -2.1599
  181SOPE  H13S20686   7.256   1.838   7.496 -1.1440  1.5755  0.4978
  181SOPE  C21420687   7.189   1.757   7.700  0.0970 -0.4366  0.5478
  181SOPE  H14R20688   7.238   1.842   7.753 -0.7619  0.3386  0.1293
  181SOPE  H14S20689   7.260   1.672   7.692  0.3472 -0.1254 -0.8260
  181SOPE  C21520690   7.061   1.714   7.771  0.0455  0.3861 -0.4300
  181SOPE  H15R20691   7.023   1.624   7.717 -0.0020  0.6782 -0.8877
  181SOPE  H15S20692   6.983   1.791   7.756  0.3736  0.4964 -1.6536
  181SOPE  C21620693   7.064   1.673   7.920 -0.0680 -0.2666 -0.7902
  181SOPE  H16R20694   6.964   1.653   7.964 -0.9839  1.8032 -1.8282
  181SOPE  H16S20695   7.101   1.760   7.977 -1.5062 -0.5399  0.6319
  181SOPE  C21720696   7.157   1.549   7.930  0.2825  0.2881  0.5836
  181SOPE  H17R20697   7.260   1.583   7.905  0.1700 -0.0373 -0.3540
  181SOPE  H17S20698   7.132   1.460   7.868 -2.6106  1.0888  0.4570
  181SOPE  C21820699   7.166   1.504   8.072 -0.2591 -0.2368 -0.3207
  181SOPE  H18R20700   7.250   1.434   8.091  1.1193  1.7962  1.5678
  181SOPE  H18S20701   7.074   1.448   8.099  0.5211 -0.7431  1.4463
  181SOPE  H18T20702   7.187   1.597   8.129  0.5039  1.3883 -3.0571
  181SOPE   C3320703   6.910   2.112   6.839 -0.5055  0.5276 -0.2183
  181SOPE   H3X20704   6.961   2.180   6.910  0.4751 -0.4868  0.0848
  181SOPE   H3Y20705   6.973   2.022   6.820 -1.1613  0.3005 -1.4355
  181SOPE   C3420706   6.776   2.064   6.908 -0.0877 -0.5119 -0.0212
  181SOPE   H4X20707   6.716   2.000   6.839  2.7281 -2.2882 -0.9982
  181SOPE   H4Y20708   6.705   2.148   6.926  0.6355 -0.0751  0.8660
  181SOPE   C3520709   6.803   1.984   7.030  0.4090 -0.2594 -0.5135
  181SOPE   H5X20710   6.843   2.052   7.108  3.5927 -0.3554 -1.9029
  181SOPE   H5Y20711   6.887   1.913   7.015 -0.8325 -2.0323  0.5797
  181SOPE   C3620712   6.670   1.926   7.074 -0.2076 -0.0318 -0.2205
  181SOPE   H6X20713   6.638   1.844   7.006  0.5562  0.0361 -0.6741
  181SOPE   H6Y20714   6.597   2.010   7.075 -2.1993 -1.6523  1.8166
  181SOPE   C3720715   6.665   1.878   7.214 -0.3684 -0.2355 -0.1480
  181SOPE   H7X20716   6.744   1.915   7.283 -1.2781 -0.0201  0.7935
  181SOPE   H7Y20717   6.699   1.772   7.202  1.4310  0.3587 -0.6670
  181SOPE   C3820718   6.521   1.874   7.277 -0.9951 -0.5112  0.3312
  181SOPE   H8X20719   6.538   1.801   7.359 -0.0153 -0.1601  0.4549
  181SOPE   H8Y20720   6.444   1.818   7.220  0.1335 -1.4117 -0.3709
  181SOPE   C3920721   6.472   2.009   7.337 -0.1065 -0.5320  0.0207
  181SOPE   H9X20722   6.484   2.083   7.255  0.2832 -0.9446 -0.2982
  181SOPE   H9Y20723   6.550   2.047   7.407 -0.2505  0.3283 -0.2677
  181SOPE  C31020724   6.328   2.013   7.370  0.8790  0.6829  0.3872
  181SOPE  H10X20725   6.273   1.968   7.285  0.0333  3.6798 -0.7710
  181SOPE  H10Y20726   6.295   2.118   7.384  0.7363  0.6794  0.0871
  181SOPE  C31120727   6.287   1.946   7.508 -0.1775  0.3605  0.8515
  181SOPE  H11X20728   6.359   1.862   7.521 -0.2781 -0.0037 -0.7992
  181SOPE  H11Y20729   6.188   1.897   7.515 -0.7716  0.5317 -3.5032
  181SOPE  C31220730   6.310   2.051   7.614 -0.0314 -0.7117 -0.2518
  181SOPE  H12X20731   6.257   2.143   7.583 -0.2285 -0.8209 -0.2437
  181SOPE  H12Y20732   6.421   2.059   7.623  0.2401 -3.5118 -0.1468
  181SOPE  C31320733   6.256   2.010   7.747 -0.0050  0.7394  0.0605
  181SOPE  H13X20734   6.287   1.904   7.753 -0.6636  0.5244 -0.2158
  181SOPE  H13Y20735   6.144   2.007   7.747 -0.0593 -2.7133  2.2908
  181SOPE  C31420736   6.314   2.100   7.854  0.0580 -0.0587 -0.4621
  181SOPE  H14X20737   6.305   2.207   7.825  0.7303  0.2373  0.3521
  181SOPE  H14Y20738   6.423   2.080   7.870  0.2195  2.0046  1.6459
  181SOPE  C31520739   6.254   2.092   7.995  1.0209 -0.0872  0.0744
  181SOPE  H15X20740   6.147   2.123   7.989  1.3229  0.6933 -2.7915
  181SOPE  H15Y20741   6.313   2.153   8.067 -0.9946  0.7992  1.0842
  181SOPE  C31620742   6.244   1.944   8.040  0.6900 -0.1476  0.2755
  181SOPE  H16X20743   6.331   1.878   8.018 -0.6018 -1.9588  0.4157
  181SOPE  H16Y20744   6.158   1.908   7.980  1.0689 -0.9030  0.1621
  181SOPE  C31720745   6.230   1.951   8.186  0.4006  0.0828  0.1815
  181SOPE  H17X20746   6.180   1.854   8.208  1.4187 -0.4875  0.0983
  181SOPE  H17Y20747   6.163   2.032   8.219 -0.7289 -1.2273  1.2330
  181SOPE  C31820748   6.360   1.971   8.269  0.1498  0.3989  0.1114
  181SOPE  H18X20749   6.431   1.886   8.265 -0.5098 -0.1055 -2.1707
  181SOPE  H18Y20750   6.328   1.995   8.372  1.4713  0.3234  0.5634
  181SOPE  H18Z20751   6.415   2.064   8.242 -1.5560  1.6898  0.8863
  182SOPE     N20752   1.467   3.734   5.912 -0.2227 -0.1485  0.2490
  182SOPE   HN120753   1.388   3.779   5.861 -0.7729 -2.6742 -1.3253
  182SOPE   HN220754   1.554   3.787   5.892 -0.1094 -0.3859  0.1186
  182SOPE   HN320755   1.473   3.646   5.857 -0.9441 -0.1379  0.1364
  182SOPE   C1220756   1.457   3.718   6.061  0.3325 -0.2390  0.0235
  182SOPE  H12A20757   1.352   3.683   6.076  0.7401 -1.8131 -0.5256
  182SOPE  H12B20758   1.466   3.816   6.112  0.2225  1.5546 -3.1702
  182SOPE   C1120759   1.558   3.609   6.104 -1.0414  0.0108  0.2679
  182SOPE  H11A20760   1.574   3.624   6.213  0.1664 -0.4535  0.1768
  182SOPE  H11B20761   1.659   3.638   6.068 -0.9503  0.4258  0.8518
  182SOPE     P20762   1.481   3.361   6.166 -0.2910 -0.4122  0.1511
  182SOPE   O1320763   1.465   3.238   6.087 -0.0891  0.5697  0.0374
  182SOPE   O1420764   1.371   3.415   6.245 -0.0244  0.4378 -0.6536
  182SOPE   O1220765   1.518   3.472   6.060 -0.3442 -0.2290 -0.1371
  182SOPE   O1120766   1.619   3.351   6.254 -0.2089 -0.0809 -0.2357
  182SOPE    C120767   1.609   3.314   6.394  0.2516 -0.0094 -0.1134
  182SOPE    HA20768   1.611   3.203   6.395  0.5331 -0.0432 -1.4903
  182SOPE    HB20769   1.512   3.334   6.443 -0.3833 -2.2006 -0.3692
  182SOPE    C220770   1.721   3.391   6.467  0.3698 -0.1563  0.4935
  182SOPE    HS20771   1.818   3.346   6.436  0.8064  0.5636  0.7786
  182SOPE   O2120772   1.698   3.377   6.605 -0.5378  0.4772  0.1683
  182SOPE   C2120773   1.735   3.257   6.655 -1.1499 -0.3469  0.1734
  182SOPE   O2220774   1.790   3.173   6.595  0.3336  0.1509 -0.1020
  182SOPE   C2220775   1.736   3.272   6.807  0.1524  0.1416 -0.7978
  182SOPE   H2R20776   1.630   3.264   6.840  0.4146  0.9046  0.2785
  182SOPE   H2S20777   1.771   3.373   6.836  1.7992  0.0406 -2.2478
  182SOPE    C320778   1.731   3.538   6.430  0.1548 -0.0268  0.6891
  182SOPE    HX20779   1.634   3.590   6.444  1.5870  3.2591 -0.5084
  182SOPE    HY20780   1.752   3.541   6.321  1.6116  0.3482  0.9653
  182SOPE   O3120781   1.837   3.601   6.509  0.1395 -0.1056 -0.1672
  182SOPE   C3120782   1.795   3.670   6.616 -0.0378  0.0012  0.6108
  182SOPE   O3220783   1.679   3.694   6.639 -0.1654  1.0578  0.2284
  182SOPE   C3220784   1.907   3.705   6.714 -0.5253 -0.3855 -0.8595
  182SOPE   H2X20785   1.909   3.817   6.715 -2.7725 -0.2868  0.9041
  182SOPE   H2Y20786   1.996   3.651   6.677 -0.1686 -1.4221  1.3671
  182SOPE   C2320787   1.816   3.163   6.884  0.1865  0.2811 -0.0925
  182SOPE   H3R20788   1.924   3.166   6.857 -0.0556  1.0367 -1.0651
  182SOPE   H3S20789   1.783   3.062   6.853  3.2747 -0.2157 -2.3438
  182SOPE   C2420790   1.808   3.197   7.037  0.6131 -0.7356 -0.2399
  182SOPE   H4R20791   1.725   3.269   7.053  1.7301  0.3908  0.7111
  182SOPE   H4S20792   1.769   3.108   7.090 -0.6262 -0.3501 -0.4588
  182SOPE   C2520793   1.933   3.252   7.114 -0.0816 -0.0975 -0.3573
  182SOPE   H5R20794   1.952   3.354   7.074 -2.0382  0.6382  0.4241
  182SOPE   H5S20795   1.909   3.266   7.221  1.8799 -0.1242  0.1086
  182SOPE   C2620796   2.064   3.169   7.115 -0.3541  0.2589 -0.0653
  182SOPE   H6R20797   2.026   3.069   7.146 -1.7019  1.3324  1.9850
  182SOPE   H6S20798   2.103   3.153   7.012 -0.7855  0.1613 -0.2151
  182SOPE   C2720799   2.157   3.241   7.208  0.1089  0.0165  0.2602
  182SOPE   H7R20800   2.179   3.330   7.146  3.2089 -1.2298 -0.6404
  182SOPE   H7S20801   2.112   3.260   7.308  1.0804 -2.2071  1.1948
  182SOPE   C2820802   2.289   3.173   7.223  0.2811  0.1280  0.5288
  182SOPE   H8R20803   2.333   3.146   7.124  0.1890  2.8628 -0.3412
  182SOPE   H8S20804   2.350   3.245   7.281  0.1897 -0.4095  1.3031
  182SOPE   C2920805   2.257   3.047   7.303 -0.1064  0.3963  0.2678
  182SOPE   H9120806   2.184   2.975   7.263  2.2144 -1.9140 -0.1015
  182SOPE  C21020807   2.301   3.034   7.427 -0.1074 -0.1373  0.4325
  182SOPE  H10120808   2.264   2.943   7.478  0.3260  0.0929  1.1731
  182SOPE  C21120809   2.381   3.121   7.517 -0.3567  0.2373 -0.3267
  182SOPE  H11R20810   2.375   3.228   7.488 -1.8906  0.6745  1.4647
  182SOPE  H11S20811   2.489   3.098   7.504 -0.4664  0.8184 -2.7185
  182SOPE  C21220812   2.337   3.110   7.665 -0.6506 -0.0495  0.5935
  182SOPE  H12R20813   2.428   3.099   7.727 -1.2325  1.6161  1.8408
  182SOPE  H12S20814   2.276   3.019   7.681 -0.2578 -0.8731 -2.1566
  182SOPE  C21320815   2.272   3.243   7.704  0.3804  0.0199 -0.7299
  182SOPE  H13R20816   2.187   3.261   7.635 -0.4452 -2.4315 -0.4369
  182SOPE  H13S20817   2.349   3.321   7.688  0.8627 -0.5916 -1.5088
  182SOPE  C21420818   2.210   3.246   7.850  0.0081  0.0793 -0.1177
  182SOPE  H14R20819   2.145   3.156   7.858 -0.6564  0.2341 -2.7241
  182SOPE  H14S20820   2.157   3.341   7.869 -1.1960 -0.0623 -2.4296
  182SOPE  C21520821   2.326   3.246   7.946  1.0526  0.1880 -0.3411
  182SOPE  H15R20822   2.387   3.340   7.951 -1.1748  1.9927 -3.5295
  182SOPE  H15S20823   2.393   3.159   7.931 -0.0907 -0.7586 -0.0533
  182SOPE  C21620824   2.266   3.224   8.086  0.3973  0.0369 -0.3401
  182SOPE  H16R20825   2.209   3.128   8.080 -2.6043  1.6485  0.2181
  182SOPE  H16S20826   2.195   3.304   8.117  1.3839  1.4637 -1.6648
  182SOPE  C21720827   2.375   3.226   8.195  0.1358 -0.1802 -0.4864
  182SOPE  H17R20828   2.458   3.160   8.161  1.0907  1.9505 -2.6129
  182SOPE  H17S20829   2.343   3.193   8.296  0.6325  2.7147  0.7249
  182SOPE  C21820830   2.436   3.363   8.223  0.5582 -0.1743  0.2537
  182SOPE  H18R20831   2.513   3.388   8.146 -1.3566 -1.8688 -2.3737
  182SOPE  H18S20832   2.467   3.377   8.329  0.5382 -0.1107  0.2519
  182SOPE  H18T20833   2.366   3.449   8.219 -0.0019 -0.3114  4.0397
  182SOPE   C3320834   1.880   3.654   6.860 -0.3641 -0.0970  0.6761
  182SOPE   H3X20835   1.862   3.545   6.864 -1.1767  0.0270  0.4353
  182SOPE   H3Y20836   1.796   3.708   6.908  1.1715  2.2846  0.8954
  182SOPE   C3420837   2.008   3.673   6.942  0.3827 -0.5645  0.2599
  182SOPE   H4X20838   2.036   3.777   6.915 -0.6107 -0.6994 -1.4890
  182SOPE   H4Y20839   2.076   3.596   6.899 -1.9308 -2.2953 -0.5294
  182SOPE   C3520840   1.971   3.663   7.088 -0.7628  0.1193  0.3317
  182SOPE   H5X20841   1.900   3.584   7.122  1.1299 -0.9291  2.0831
  182SOPE   H5Y20842   1.943   3.765   7.120 -0.4377  0.8140 -1.4859
  182SOPE   C3620843   2.102   3.630   7.164  0.0598  0.4587 -0.4116
  182SOPE   H6X20844   2.179   3.708   7.143  0.9932 -0.4715 -0.5653
  182SOPE   H6Y20845   2.147   3.530   7.144 -1.0988 -0.4385  1.1994
  182SOPE   C3720846   2.085   3.613   7.314 -0.4792  0.5059  0.8293
  182SOPE   H7X20847   2.026   3.519   7.327  1.8900 -0.9311  2.0551
  182SOPE   H7Y20848   2.021   3.696   7.351 -0.6654  0.4161  0.7131
  182SOPE   C3820849   2.219   3.614   7.384  0.1447 -0.6678  0.1760
  182SOPE   H8X20850   2.265   3.714   7.374 -1.2986  0.0041  0.1418
  182SOPE   H8Y20851   2.290   3.533   7.354  1.3760 -1.0295  3.5981
  182SOPE   C3920852   2.200   3.596   7.538  0.2509 -0.2202  0.2961
  182SOPE   H9X20853   2.303   3.599   7.578  0.3736  1.1054 -0.0736
  182SOPE   H9Y20854   2.156   3.494   7.549  1.3717 -0.9137 -1.3176
  182SOPE  C31020855   2.129   3.709   7.610  0.9388  0.2977 -0.1764
  182SOPE  H10X20856   2.023   3.721   7.580  0.3171  0.3484  1.8803
  182SOPE  H10Y20857   2.181   3.800   7.574 -0.3266  1.2462  0.3647
  182SOPE  C31120858   2.140   3.719   7.763  0.7014  0.1959  0.3125
  182SOPE  H11X20859   2.061   3.658   7.810 -0.4283  0.9691 -0.5274
  182SOPE  H11Y20860   2.122   3.828   7.775 -0.6408 -0.0214  0.3552
  182SOPE  C31220861   2.279   3.683   7.821  0.6821  0.1103 -0.6455
  182SOPE  H12X20862   2.351   3.725   7.748  0.8694 -0.2606 -0.6751
  182SOPE  H12Y20863   2.291   3.573   7.814 -0.2142  0.0233 -0.9483
  182SOPE  C31320864   2.312   3.729   7.965  0.2027  0.1743 -0.0321
  182SOPE  H13X20865   2.350   3.833   7.958  1.6864 -0.4007 -1.0914
  182SOPE  H13Y20866   2.393   3.662   8.002 -0.3244 -0.3221  0.2457
  182SOPE  C31420867   2.198   3.712   8.062 -0.3271 -0.1888  0.1192
  182SOPE  H14X20868   2.152   3.611   8.049 -1.1278  0.0972  0.6744
  182SOPE  H14Y20869   2.123   3.792   8.047  0.6802  0.6288 -0.7451
  182SOPE  C31520870   2.248   3.722   8.209  0.3404  0.5445  0.1876
  182SOPE  H15X20871   2.298   3.820   8.221  1.7713 -0.1277 -0.1394
  182SOPE  H15Y20872   2.328   3.649   8.232  1.3654  1.5594 -0.0524
  182SOPE  C31620873   2.135   3.703   8.309 -0.2521  0.4360 -0.2715
  182SOPE  H16X20874   2.175   3.655   8.401 -0.1491 -1.3763 -1.2152
  182SOPE  H16Y20875   2.058   3.630   8.277 -0.7088  0.2602  1.1651
  182SOPE  C31720876   2.043   3.818   8.346  0.5356 -0.4293  0.2609
  182SOPE  H17X20877   1.987   3.846   8.254  0.6281 -0.2015  0.2716
  182SOPE  H17Y20878   2.103   3.909   8.370 -0.1743 -0.1195  0.8822
  182SOPE  C31820879   1.936   3.799   8.455  0.4680  0.5993  0.3397
  182SOPE  H18X20880   1.985   3.761   8.548 -0.3556 -2.1708 -0.2497
  182SOPE  H18Y20881   1.853   3.730   8.427  1.8727 -0.5801 -1.0961
  182SOPE  H18Z20882   1.891   3.898   8.477  0.5497  0.6152  0.4355
  183SOPE     N20883   3.547   6.660   6.482 -0.1373 -0.5836 -0.9043
  183SOPE   HN120884   3.572   6.563   6.454 -0.0981 -0.1392 -2.4992
  183SOPE   HN220885   3.600   6.720   6.549 -2.6265  0.3869  0.3370
  183SOPE   HN320886   3.450   6.647   6.517  0.2416 -3.5154 -0.7142
  183SOPE   C1220887   3.547   6.745   6.362  1.3943 -0.3274  0.1799
  183SOPE  H12A20888   3.648   6.752   6.316  1.5603  1.1636  0.7251
  183SOPE  H12B20889   3.515   6.848   6.388 -0.7730 -0.1719 -2.5913
  183SOPE   C1120890   3.447   6.696   6.245  0.2683 -0.0068 -0.1486
  183SOPE  H11A20891   3.500   6.613   6.195 -1.0381  0.4113 -2.4244
  183SOPE  H11B20892   3.430   6.773   6.166 -2.6047 -0.6426 -0.2632
  183SOPE     P20893   3.203   6.764   6.300  0.0858 -0.2490 -0.3017
  183SOPE   O1320894   3.072   6.692   6.311  0.1429 -0.3785 -0.3368
  183SOPE   O1420895   3.211   6.852   6.184 -0.3599 -0.2381  0.0960
  183SOPE   O1220896   3.319   6.658   6.295 -0.4182 -0.1839 -0.0689
  183SOPE   O1120897   3.228   6.848   6.430  0.1286  0.1728  0.7556
  183SOPE    C120898   3.235   6.990   6.433 -0.3932  0.6400  0.7232
  183SOPE    HA20899   3.129   7.021   6.419 -0.3571  0.6444  0.4511
  183SOPE    HB20900   3.289   7.032   6.345 -1.8020 -1.0713 -1.0539
  183SOPE    C220901   3.296   7.047   6.561  0.0661 -0.6632 -0.0103
  183SOPE    HS20902   3.405   7.025   6.552  0.2736  0.6063 -0.7521
  183SOPE   O2120903   3.236   6.986   6.678 -0.2686 -0.7497 -0.0875
  183SOPE   C2120904   3.314   7.008   6.783  0.3178  0.1572 -0.2759
  183SOPE   O2220905   3.424   7.055   6.782  0.3114  0.1136 -0.2823
  183SOPE   C2220906   3.233   6.989   6.913  0.2678  0.4645 -0.7496
  183SOPE   H2R20907   3.202   6.883   6.922  2.4768 -0.1728  0.1624
  183SOPE   H2S20908   3.146   7.056   6.900  0.4537  1.1956  1.4265
  183SOPE    C320909   3.284   7.201   6.561  0.2940 -0.1643 -0.2543
  183SOPE    HX20910   3.345   7.241   6.477 -1.4211  0.6452 -1.1902
  183SOPE    HY20911   3.342   7.253   6.641  0.6518 -0.9544  0.0056
  183SOPE   O3120912   3.146   7.249   6.542 -0.0008  0.2751  0.2879
  183SOPE   C3120913   3.085   7.276   6.660 -0.2124  0.0221  0.0348
  183SOPE   O3220914   3.143   7.268   6.768  0.5188  0.1696  0.0776
  183SOPE   C3220915   2.945   7.324   6.639  0.3473  0.8871 -0.0939
  183SOPE   H2X20916   2.914   7.289   6.539 -3.1205  0.4221  1.0097
  183SOPE   H2Y20917   2.948   7.434   6.631 -0.6677  0.8472 -1.3472
  183SOPE   C2320918   3.320   7.024   7.035 -0.0738 -0.0797 -0.4759
  183SOPE   H3R20919   3.370   7.123   7.029 -0.2837  0.1229  0.9070
  183SOPE   H3S20920   3.393   6.940   7.038 -0.1191 -0.1913 -1.8466
  183SOPE   C2420921   3.242   7.017   7.161 -0.3174  0.6838  0.4701
  183SOPE   H4R20922   3.158   7.089   7.148 -2.8443 -1.9136  1.2594
  183SOPE   H4S20923   3.203   6.913   7.166 -0.8281  0.6032 -2.8823
  183SOPE   C2520924   3.337   7.031   7.278 -0.4494  0.1584 -0.3630
  183SOPE   H5R20925   3.419   6.957   7.268 -0.1223  0.3886  0.5380
  183SOPE   H5S20926   3.385   7.130   7.287 -0.2778 -0.0268  0.8187
  183SOPE   C2620927   3.283   7.002   7.411  0.1000 -0.0483 -0.1826
  183SOPE   H6R20928   3.183   7.050   7.408  0.9229  1.7251 -0.4639
  183SOPE   H6S20929   3.268   6.892   7.418  0.3043 -0.1355 -1.0772
  183SOPE   C2720930   3.375   7.045   7.525  0.1649  0.2601  0.3562
  183SOPE   H7R20931   3.477   7.005   7.508  0.0330  0.0557  0.0326
  183SOPE   H7S20932   3.363   7.154   7.540 -0.8740 -0.1324  2.9669
  183SOPE   C2820933   3.330   6.987   7.662 -0.8387 -0.0372 -0.3392
  183SOPE   H8R20934   3.399   7.046   7.726  0.6773 -0.2482 -1.7020
  183SOPE   H8S20935   3.225   7.019   7.678 -0.4387  0.4111  1.6003
  183SOPE   C2920936   3.351   6.841   7.685  0.1079 -0.0801  0.2005
  183SOPE   H9120937   3.313   6.780   7.603  0.7957 -0.9257  0.4962
  183SOPE  C21020938   3.411   6.783   7.787 -0.7803 -0.6693  0.1858
  183SOPE  H10120939   3.418   6.674   7.793  2.3883 -0.4935  1.6900
  183SOPE  C21120940   3.479   6.852   7.903  0.2753 -0.2014 -0.5155
  183SOPE  H11R20941   3.560   6.919   7.867  0.0494  1.1887  1.3964
  183SOPE  H11S20942   3.531   6.772   7.959 -0.2027 -0.3266 -0.2502
  183SOPE  C21220943   3.380   6.926   8.000 -0.1164 -0.3986  0.5823
  183SOPE  H12R20944   3.293   6.862   8.027 -1.4406  0.4977 -1.3345
  183SOPE  H12S20945   3.332   7.014   7.952  0.2316 -0.5136  0.0160
  183SOPE  C21320946   3.447   6.982   8.125  0.4175  0.1942 -0.1515
  183SOPE  H13R20947   3.521   7.059   8.096  1.0271  0.7133  2.5507
  183SOPE  H13S20948   3.498   6.906   8.187 -1.5852 -1.4903 -0.4625
  183SOPE  C21420949   3.347   7.050   8.216  0.2983  0.4543  0.4671
  183SOPE  H14R20950   3.290   6.970   8.267  0.7506  0.9068  1.7038
  183SOPE  H14S20951   3.266   7.103   8.162 -0.6413 -0.8508  0.5478
  183SOPE  C21520952   3.424   7.153   8.295 -0.1815 -0.3135 -0.2317
  183SOPE  H15R20953   3.344   7.203   8.354  1.3174  0.4058  1.2813
  183SOPE  H15S20954   3.484   7.228   8.239  0.5084 -0.4856  0.2537
  183SOPE  C21620955   3.510   7.086   8.401 -0.1110  0.8703 -0.0332
  183SOPE  H16R20956   3.575   7.008   8.356  1.5698  2.0836  0.1911
  183SOPE  H16S20957   3.446   7.031   8.474 -0.7399 -0.9387 -1.8668
  183SOPE  C21720958   3.606   7.181   8.482  0.4678 -0.4813 -0.2836
  183SOPE  H17R20959   3.549   7.268   8.522  0.7281  0.5291 -1.9641
  183SOPE  H17S20960   3.687   7.222   8.418  2.3512  0.1778  2.3948
  183SOPE  C21820961   3.662   7.111   8.603 -0.5181 -0.2581 -0.8941
  183SOPE  H18R20962   3.735   7.180   8.652  0.1444 -0.7482 -1.1740
  183SOPE  H18S20963   3.692   7.009   8.572  0.4722 -0.1150 -0.4656
  183SOPE  H18T20964   3.585   7.090   8.680 -0.9723  1.5553 -0.7998
  183SOPE   C3320965   2.850   7.263   6.748  0.1448 -0.0756  0.1278
  183SOPE   H3X20966   2.908   7.200   6.818 -1.0634 -0.2769  0.9742
  183SOPE   H3Y20967   2.772   7.207   6.693 -0.4603  2.1842 -1.4637
  183SOPE   C3420968   2.775   7.365   6.825  0.1289 -0.3984  0.1091
  183SOPE   H4X20969   2.702   7.429   6.771  0.5706 -0.0857 -0.1279
  183SOPE   H4Y20970   2.851   7.435   6.866 -0.0622 -0.4330  0.5298
  183SOPE   C3520971   2.704   7.303   6.950 -0.2024 -1.0492 -0.3696
  183SOPE   H5X20972   2.684   7.195   6.933  0.1679 -1.1897  0.0455
  183SOPE   H5Y20973   2.605   7.352   6.964 -1.0121 -3.1564  2.2283
  183SOPE   C3620974   2.788   7.326   7.076 -0.0745  0.4479 -0.0657
  183SOPE   H6X20975   2.811   7.434   7.084  0.7200  0.3306 -0.6189
  183SOPE   H6Y20976   2.882   7.268   7.066 -0.1395 -0.3876  3.1395
  183SOPE   C3720977   2.718   7.263   7.193 -0.6263  0.1257 -0.4567
  183SOPE   H7X20978   2.713   7.155   7.165 -3.2222  0.1959 -0.4741
  183SOPE   H7Y20979   2.614   7.294   7.217 -0.4630  0.9297 -0.7639
  183SOPE   C3820980   2.802   7.277   7.319 -0.1101  0.4361 -0.1853
  183SOPE   H8X20981   2.816   7.385   7.341  0.1193  0.0352  1.9367
  183SOPE   H8Y20982   2.905   7.238   7.309  0.4027  2.2652 -2.9209
  183SOPE   C3920983   2.749   7.218   7.446 -0.3577 -0.6654 -0.2071
  183SOPE   H9X20984   2.697   7.124   7.417 -0.7753 -0.0223 -1.6171
  183SOPE   H9Y20985   2.669   7.288   7.477  0.3319 -0.2061  0.5886
  183SOPE  C31020986   2.860   7.210   7.555  0.2253  0.4773 -0.3552
  183SOPE  H10X20987   2.912   7.307   7.564 -2.8593  2.1170  1.7455
  183SOPE  H10Y20988   2.929   7.128   7.526 -0.5060 -0.0021 -0.7908
  183SOPE  C31120989   2.789   7.178   7.694  1.0421  0.0331  0.4635
  183SOPE  H11X20990   2.752   7.073   7.689 -1.9421  1.0559 -0.9182
  183SOPE  H11Y20991   2.713   7.259   7.698  0.3579 -0.5660 -0.2840
  183SOPE  C31220992   2.889   7.194   7.808  0.6851 -0.3611 -0.3727
  183SOPE  H12X20993   2.940   7.293   7.802  1.5865 -0.6168  2.0883
  183SOPE  H12Y20994   2.969   7.117   7.800 -0.6237 -1.8452  0.3928
  183SOPE  C31320995   2.815   7.174   7.939  0.3759 -1.0544 -0.2428
  183SOPE  H13X20996   2.748   7.085   7.939  0.3016 -1.0524  2.0113
  183SOPE  H13Y20997   2.743   7.258   7.951  0.9106 -0.4204 -1.2584
  183SOPE  C31420998   2.918   7.170   8.054 -0.0740 -0.3380 -0.5458
  183SOPE  H14X20999   3.018   7.205   8.021  0.3824  0.1564  1.2353
  183SOPE  H14Y21000   2.933   7.060   8.057 -0.5559 -0.3975  1.2387
  183SOPE  C31521001   2.873   7.227   8.190 -0.3836  0.2413 -0.2025
  183SOPE  H15X21002   2.774   7.180   8.208 -0.4474  0.5003  0.1303
  183SOPE  H15Y21003   2.852   7.336   8.189 -0.1101  0.2981  0.0032
  183SOPE  C31621004   2.972   7.200   8.307  0.7837 -0.4108  0.1200
  183SOPE  H16X21005   2.949   7.270   8.390 -0.8422 -1.1339  0.3145
  183SOPE  H16Y21006   3.075   7.216   8.268  0.3073 -0.0386 -1.0293
  183SOPE  C31721007   2.946   7.062   8.353 -0.1786  0.5395  0.9025
  183SOPE  H17X21008   2.993   6.987   8.285  0.7310  1.5180  0.4330
  183SOPE  H17Y21009   2.840   7.029   8.366 -0.6580  2.4997  2.3044
  183SOPE  C31821010   3.021   7.036   8.489 -0.1770 -0.1294  0.1168
  183SOPE  H18X21011   3.056   6.931   8.490  0.5813  0.1093  1.5300
  183SOPE  H18Y21012   2.965   7.061   8.582  2.1735 -0.3584  1.6947
  183SOPE  H18Z21013   3.114   7.097   8.487  0.2147 -0.6563  1.2723
  184SOPE     N21014   4.335   0.509   6.558 -0.1197 -0.4140  0.6034
  184SOPE   HN121015   4.263   0.439   6.530 -1.0606  1.0235 -0.7222
  184SOPE   HN221016   4.407   0.512   6.484 -0.1229  2.2060  0.6160
  184SOPE   HN321017   4.369   0.483   6.653  0.1684  1.3256  1.0047
  184SOPE   C1221018   4.262   0.642   6.553  0.3946 -0.3379  0.1854
  184SOPE  H12A21019   4.339   0.720   6.575 -0.2355  1.0575 -2.1913
  184SOPE  H12B21020   4.191   0.629   6.637  1.4117  0.5396  1.2293
  184SOPE   C1121021   4.197   0.663   6.413  0.6387  0.1418 -0.1608
  184SOPE  H11A21022   4.140   0.758   6.399 -0.6222 -0.7311 -1.3165
  184SOPE  H11B21023   4.116   0.587   6.403  0.6583  0.2893 -1.6594
  184SOPE     P21024   4.307   0.749   6.192 -0.0979  0.2219 -0.0583
  184SOPE   O1321025   4.176   0.757   6.134  0.4108 -0.1128  0.7779
  184SOPE   O1421026   4.422   0.720   6.097  0.4323  0.6521 -0.5309
  184SOPE   O1221027   4.300   0.647   6.313 -0.1979  0.0711 -0.0177
  184SOPE   O1121028   4.333   0.885   6.264 -0.2728 -0.1537 -0.8259
  184SOPE    C121029   4.457   0.909   6.337 -0.2098 -0.4234 -0.5545
  184SOPE    HA21030   4.528   0.969   6.276  0.7233  0.5409  1.3870
  184SOPE    HB21031   4.516   0.820   6.368  0.1197  0.4414  1.3935
  184SOPE    C221032   4.430   0.996   6.461  0.1082 -0.7218 -1.3062
  184SOPE    HS21033   4.418   0.931   6.550  1.4855  0.9060  0.1321
  184SOPE   O2121034   4.326   1.091   6.427 -0.8592 -0.1188  0.0974
  184SOPE   C2121035   4.204   1.058   6.477  0.4910 -0.2564  0.4599
  184SOPE   O2221036   4.171   0.966   6.548 -0.7471 -0.1065 -0.1039
  184SOPE   C2221037   4.110   1.174   6.440  0.4561  0.6600 -0.8928
  184SOPE   H2R21038   4.065   1.149   6.342  1.2589 -1.2274 -0.8177
  184SOPE   H2S21039   4.155   1.273   6.417  1.3972  0.5911  0.5130
  184SOPE    C321040   4.548   1.080   6.501  0.5695 -0.1791  0.3289
  184SOPE    HX21041   4.572   1.142   6.411 -2.0863  0.4246 -0.0543
  184SOPE    HY21042   4.639   1.017   6.510  1.0194  0.5938  1.3924
  184SOPE   O3121043   4.527   1.155   6.623  0.3955  0.3877  0.1256
  184SOPE   C3121044   4.510   1.285   6.608  0.2860  0.0609  0.2585
  184SOPE   O3221045   4.491   1.343   6.504  0.0430  0.0895 -0.0450
  184SOPE   C3221046   4.533   1.363   6.744  0.0722 -0.3561  0.3205
  184SOPE   H2X21047   4.614   1.438   6.729 -2.1291  1.8665 -1.4606
  184SOPE   H2Y21048   4.553   1.293   6.828 -1.0159  0.7155  1.5223
  184SOPE   C2321049   3.990   1.193   6.542 -0.5512 -0.0396 -0.2707
  184SOPE   H3R21050   4.017   1.239   6.639 -1.0379 -0.0955 -0.1062
  184SOPE   H3S21051   3.947   1.094   6.568  1.6249 -1.0064 -0.1023
  184SOPE   C2421052   3.889   1.277   6.471 -0.4661  0.2324 -0.0903
  184SOPE   H4R21053   3.932   1.377   6.454  0.2955 -0.2451 -1.0354
  184SOPE   H4S21054   3.862   1.242   6.369  1.0610 -0.2874 -0.3362
  184SOPE   C2521055   3.766   1.299   6.563 -0.5605  0.4320  0.4088
  184SOPE   H5R21056   3.684   1.345   6.503  0.1775 -0.3437 -1.2619
  184SOPE   H5S21057   3.737   1.194   6.584 -1.5689  0.5135 -0.4509
  184SOPE   C2621058   3.798   1.362   6.699 -0.4961 -0.2593  0.0931
  184SOPE   H6R21059   3.856   1.290   6.761  1.6746  2.3663  1.3435
  184SOPE   H6S21060   3.864   1.449   6.678 -1.0091 -0.0848 -0.8331
  184SOPE   C2721061   3.671   1.402   6.790 -0.6730  0.0866  0.7186
  184SOPE   H7R21062   3.597   1.459   6.729 -2.1929  0.2986  2.6379
  184SOPE   H7S21063   3.612   1.312   6.819  0.0067 -0.6937 -0.2640
  184SOPE   C2821064   3.722   1.482   6.913 -0.2417 -0.0172  0.0892
  184SOPE   H8R21065   3.778   1.571   6.878 -2.5461  0.5088 -2.5938
  184SOPE   H8S21066   3.632   1.530   6.956 -0.4537 -0.2437 -0.0947
  184SOPE   C2921067   3.798   1.393   7.011  0.1247 -0.1338 -0.2309
  184SOPE   H9121068   3.812   1.286   6.991  1.8529  0.1637 -0.7339
  184SOPE  C21021069   3.829   1.436   7.134  0.2457  0.2308 -0.1694
  184SOPE  H10121070   3.872   1.354   7.194 -0.0004 -1.0179 -1.6240
  184SOPE  C21121071   3.811   1.572   7.191 -0.0350 -0.1885 -0.2593
  184SOPE  H11R21072   3.742   1.633   7.130 -1.6809 -0.5246  1.1646
  184SOPE  H11S21073   3.915   1.611   7.195  0.5832 -1.6816 -1.1632
  184SOPE  C21221074   3.750   1.570   7.329  0.0034 -0.0387 -0.7315
  184SOPE  H12R21075   3.803   1.491   7.387 -0.8558 -1.8943 -2.3546
  184SOPE  H12S21076   3.642   1.543   7.331 -0.9631  3.2230 -1.9335
  184SOPE  C21321077   3.764   1.697   7.406 -0.3375 -0.4991  0.0707
  184SOPE  H13R21078   3.703   1.779   7.363 -0.5754 -0.5646  0.2843
  184SOPE  H13S21079   3.869   1.733   7.399 -0.7889  0.4868 -2.6888
  184SOPE  C21421080   3.741   1.687   7.557 -0.2574  0.0909  0.2219
  184SOPE  H14R21081   3.841   1.663   7.598 -0.0792  0.9602  0.3163
  184SOPE  H14S21082   3.673   1.602   7.578 -1.1863  0.3929 -1.3481
  184SOPE  C21521083   3.681   1.815   7.615 -0.3127  1.0305  0.7823
  184SOPE  H15R21084   3.578   1.826   7.574 -0.5568 -2.3456  0.1182
  184SOPE  H15S21085   3.727   1.911   7.586 -0.8223  1.7460  2.2542
  184SOPE  C21621086   3.674   1.807   7.765 -0.4425  0.1029 -0.2835
  184SOPE  H16R21087   3.775   1.820   7.810 -0.2214 -0.0235 -0.7409
  184SOPE  H16S21088   3.649   1.709   7.810 -0.6214  0.8115  1.2584
  184SOPE  C21721089   3.580   1.905   7.838  0.1099  0.1283  0.1352
  184SOPE  H17R21090   3.478   1.866   7.817  0.3578 -0.0399 -0.8130
  184SOPE  H17S21091   3.592   2.006   7.795 -1.2598 -0.1815 -1.0518
  184SOPE  C21821092   3.596   1.912   7.994 -0.2523 -0.3536 -0.3681
  184SOPE  H18R21093   3.616   1.809   8.031  0.6277  0.6328  2.1497
  184SOPE  H18S21094   3.510   1.969   8.035  0.7917  0.0659  1.3339
  184SOPE  H18T21095   3.694   1.958   8.019  0.7522 -1.8964 -1.3126
  184SOPE   C3321096   4.417   1.458   6.769  0.6174  0.0175  0.3304
  184SOPE   H3X21097   4.402   1.508   6.672 -3.1777  0.7355  1.1212
  184SOPE   H3Y21098   4.434   1.529   6.853 -0.5475 -0.3347  0.8845
  184SOPE   C3421099   4.279   1.396   6.804 -0.4435  0.1171  0.1561
  184SOPE   H4X21100   4.254   1.329   6.718  0.6539  0.0877 -0.1642
  184SOPE   H4Y21101   4.209   1.482   6.806 -1.2336 -0.4629 -0.9458
  184SOPE   C3521102   4.273   1.319   6.935 -0.7612  0.5724  0.2245
  184SOPE   H5X21103   4.367   1.260   6.944 -1.5244 -0.3781  3.4848
  184SOPE   H5Y21104   4.190   1.246   6.940  0.5282 -0.9123  1.0150
  184SOPE   C3621105   4.269   1.418   7.057 -0.0985  0.6844  0.3137
  184SOPE   H6X21106   4.185   1.487   7.034 -0.0894  0.9779  1.1213
  184SOPE   H6Y21107   4.366   1.471   7.048  0.3788 -0.1223  0.6161
  184SOPE   C3721108   4.245   1.359   7.194  0.0252  0.6750 -0.0448
  184SOPE   H7X21109   4.316   1.274   7.201  0.1300  0.5540 -1.9945
  184SOPE   H7Y21110   4.144   1.317   7.213  0.2933  0.9709  2.3919
  184SOPE   C3821111   4.288   1.463   7.293 -0.6376  0.4069 -0.6715
  184SOPE   H8X21112   4.218   1.550   7.300  0.8847  1.5828  1.2574
  184SOPE   H8Y21113   4.379   1.507   7.248 -1.3517  2.7735  0.0289
  184SOPE   C3921114   4.315   1.418   7.435 -0.0093  0.7768 -0.5384
  184SOPE   H9X21115   4.372   1.504   7.476  0.7502 -0.1755  0.4672
  184SOPE   H9Y21116   4.369   1.323   7.455 -0.9907  0.6035  1.6246
  184SOPE  C31021117   4.183   1.416   7.515 -0.3063  0.2008  0.5957
  184SOPE  H10X21118   4.108   1.362   7.453  0.1900 -1.4264  1.3404
  184SOPE  H10Y21119   4.144   1.518   7.532 -1.5051 -0.0792 -0.3329
  184SOPE  C31121120   4.209   1.349   7.655  0.3067 -0.7969 -0.1304
  184SOPE  H11X21121   4.289   1.407   7.705  0.3999  0.4193 -1.6003
  184SOPE  H11Y21122   4.233   1.242   7.642  0.8955 -0.7200  0.2905
  184SOPE  C31221123   4.090   1.370   7.750 -0.6615  0.6268  0.2789
  184SOPE  H12X21124   4.117   1.326   7.848  0.2870  3.1963  1.2422
  184SOPE  H12Y21125   3.999   1.319   7.710 -0.2854 -0.6673  1.0175
  184SOPE  C31321126   4.062   1.520   7.778 -0.6791 -0.4089 -0.4679
  184SOPE  H13X21127   4.035   1.593   7.699 -0.6613 -0.3270 -0.3982
  184SOPE  H13Y21128   4.149   1.563   7.832 -0.5904 -0.9459 -0.1763
  184SOPE  C31421129   3.954   1.523   7.888  0.0214  0.2515  0.1213
  184SOPE  H14X21130   3.859   1.474   7.861 -0.2705  0.4506  0.7590
  184SOPE  H14Y21131   3.924   1.628   7.906 -0.7329  0.4538 -2.0455
  184SOPE  C31521132   4.008   1.469   8.026  0.1281 -0.5968  1.0104
  184SOPE  H15X21133   4.109   1.499   8.059 -0.8359  0.6727  2.9544
  184SOPE  H15Y21134   4.001   1.358   8.015 -2.0663 -0.4231  0.1436
  184SOPE  C31621135   3.911   1.499   8.149 -0.7301  0.0803 -0.1322
  184SOPE  H16X21136   3.893   1.609   8.145  0.4849  0.3126  0.2489
  184SOPE  H16Y21137   3.973   1.464   8.234 -1.2750  0.6704  0.5196
  184SOPE  C31721138   3.785   1.417   8.134  0.7501 -0.4723 -0.4222
  184SOPE  H17X21139   3.809   1.310   8.150  2.3643 -0.6857 -3.4844
  184SOPE  H17Y21140   3.739   1.430   8.033 -2.8760 -0.1836  1.1070
  184SOPE  C31821141   3.671   1.450   8.236 -0.0408  1.2550  0.1370
  184SOPE  H18X21142   3.632   1.551   8.208  0.2277  1.1649 -0.5865
  184SOPE  H18Y21143   3.717   1.450   8.337 -0.2005 -1.9421  0.3027
  184SOPE  H18Z21144   3.592   1.373   8.222  1.8840 -0.6014 -1.1524
  185SAPI   C1221145   1.760   5.580  10.875 -0.9945  0.0102  0.7973
  185SAPI    H221146   1.764   5.513  10.787 -0.2840  0.5057  0.4386
  185SAPI    O221147   1.894   5.569  10.928 -0.4134  0.6913  0.0141
  185SAPI   HO221148   1.949   5.497  10.895 -0.3170  1.2365 -1.0571
  185SAPI   C1321149   1.727   5.731  10.834  0.1588  0.1387  0.0544
  185SAPI    H321150   1.621   5.723  10.804 -0.1585 -2.1078  1.5425
  185SAPI    O321151   1.807   5.779  10.726 -0.0516 -0.0284  0.6808
  185SAPI   HO321152   1.898   5.769  10.753  0.5512 -0.4161 -1.3648
  185SAPI   C1421153   1.724   5.826  10.954  0.1706  0.3735 -0.7366
  185SAPI    H421154   1.828   5.835  10.992  0.7833 -0.1663 -2.1941
  185SAPI    O421155   1.675   5.961  10.920 -0.8119 -0.6026 -0.6295
  185SAPI   HO421156   1.679   5.965  10.824 -0.5436 -0.4658 -0.6134
  185SAPI   C1521157   1.621   5.766  11.053  0.1743  0.1836  0.1061
  185SAPI    H521158   1.522   5.764  11.002  0.0381 -0.1370  0.3820
  185SAPI    O521159   1.607   5.850  11.170 -0.2613  0.1943  0.1992
  185SAPI   HO521160   1.556   5.920  11.128  0.8156  0.8313 -0.0929
  185SAPI   C1621161   1.659   5.626  11.091 -0.3222 -0.2875  1.0455
  185SAPI    H621162   1.758   5.629  11.140  1.2487  0.6690 -1.9539
  185SAPI    O621163   1.574   5.575  11.194  0.3254  0.2084 -0.2371
  185SAPI   HO621164   1.535   5.494  11.160 -0.7489 -0.1304  1.6741
  185SAPI   C1121165   1.662   5.532  10.973  0.1741 -0.1595  0.6637
  185SAPI    H121166   1.562   5.546  10.926 -0.7194 -0.9383  2.2474
  185SAPI     P21167   1.546   5.301  11.034  0.2217 -0.4453 -0.1018
  185SAPI   O1321168   1.429   5.373  11.083  0.2859  0.0647  0.0010
  185SAPI   O1421169   1.580   5.185  11.116  0.2815 -0.1534  0.1141
  185SAPI   O1221170   1.682   5.395  11.017 -0.4003  0.5966  0.2084
  185SAPI   O1121171   1.518   5.257  10.885  0.3489  0.3949 -0.1682
  185SAPI    C121172   1.617   5.205  10.801 -0.4179  0.5447  0.7499
  185SAPI    HA21173   1.721   5.223  10.835  0.6979 -0.4475 -1.9145
  185SAPI    HB21174   1.620   5.095  10.788  0.9361  0.9235 -3.5568
  185SAPI    C221175   1.585   5.248  10.651  0.3022  0.4229  0.3416
  185SAPI    HS21176   1.574   5.163  10.581 -0.4072 -0.7491  1.8020
  185SAPI   O2121177   1.690   5.340  10.610  0.6585 -0.7111  0.1636
  185SAPI   C2121178   1.801   5.285  10.580 -0.0460 -0.3216  0.7929
  185SAPI   O2221179   1.819   5.165  10.571  0.1450  0.4510 -0.3403
  185SAPI   C2221180   1.901   5.405  10.555  0.4905  0.5741 -0.2548
  185SAPI   H2R21181   1.933   5.449  10.652  2.2642  0.4522 -0.7558
  185SAPI   H2S21182   1.996   5.363  10.516 -0.7535 -1.0007 -1.7243
  185SAPI    C321183   1.444   5.308  10.631  0.1450  1.3541  0.1034
  185SAPI    HX21184   1.436   5.392  10.704 -2.0511  1.5341 -0.2870
  185SAPI    HY21185   1.360   5.240  10.655  0.9100  0.2799 -0.1938
  185SAPI   O3121186   1.432   5.377  10.502  0.7881  0.3155 -0.1850
  185SAPI   C3121187   1.442   5.309  10.392  0.3079  0.2651  0.0846
  185SAPI   O3221188   1.459   5.187  10.388 -0.3573 -0.2412  0.1891
  185SAPI   C3221189   1.436   5.403  10.275 -0.1244 -0.0663 -0.5632
  185SAPI   H2X21190   1.509   5.484  10.293 -1.6941  1.4461 -0.7464
  185SAPI   H2Y21191   1.330   5.435  10.268 -1.0226 -2.0653  2.0405
  185SAPI   C2321192   1.853   5.519  10.462  0.0417  0.5585 -0.0894
  185SAPI   H3R21193   1.934   5.594  10.454  0.1767  0.2376 -2.1542
  185SAPI   H3S21194   1.762   5.566  10.506 -0.2259  0.7830 -0.8741
  185SAPI   C2421195   1.811   5.477  10.320  0.7617  0.0062  0.9163
  185SAPI   H4R21196   1.800   5.565  10.254  2.0526 -0.4487  0.0711
  185SAPI   H4S21197   1.710   5.433  10.338  0.2054 -0.3125 -2.3916
  185SAPI   C2521198   1.896   5.374  10.259  0.7079  0.3964 -0.2223
  185SAPI   H5R21199   1.895   5.276  10.309  1.4865  1.1082  1.2651
  185SAPI   C2621200   1.956   5.376  10.139  0.1104 -0.6033 -0.0055
  185SAPI   H6R21201   2.023   5.293  10.113  1.2076  0.5944 -1.1947
  185SAPI   C2721202   1.958   5.489  10.039  0.4139 -1.0003  0.6470
  185SAPI   H7R21203   1.988   5.582  10.093 -0.7398 -0.5225  0.4813
  185SAPI   H7S21204   1.856   5.501   9.999  0.8344 -2.7031 -1.0784
  185SAPI   C2821205   2.059   5.451   9.927 -0.0951  0.2345 -0.2410
  185SAPI   H8R21206   2.163   5.454   9.961  0.7623 -1.0246 -2.5213
  185SAPI   C2921207   2.025   5.396   9.802 -0.7857 -0.5545 -0.2750
  185SAPI   H9R21208   2.108   5.385   9.730  0.1507 -0.2643  0.7296
  185SAPI  C21021209   1.880   5.376   9.761 -0.1389 -0.1537  0.0625
  185SAPI  H10R21210   1.838   5.476   9.739 -0.1567  0.0071  0.8151
  185SAPI  H10S21211   1.810   5.328   9.833  0.9774 -2.3330 -0.2100
  185SAPI  C21121212   1.876   5.291   9.628 -0.9020  0.6692  0.0970
  185SAPI  H11R21213   1.849   5.186   9.648  0.3190  0.3642  0.1716
  185SAPI  C21221214   1.888   5.331   9.499 -0.1535 -0.1254 -0.1718
  185SAPI  H12R21215   1.871   5.256   9.420 -0.4150 -0.2516  0.0021
  185SAPI  C21321216   1.915   5.477   9.453 -0.7653 -0.8235 -0.3583
  185SAPI  H13R21217   2.011   5.464   9.398 -0.5692  1.9944 -0.8392
  185SAPI  H13S21218   1.928   5.553   9.532  0.0901 -0.2488 -1.0297
  185SAPI  C21421219   1.812   5.524   9.346  0.4495  0.0911 -0.2426
  185SAPI  H14R21220   1.724   5.566   9.397  0.4272 -1.3618  1.0006
  185SAPI  C21521221   1.813   5.510   9.214 -0.3297 -0.2378  0.3507
  185SAPI  H15R21222   1.730   5.558   9.161 -0.1969 -0.5893 -0.1810
  185SAPI  C21621223   1.924   5.455   9.129 -0.1571  0.7677 -0.5482
  185SAPI  H16R21224   1.984   5.398   9.204 -1.4186 -1.0384 -0.8328
  185SAPI  H16S21225   1.985   5.535   9.081  0.8422  0.6324  0.4444
  185SAPI  C21721226   1.868   5.351   9.034  0.2333 -0.4761 -0.3237
  185SAPI  H17R21227   1.779   5.298   9.074 -1.1024  1.2122 -0.8975
  185SAPI  H17S21228   1.952   5.284   9.010  0.7951 -0.7396  2.0969
  185SAPI  C21821229   1.820   5.412   8.900 -0.3076  0.3160  0.1648
  185SAPI  H18R21230   1.895   5.473   8.845  0.5654  0.0054  0.9915
  185SAPI  H18S21231   1.736   5.484   8.908 -0.4765  0.3099 -1.1751
  185SAPI  C21921232   1.784   5.307   8.796 -0.5587  0.1866  0.0418
  185SAPI  H19R21233   1.701   5.255   8.848 -0.3479  1.6632  1.9528
  185SAPI  H19S21234   1.865   5.235   8.772 -1.4471 -1.1576  0.9061
  185SAPI  C22021235   1.734   5.372   8.664  0.2866 -0.6228  0.5996
  185SAPI  H20R21236   1.671   5.464   8.675 -0.3816 -1.2650  2.5645
  185SAPI  H20S21237   1.675   5.291   8.616 -0.6945 -0.9849  2.3283
  185SAPI  H20T21238   1.820   5.396   8.598  3.1745 -2.6962  3.3005
  185SAPI   C3321239   1.487   5.337  10.144 -0.1429  0.1132 -0.0661
  185SAPI   H3X21240   1.429   5.244  10.124 -0.5032  0.5602 -1.1665
  185SAPI   H3Y21241   1.593   5.307  10.156 -0.2272 -0.1413  0.0495
  185SAPI   C3421242   1.477   5.420  10.015 -0.0731  0.2775 -0.0593
  185SAPI   H4X21243   1.557   5.495   9.997 -0.2420  0.3994 -0.3173
  185SAPI   H4Y21244   1.384   5.480  10.026 -0.9330 -1.2699  1.6080
  185SAPI   C3521245   1.479   5.328   9.894 -0.0180  0.1468 -1.2942
  185SAPI   H5X21246   1.391   5.259   9.895  0.8877 -1.3671  4.1018
  185SAPI   H5Y21247   1.563   5.257   9.906 -1.3822 -1.0867  2.8215
  185SAPI   C3621248   1.477   5.410   9.766  0.4982  0.2466 -0.8429
  185SAPI   H6X21249   1.566   5.475   9.756  2.0556 -1.6617 -0.1528
  185SAPI   H6Y21250   1.392   5.480   9.780  0.1902 -0.4064  0.7838
  185SAPI   C3721251   1.460   5.336   9.631 -0.2155 -0.2218 -0.1809
  185SAPI   H7X21252   1.363   5.284   9.649 -0.6346  1.1357  1.7698
  185SAPI   H7Y21253   1.540   5.259   9.624 -1.1807 -1.3413  0.6232
  185SAPI   C3821254   1.467   5.439   9.525 -0.0854  0.9870  0.4253
  185SAPI   H8X21255   1.573   5.473   9.512  0.6802 -1.2536  0.4102
  185SAPI   H8Y21256   1.394   5.522   9.539 -1.2543  0.0799 -0.1561
  185SAPI   C3921257   1.441   5.374   9.388  0.2596  0.2415 -0.1464
  185SAPI   H9X21258   1.333   5.351   9.376  0.2759 -1.1726  1.9405
  185SAPI   H9Y21259   1.495   5.278   9.379 -2.3974 -1.3278 -0.1759
  185SAPI  C31021260   1.464   5.478   9.274  0.5694 -0.0583 -0.3537
  185SAPI  H10X21261   1.557   5.538   9.285  1.2297 -0.8976 -1.2123
  185SAPI  H10Y21262   1.388   5.559   9.286 -1.5085 -1.9722  0.0009
  185SAPI  C31121263   1.472   5.429   9.130 -0.0220  0.3127  0.7157
  185SAPI  H11X21264   1.558   5.364   9.103 -2.4481 -2.5673 -0.7004
  185SAPI  H11Y21265   1.486   5.525   9.075  0.1266 -0.2263 -0.2064
  185SAPI  C31221266   1.357   5.342   9.077  0.5370  0.3902 -0.1414
  185SAPI  H12X21267   1.261   5.396   9.094  0.3184  0.3623 -1.2255
  185SAPI  H12Y21268   1.345   5.247   9.134 -1.4819  0.6290 -0.0948
  185SAPI  C31321269   1.365   5.300   8.932  0.0482 -0.5976 -0.1253
  185SAPI  H13X21270   1.294   5.225   8.893  0.2979 -0.5797 -0.6190
  185SAPI  H13Y21271   1.468   5.262   8.916  0.3380  0.2895 -0.4103
  185SAPI  C31421272   1.362   5.415   8.826 -0.8140 -0.0400  0.8295
  185SAPI  H14X21273   1.461   5.465   8.831 -0.2317 -1.0560  0.0034
  185SAPI  H14Y21274   1.293   5.498   8.853  0.0773  1.2935 -0.8304
  185SAPI  C31521275   1.336   5.359   8.683  0.2714  0.7065  0.2207
  185SAPI  H15X21276   1.247   5.292   8.686  2.8433 -3.0102  1.1638
  185SAPI  H15Y21277   1.407   5.275   8.665  0.0541  0.7531 -0.8910
  185SAPI  C31621278   1.334   5.460   8.577 -0.1894 -0.3886  0.0145
  185SAPI  H16X21279   1.438   5.485   8.546  0.3632 -1.4739  0.9112
  185SAPI  H16Y21280   1.278   5.541   8.629 -0.9429 -0.1514 -1.1265
  185SAPI  C31721281   1.244   5.420   8.456  0.3355  0.2180  0.2821
  185SAPI  H17X21282   1.142   5.392   8.489  0.2656  2.0600  1.8127
  185SAPI  H17Y21283   1.292   5.329   8.414 -1.9678  0.0211 -2.1788
  185SAPI  C31821284   1.230   5.540   8.363  0.0005  0.0105 -0.8862
  185SAPI  H18X21285   1.163   5.514   8.278 -1.1614 -0.0108  0.0183
  185SAPI  H18Y21286   1.328   5.574   8.323 -0.0537 -0.9293 -1.8758
  185SAPI  H18Z21287   1.179   5.621   8.419  0.8572  0.7925 -1.2139
  186SAPI   C1221288   1.545   2.805  10.622  0.6211 -0.7218 -0.4546
  186SAPI    H221289   1.485   2.767  10.537 -0.4260  1.0105 -0.5480
  186SAPI    O221290   1.683   2.798  10.598  0.4752 -0.7449  0.0952
  186SAPI   HO221291   1.704   2.704  10.596 -0.2913 -0.9115 -1.7692
  186SAPI   C1321292   1.488   2.942  10.653 -0.5579 -0.7212 -0.0107
  186SAPI    H321293   1.382   2.921  10.677 -0.6931  0.0556  0.0931
  186SAPI    O321294   1.495   3.035  10.547  0.4685 -0.2692  0.0829
  186SAPI   HO321295   1.560   3.103  10.569  0.4890 -0.3606  0.3046
  186SAPI   C1421296   1.562   3.002  10.777  0.4117 -0.0747 -0.1597
  186SAPI    H421297   1.670   2.996  10.753 -0.1325 -0.9349 -2.6910
  186SAPI    O421298   1.525   3.138  10.807 -0.1684  0.1338 -0.2669
  186SAPI   HO421299   1.611   3.179  10.818  0.1716 -0.7952  0.6667
  186SAPI   C1521300   1.539   2.912  10.895 -0.0584 -0.0254 -0.0195
  186SAPI    H521301   1.432   2.908  10.924  0.6330  0.6032  2.9774
  186SAPI    O521302   1.597   2.965  11.011  0.3676 -0.1041 -0.2055
  186SAPI   HO521303   1.538   3.032  11.047  0.7241 -0.4251  1.0297
  186SAPI   C1621304   1.579   2.762  10.870 -0.9423 -0.5743  0.0471
  186SAPI    H621305   1.690   2.760  10.863 -0.8257  1.7772  0.2946
  186SAPI    O621306   1.535   2.688  10.984 -0.8226 -0.3899  0.1167
  186SAPI   HO621307   1.609   2.679  11.044 -0.3025  0.6643 -0.3436
  186SAPI   C1121308   1.519   2.716  10.745 -0.8739 -0.1204 -0.3088
  186SAPI    H121309   1.408   2.722  10.758 -0.9526 -0.9452 -0.5509
  186SAPI     P21310   1.457   2.476  10.628  0.3881  0.3611  0.0081
  186SAPI   O1321311   1.316   2.516  10.653  0.0095 -0.1459  0.5747
  186SAPI   O1421312   1.483   2.331  10.658 -0.2680 -0.1660  0.1508
  186SAPI   O1221313   1.556   2.579  10.713 -0.1111  0.8553 -0.2938
  186SAPI   O1121314   1.499   2.505  10.481  0.4474 -0.0057 -0.6323
  186SAPI    C121315   1.636   2.485  10.446  0.2639 -0.7703 -0.9630
  186SAPI    HA21316   1.686   2.581  10.421  0.0110 -0.4602 -0.3134
  186SAPI    HB21317   1.691   2.424  10.521 -2.2290 -1.7855  0.1622
  186SAPI    C221318   1.654   2.408  10.314  0.5329 -0.5893 -0.1013
  186SAPI    HS21319   1.759   2.372  10.302 -0.3785 -2.7640 -2.4756
  186SAPI   O2121320   1.625   2.488  10.199 -0.9973  0.6287  0.0962
  186SAPI   C2121321   1.725   2.573  10.159 -0.5600 -0.5517 -0.1654
  186SAPI   O2221322   1.829   2.599  10.216  0.1707  0.0194  0.0685
  186SAPI   C2221323   1.687   2.631  10.018  0.0161  0.5067 -0.6082
  186SAPI   H2R21324   1.616   2.555   9.977  0.6856 -0.3436 -0.2150
  186SAPI   H2S21325   1.638   2.729  10.034 -3.0574 -1.0365  0.2464
  186SAPI    C321326   1.567   2.286  10.299 -0.0092 -0.1062 -0.2824
  186SAPI    HX21327   1.464   2.324  10.288 -1.1837 -2.8701  0.4842
  186SAPI    HY21328   1.575   2.237  10.399 -0.3765  0.4746  0.0388
  186SAPI   O3121329   1.610   2.205  10.187  1.1014  0.5250 -0.3330
  186SAPI   C3121330   1.528   2.102  10.171 -0.3496 -0.5641 -0.3764
  186SAPI   O3221331   1.431   2.081  10.243 -0.3272 -0.2110  0.1850
  186SAPI   C3221332   1.586   2.016  10.053 -0.6580 -0.1472 -0.2117
  186SAPI   H2X21333   1.601   1.914  10.095  1.0734  0.3313  0.4313
  186SAPI   H2Y21334   1.687   2.056  10.030  0.3063 -1.6233  1.1893
  186SAPI   C2321335   1.804   2.635   9.925 -0.6793  0.8696  0.6930
  186SAPI   H3R21336   1.785   2.551   9.855  1.9442 -0.3129  1.2847
  186SAPI   H3S21337   1.900   2.607   9.973 -0.2162  0.9719 -0.1728
  186SAPI   C2421338   1.826   2.768   9.854 -0.6230  0.3828 -0.7890
  186SAPI   H4R21339   1.920   2.764   9.795 -0.0383  2.0154 -0.0433
  186SAPI   H4S21340   1.847   2.846   9.930 -1.0203  1.2900 -1.5781
  186SAPI   C2521341   1.708   2.809   9.765  0.2499 -0.1380  1.6805
  186SAPI   H5R21342   1.612   2.824   9.817 -2.0645 -0.1995 -2.1949
  186SAPI   C2621343   1.707   2.826   9.629 -0.0725  0.4413 -0.7951
  186SAPI   H6R21344   1.613   2.859   9.582  0.1866  1.0264 -0.9090
  186SAPI   C2721345   1.826   2.816   9.541 -0.2946  0.5390 -0.1967
  186SAPI   H7R21346   1.915   2.773   9.591 -2.2989 -4.2574 -0.1645
  186SAPI   H7S21347   1.839   2.922   9.511 -0.9989  0.8912  0.6984
  186SAPI   C2821348   1.810   2.744   9.407  0.3750 -0.4347 -0.2266
  186SAPI   H8R21349   1.827   2.637   9.425 -0.4150 -0.6856 -0.9269
  186SAPI   C2921350   1.776   2.795   9.283 -0.1108  0.2020 -0.6338
  186SAPI   H9R21351   1.765   2.721   9.203  2.4447 -1.1038  0.1053
  186SAPI  C21021352   1.732   2.936   9.251 -0.0402 -0.2374  0.5670
  186SAPI  H10R21353   1.649   2.977   9.312 -0.7309 -1.5147  0.5168
  186SAPI  H10S21354   1.691   2.945   9.148  1.5898  2.3064  0.0537
  186SAPI  C21121355   1.849   3.026   9.256 -0.0363 -0.1645  0.2560
  186SAPI  H11R21356   1.877   3.056   9.358 -1.3668 -0.5717  0.7711
  186SAPI  C21221357   1.925   3.062   9.152 -0.4138 -0.3816  0.2854
  186SAPI  H12R21358   2.014   3.124   9.172  0.9788 -1.9843 -0.7044
  186SAPI  C21321359   1.900   3.017   9.012  0.1664  0.6232 -0.6654
  186SAPI  H13R21360   1.860   3.106   8.960  1.4396  0.8596 -1.2771
  186SAPI  H13S21361   1.822   2.937   9.006  0.7177 -0.1819  1.6199
  186SAPI  C21421362   2.018   2.974   8.932  0.5100 -0.0356  0.6795
  186SAPI  H14R21363   2.031   2.866   8.917  1.0656  0.1826 -0.5490
  186SAPI  C21521364   2.108   3.056   8.867  0.5735 -0.3857  0.2101
  186SAPI  H15R21365   2.180   3.009   8.799 -0.1134  0.8788 -1.4553
  186SAPI  C21621366   2.114   3.205   8.870 -0.1433 -0.5644  0.3161
  186SAPI  H16R21367   2.197   3.225   8.942 -0.6942 -1.7535  1.3103
  186SAPI  H16S21368   2.018   3.251   8.902 -0.2162  0.6259 -1.4264
  186SAPI  C21721369   2.144   3.258   8.723  0.0584  0.6252 -1.0407
  186SAPI  H17R21370   2.233   3.202   8.688  0.2261  0.4815 -0.3881
  186SAPI  H17S21371   2.189   3.358   8.737  1.6046  0.0869 -1.8734
  186SAPI  C21821372   2.033   3.251   8.621 -0.2742 -0.3682 -0.4280
  186SAPI  H18R21373   1.941   3.299   8.660 -0.0424  0.1937 -0.5641
  186SAPI  H18S21374   2.000   3.149   8.592 -1.5214 -0.4752  1.1894
  186SAPI  C21921375   2.079   3.336   8.499  0.3808  0.9263  0.5495
  186SAPI  H19R21376   2.175   3.290   8.467 -1.0789 -1.7617 -0.2459
  186SAPI  H19S21377   2.108   3.440   8.527  2.0127  0.3872  0.9647
  186SAPI  C22021378   1.980   3.329   8.386  0.5165 -0.3725  0.0407
  186SAPI  H20R21379   1.980   3.231   8.334  0.9638  0.2415 -1.1700
  186SAPI  H20S21380   1.994   3.408   8.309  1.0371 -1.4298 -0.9842
  186SAPI  H20T21381   1.880   3.341   8.433  1.2413 -1.2157  1.9222
  186SAPI   C3321382   1.491   2.009   9.930 -0.6773 -0.5578 -0.4438
  186SAPI   H3X21383   1.445   2.107   9.907  1.8849  1.6022  2.7112
  186SAPI   H3Y21384   1.408   1.936   9.939 -1.1332 -0.3314 -2.4717
  186SAPI   C3421385   1.573   1.976   9.808  0.1831  0.0190 -0.1815
  186SAPI   H4X21386   1.631   1.884   9.830 -1.2165 -1.6313 -2.8455
  186SAPI   H4Y21387   1.641   2.062   9.790 -1.0336  0.5314 -2.9110
  186SAPI   C3521388   1.483   1.949   9.681  0.4838 -0.3240 -0.0053
  186SAPI   H5X21389   1.431   2.042   9.649  1.1172  0.5670  1.4371
  186SAPI   H5Y21390   1.396   1.884   9.704 -2.7203  4.0383  1.7165
  186SAPI   C3621391   1.565   1.912   9.551 -0.8672  0.6264  0.1020
  186SAPI   H6X21392   1.517   1.913   9.451 -0.9997 -0.2109  0.1450
  186SAPI   H6Y21393   1.593   1.807   9.573 -1.5450  0.4613  0.2034
  186SAPI   C3721394   1.708   1.988   9.545  0.7480  0.1434 -0.5829
  186SAPI   H7X21395   1.777   1.943   9.620  1.7485  1.0401 -0.9445
  186SAPI   H7Y21396   1.703   2.096   9.572 -2.7136 -0.0987  0.2887
  186SAPI   C3821397   1.772   1.979   9.410  0.2978 -0.1986  0.8497
  186SAPI   H8X21398   1.794   1.874   9.380 -1.3714 -0.8889  1.9057
  186SAPI   H8Y21399   1.870   2.030   9.425  0.4696 -0.2955  0.0870
  186SAPI   C3921400   1.701   2.053   9.295  0.4722  0.6360 -0.5738
  186SAPI   H9X21401   1.662   2.154   9.323  2.6259  1.5168 -0.5533
  186SAPI   H9Y21402   1.615   1.987   9.271 -0.2355  0.7987  1.3385
  186SAPI  C31021403   1.770   2.052   9.165 -0.1303 -0.0559 -0.0194
  186SAPI  H10X21404   1.814   1.951   9.155 -0.5595 -0.5963  2.7868
  186SAPI  H10Y21405   1.857   2.121   9.160 -1.4641  1.6358 -1.3013
  186SAPI  C31121406   1.672   2.085   9.055 -0.0145  1.0451 -0.1312
  186SAPI  H11X21407   1.646   2.192   9.047  2.4074  1.6755 -0.2739
  186SAPI  H11Y21408   1.583   2.021   9.076  0.8133 -0.3269 -0.6666
  186SAPI  C31221409   1.722   2.045   8.915  0.3794  0.2771 -0.7504
  186SAPI  H12X21410   1.724   1.934   8.909 -1.1449  0.2235 -0.5808
  186SAPI  H12Y21411   1.825   2.086   8.905  0.3236  0.0871 -2.3131
  186SAPI  C31321412   1.642   2.096   8.799 -0.0414 -0.6202 -0.2644
  186SAPI  H13X21413   1.635   2.207   8.799 -2.8761 -0.7109 -0.6452
  186SAPI  H13Y21414   1.536   2.065   8.815 -0.2995  0.4274  0.1852
  186SAPI  C31421415   1.691   2.051   8.664 -0.7221 -0.6838  0.3513
  186SAPI  H14X21416   1.616   2.093   8.594 -1.4957 -0.1407  1.4654
  186SAPI  H14Y21417   1.687   1.941   8.655  1.7763 -0.6484 -3.1697
  186SAPI  C31521418   1.827   2.094   8.623 -0.5352 -0.1661 -0.2162
  186SAPI  H15X21419   1.903   2.044   8.686  1.4578  1.3320 -1.3268
  186SAPI  H15Y21420   1.835   2.202   8.648  0.7751  0.3277 -2.4280
  186SAPI  C31621421   1.868   2.044   8.483 -0.0818  0.2266  0.0931
  186SAPI  H16X21422   1.780   2.037   8.416 -1.9356  1.7375  2.2050
  186SAPI  H16Y21423   1.876   1.936   8.505 -0.5125  0.3947  1.1446
  186SAPI  C31721424   2.001   2.111   8.437 -0.6951 -0.4874  0.1662
  186SAPI  H17X21425   2.076   2.063   8.504 -0.5300 -0.3928  0.0479
  186SAPI  H17Y21426   2.011   2.221   8.440 -0.3955 -0.4312 -1.8858
  186SAPI  C31821427   2.041   2.068   8.298  0.2473 -0.4179  0.1906
  186SAPI  H18X21428   2.148   2.089   8.278  0.7354 -1.4809  1.4777
  186SAPI  H18Y21429   1.978   2.117   8.221  1.0226  3.5995  1.8676
  186SAPI  H18Z21430   2.030   1.960   8.274  0.6485 -0.8775  1.9022
  187SAPI   C1221431   5.127   5.275   6.443  0.1160  0.4900 -0.2231
  187SAPI    H221432   5.169   5.305   6.541  0.4211  1.7037 -0.7018
  187SAPI    O221433   5.227   5.240   6.340  0.0027  0.0805  0.0689
  187SAPI   HO221434   5.275   5.322   6.326 -0.0773  0.2564  0.7717
  187SAPI   C1321435   5.034   5.162   6.480  0.1557  0.3244  0.8599
  187SAPI    H321436   4.958   5.199   6.552 -1.5130  1.2596 -1.2706
  187SAPI    O321437   5.100   5.047   6.536  0.1251  0.2778 -0.1977
  187SAPI   HO321438   5.140   4.996   6.465 -1.4833 -0.1817 -0.8068
  187SAPI   C1421439   4.950   5.119   6.353 -0.1539 -0.3541  0.5014
  187SAPI    H421440   5.022   5.099   6.271  0.2379  1.8560  0.2453
  187SAPI    O421441   4.866   5.016   6.386  0.3045 -0.4086  0.9224
  187SAPI   HO421442   4.895   4.931   6.353 -1.5682 -0.2488 -1.4289
  187SAPI   C1521443   4.877   5.244   6.308  0.1310 -0.3677  0.5435
  187SAPI    H521444   4.804   5.262   6.389 -0.5851 -0.6099 -0.0361
  187SAPI    O521445   4.791   5.217   6.199 -0.1983  0.1909  0.4672
  187SAPI   HO521446   4.702   5.217   6.235 -0.6558  3.7474 -0.2939
  187SAPI   C1621447   4.971   5.365   6.279  0.0575 -0.7325  0.3900
  187SAPI    H621448   5.038   5.326   6.200  1.1192  0.1265  0.8384
  187SAPI    O621449   4.907   5.486   6.234  0.0146  0.1816 -0.0003
  187SAPI   HO621450   4.932   5.554   6.296 -1.9438  1.9455 -1.0255
  187SAPI   C1121451   5.053   5.395   6.399 -0.3636 -0.1475 -0.1159
  187SAPI    H121452   4.990   5.419   6.487 -0.8723 -0.9325 -0.2614
  187SAPI     P21453   5.117   5.653   6.441 -0.1533 -0.1256 -0.3021
  187SAPI   O1321454   4.978   5.687   6.393 -0.1061 -0.1086 -0.0608
  187SAPI   O1421455   5.227   5.740   6.398 -0.7484  0.3290  0.0776
  187SAPI   O1221456   5.147   5.503   6.381 -0.0030 -0.2055 -0.1307
  187SAPI   O1121457   5.113   5.634   6.596  0.4819  0.8415 -0.4945
  187SAPI    C121458   5.227   5.657   6.676 -0.9807  0.6060 -0.4796
  187SAPI    HA21459   5.292   5.567   6.688  1.7032  2.3615 -1.0326
  187SAPI    HB21460   5.288   5.740   6.634  0.5660  0.0965  0.6559
  187SAPI    C221461   5.188   5.697   6.818  0.4978 -0.0721  0.4469
  187SAPI    HS21462   5.125   5.613   6.853 -1.5068  1.5443  0.8408
  187SAPI   O2121463   5.114   5.813   6.826  0.8846 -0.2675 -0.5480
  187SAPI   C2121464   5.034   5.822   6.936 -0.2710 -1.3122  0.3043
  187SAPI   O2221465   5.021   5.744   7.025 -0.9899 -0.0063 -0.2496
  187SAPI   C2221466   4.954   5.949   6.905 -0.3937  0.1368 -0.8260
  187SAPI   H2R21467   4.989   5.979   6.804  1.8484 -1.6517 -0.6635
  187SAPI   H2S21468   4.850   5.911   6.910 -0.0479 -0.9252 -1.4069
  187SAPI    C321469   5.319   5.704   6.903 -0.2670 -0.3410 -0.4187
  187SAPI    HX21470   5.371   5.798   6.878  0.3847 -0.9122 -1.2962
  187SAPI    HY21471   5.388   5.622   6.873  0.2477 -0.5297  1.2279
  187SAPI   O3121472   5.295   5.693   7.046 -0.2581  0.7466  0.3136
  187SAPI   C3121473   5.270   5.579   7.101 -0.1375  0.2276  0.6379
  187SAPI   O3221474   5.263   5.473   7.036  0.1657 -0.3162 -0.4344
  187SAPI   C3221475   5.248   5.605   7.252  0.7933 -0.2567  0.8618
  187SAPI   H2X21476   5.253   5.712   7.282 -1.2771 -0.0005  0.4770
  187SAPI   H2Y21477   5.318   5.543   7.311  0.4089 -1.3373  0.2115
  187SAPI   C2321478   4.964   6.067   7.006  0.0326  0.7189  0.3842
  187SAPI   H3R21479   4.947   6.157   6.943  2.1426 -0.2471 -1.7062
  187SAPI   H3S21480   5.068   6.079   7.042  0.6139 -0.0905 -0.9785
  187SAPI   C2421481   4.855   6.065   7.111  0.0246  0.3561  0.0586
  187SAPI   H4R21482   4.752   6.052   7.070  0.3222  1.0510 -0.9540
  187SAPI   H4S21483   4.858   6.166   7.156  0.4100 -0.0128  0.8808
  187SAPI   C2521484   4.869   5.960   7.214  0.3713  0.6868  0.4664
  187SAPI   H5R21485   4.808   5.874   7.181 -0.9380  1.6681  0.2133
  187SAPI   C2621486   4.929   5.965   7.335  0.5293  0.0583  0.4978
  187SAPI   H6R21487   4.917   5.876   7.398 -0.0013 -2.7043 -3.1577
  187SAPI   C2721488   5.015   6.071   7.393  0.7107 -0.1766 -0.0905
  187SAPI   H7R21489   4.998   6.069   7.503  1.0317  1.9954  0.0486
  187SAPI   H7S21490   4.990   6.172   7.353  3.2261  0.4557 -0.2365
  187SAPI   C2821491   5.158   6.036   7.353  0.3741 -0.4200 -0.1518
  187SAPI   H8R21492   5.174   6.038   7.244 -0.4913  2.0693 -0.2821
  187SAPI   C2921493   5.266   6.028   7.431 -0.8250  0.8079  0.1117
  187SAPI   H9R21494   5.370   6.021   7.394 -0.9821  2.2699 -0.6709
  187SAPI  C21021495   5.252   6.040   7.575  0.4253  0.7428  0.1690
  187SAPI  H10R21496   5.185   5.962   7.616  1.9631 -1.0964 -0.6205
  187SAPI  H10S21497   5.221   6.144   7.596  2.6682  1.7259 -0.9363
  187SAPI  C21121498   5.383   6.012   7.648 -0.1179  0.3557  0.4511
  187SAPI  H11R21499   5.447   5.942   7.594 -1.6911  0.4593 -1.6685
  187SAPI  C21221500   5.411   6.059   7.769 -0.0166 -0.0209 -0.0402
  187SAPI  H12R21501   5.507   6.027   7.811 -0.3867  0.4298  1.1951
  187SAPI  C21321502   5.340   6.154   7.858 -0.6078 -0.4569  0.5384
  187SAPI  H13R21503   5.278   6.227   7.802  2.4732  1.4141 -0.6586
  187SAPI  H13S21504   5.417   6.213   7.913  1.8522 -0.1203 -2.9805
  187SAPI  C21421505   5.242   6.084   7.949  0.0480 -0.6251 -0.0980
  187SAPI  H14R21506   5.143   6.082   7.902  1.2822 -1.1321 -2.8277
  187SAPI  C21521507   5.257   6.039   8.077 -0.0988 -0.4557  0.6222
  187SAPI  H15R21508   5.172   5.987   8.124  0.1550 -0.8744  0.6243
  187SAPI  C21621509   5.388   6.049   8.150 -0.0693  0.2116  0.2502
  187SAPI  H16R21510   5.420   6.155   8.166 -1.2843  0.2104  3.4179
  187SAPI  H16S21511   5.469   5.994   8.098 -1.3009 -1.3197 -0.1314
  187SAPI  C21721512   5.380   5.978   8.290  0.5797 -1.8020  0.5735
  187SAPI  H17R21513   5.370   5.867   8.288  0.2884 -1.7884  1.0302
  187SAPI  H17S21514   5.294   6.027   8.342  1.5556 -0.2760  0.7978
  187SAPI  C21821515   5.514   6.015   8.370 -0.2141 -1.6896  0.3164
  187SAPI  H18R21516   5.524   6.121   8.336 -0.0708 -1.4937  0.9623
  187SAPI  H18S21517   5.595   5.956   8.323  1.2462  0.3490  0.1515
  187SAPI  C21921518   5.511   6.005   8.521 -0.3602 -0.4371  0.0135
  187SAPI  H19R21519   5.605   6.046   8.564  0.6679  1.2901 -3.5035
  187SAPI  H19S21520   5.502   5.895   8.534  1.0124 -0.7317 -1.3589
  187SAPI  C22021521   5.392   6.083   8.586 -0.0344  0.4128  0.6620
  187SAPI  H20R21522   5.294   6.036   8.565  0.3272  0.3155 -0.9438
  187SAPI  H20S21523   5.386   6.189   8.553  3.3018  0.0309 -1.6730
  187SAPI  H20T21524   5.393   6.085   8.697  1.2792 -0.2120  0.6795
  187SAPI   C3321525   5.101   5.553   7.285 -0.2029  0.4817 -0.4971
  187SAPI   H3X21526   5.081   5.457   7.233  1.8286 -0.0763 -0.2968
  187SAPI   H3Y21527   5.028   5.635   7.263 -0.6260  0.1194 -0.4581
  187SAPI   C3421528   5.084   5.511   7.433  0.4838  0.3774 -0.1510
  187SAPI   H4X21529   5.114   5.597   7.496 -1.9994  0.5833  0.8491
  187SAPI   H4Y21530   5.145   5.422   7.459  0.0963  0.3060  0.5223
  187SAPI   C3521531   4.940   5.467   7.470  0.1411 -0.0089 -0.1760
  187SAPI   H5X21532   4.908   5.378   7.411  1.1276 -1.4268  1.3221
  187SAPI   H5Y21533   4.880   5.560   7.465  0.6921  0.3719  0.1858
  187SAPI   C3621534   4.925   5.425   7.622  0.3315  0.6620  0.2920
  187SAPI   H6X21535   4.921   5.506   7.698 -0.9707 -0.9859  2.0851
  187SAPI   H6Y21536   5.011   5.359   7.646  0.6668  1.0114  0.0592
  187SAPI   C3721537   4.797   5.339   7.630  0.7454 -0.4779 -0.6568
  187SAPI   H7X21538   4.778   5.272   7.543 -1.4214 -2.6310  1.3388
  187SAPI   H7Y21539   4.710   5.408   7.634  0.8214 -0.3196 -1.4670
  187SAPI   C3821540   4.806   5.247   7.753  0.6580  0.0205  0.6425
  187SAPI   H8X21541   4.821   5.313   7.841  0.9422  2.3074 -1.0616
  187SAPI   H8Y21542   4.898   5.187   7.736  0.2509  0.2650 -3.4485
  187SAPI   C3921543   4.678   5.166   7.764  0.4384 -0.3821 -0.5467
  187SAPI   H9X21544   4.666   5.104   7.672  1.0968  2.1095 -2.3959
  187SAPI   H9Y21545   4.593   5.238   7.767 -0.7716 -1.7211 -1.1597
  187SAPI  C31021546   4.664   5.093   7.895  0.2564  0.8092 -0.5630
  187SAPI  H10X21547   4.696   5.159   7.978 -0.9639  1.4811 -0.5989
  187SAPI  H10Y21548   4.735   5.007   7.894 -1.3569 -0.6052  1.0397
  187SAPI  C31121549   4.520   5.040   7.924 -0.1096  0.0114 -0.2319
  187SAPI  H11X21550   4.488   4.974   7.839  0.5305  1.5072 -1.6839
  187SAPI  H11Y21551   4.444   5.117   7.949  0.3919  0.3950  0.1091
  187SAPI  C31221552   4.544   4.949   8.045 -0.2221 -0.6714 -0.4211
  187SAPI  H12X21553   4.649   4.919   8.066  0.1694  0.6328 -0.4173
  187SAPI  H12Y21554   4.482   4.858   8.036  0.3521 -0.9589 -1.6473
  187SAPI  C31321555   4.501   5.027   8.169 -0.4936 -0.2302 -0.6393
  187SAPI  H13X21556   4.396   5.059   8.154  0.2318  1.7392 -1.8702
  187SAPI  H13Y21557   4.556   5.122   8.157  1.4264 -1.4625 -2.4295
  187SAPI  C31421558   4.534   4.962   8.304  0.0198 -0.5354 -0.1479
  187SAPI  H14X21559   4.543   5.045   8.377 -1.1020 -0.0723 -0.5099
  187SAPI  H14Y21560   4.629   4.906   8.297  1.2291  1.0765  2.2571
  187SAPI  C31521561   4.425   4.862   8.348 -0.3386  0.2557 -0.7222
  187SAPI  H15X21562   4.415   4.783   8.270 -2.1338 -1.9481  1.5576
  187SAPI  H15Y21563   4.331   4.920   8.360  0.0480  0.3430  3.2150
  187SAPI  C31621564   4.463   4.809   8.488 -0.3823  0.1462  0.3593
  187SAPI  H16X21565   4.461   4.894   8.560  0.7991 -0.2920  0.9291
  187SAPI  H16Y21566   4.568   4.775   8.501 -0.7541 -1.0086  0.4522
  187SAPI  C31721567   4.374   4.702   8.533  0.8752  0.3498  0.4857
  187SAPI  H17X21568   4.390   4.611   8.472  2.3224  0.6714  0.3545
  187SAPI  H17Y21569   4.270   4.739   8.524  0.9365  0.1430 -1.3301
  187SAPI  C31821570   4.389   4.660   8.678 -0.9577 -0.1923 -0.8663
  187SAPI  H18X21571   4.321   4.574   8.698 -0.6127 -0.4146 -0.6404
  187SAPI  H18Y21572   4.366   4.751   8.738 -0.4553  0.9266 -2.2958
  187SAPI  H18Z21573   4.492   4.621   8.691 -1.8599 -2.9757 -1.4846
  188SAPI   C1221574   5.258   1.045   6.283 -0.3090  0.0269  0.6388
  188SAPI    H221575   5.238   1.014   6.387  0.5502  0.3220  0.8977
  188SAPI    O221576   5.390   0.990   6.250  0.0951  0.2562 -0.0509
  188SAPI   HO221577   5.404   0.910   6.300  0.5609  0.2752 -0.1453
  188SAPI   C1321578   5.155   0.983   6.193  0.6715  0.3482  0.2382
  188SAPI    H321579   5.057   1.015   6.235  1.3072  1.2346  1.0876
  188SAPI    O321580   5.147   0.841   6.186 -0.5657  0.1260  0.1723
  188SAPI   HO321581   5.052   0.828   6.191 -0.7696  1.3556 -0.3448
  188SAPI   C1421582   5.149   1.047   6.054  0.0051 -0.3821  0.6783
  188SAPI    H421583   5.241   1.009   6.004  1.3395  0.9104  2.0344
  188SAPI    O421584   5.037   1.004   5.982  0.4928  0.3450  0.1912
  188SAPI   HO421585   5.034   1.029   5.890 -4.1490 -0.8342 -0.2483
  188SAPI   C1521586   5.153   1.206   6.055 -0.6378  0.4985 -0.0356
  188SAPI    H521587   5.058   1.248   6.095 -1.1998 -0.0279 -0.7754
  188SAPI    O521588   5.161   1.253   5.924 -0.3640  0.4524  0.2012
  188SAPI   HO521589   5.243   1.217   5.889 -1.1387 -0.2150 -1.0125
  188SAPI   C1621590   5.273   1.254   6.148  0.0715  0.1542  0.1540
  188SAPI    H621591   5.368   1.228   6.097  1.2242  0.3672  2.1178
  188SAPI    O621592   5.277   1.397   6.154  0.8820  0.3488  0.5953
  188SAPI   HO621593   5.273   1.415   6.248 -0.3070 -1.3878  0.9421
  188SAPI   C1121594   5.259   1.195   6.281  0.1803 -0.1198 -0.5805
  188SAPI    H121595   5.158   1.221   6.317 -0.7641 -3.3573 -0.5866
  188SAPI     P21596   5.318   1.357   6.492  0.0199  0.3240 -0.1699
  188SAPI   O1321597   5.235   1.295   6.597  0.6080 -0.4712  0.9491
  188SAPI   O1421598   5.261   1.465   6.411  0.0348 -0.6809  1.1877
  188SAPI   O1221599   5.355   1.239   6.379  0.3083  0.1016 -0.1536
  188SAPI   O1121600   5.461   1.392   6.541  0.2722 -0.0400 -0.1877
  188SAPI    C121601   5.479   1.524   6.598 -0.0480 -0.2456  0.3810
  188SAPI    HA21602   5.566   1.575   6.552 -0.0618 -0.1596  0.4492
  188SAPI    HB21603   5.393   1.593   6.590 -0.6128 -0.8666  0.9541
  188SAPI    C221604   5.508   1.519   6.752  0.1289 -0.0255 -0.0307
  188SAPI    HS21605   5.611   1.478   6.756  0.0223 -0.4063 -1.0381
  188SAPI   O2121606   5.410   1.441   6.818  0.1672 -0.2685  0.4308
  188SAPI   C2121607   5.436   1.379   6.930  0.2159 -0.6777  0.0292
  188SAPI   O2221608   5.551   1.371   6.978  0.6170 -0.3060 -0.2116
  188SAPI   C2221609   5.306   1.314   6.976 -0.0806 -0.4157 -0.5630
  188SAPI   H2R21610   5.245   1.395   7.020  3.5323  2.5073 -0.4167
  188SAPI   H2S21611   5.252   1.272   6.889 -0.0336 -1.5870 -0.0578
  188SAPI    C321612   5.513   1.660   6.820 -0.7618  0.7412  0.1633
  188SAPI    HX21613   5.410   1.702   6.820 -0.9529  0.6384 -3.9051
  188SAPI    HY21614   5.574   1.728   6.758  1.2402 -0.0464  1.1742
  188SAPI   O3121615   5.570   1.654   6.951  0.5815  0.1238 -0.5104
  188SAPI   C3121616   5.697   1.662   6.974 -0.3455 -0.2911 -0.4714
  188SAPI   O3221617   5.784   1.686   6.893  0.9466  0.3812  0.2336
  188SAPI   C3221618   5.717   1.619   7.118  0.0006 -0.0822 -0.8158
  188SAPI   H2X21619   5.646   1.537   7.138  1.1253 -1.0221 -0.5712
  188SAPI   H2Y21620   5.683   1.704   7.182  0.1421 -0.3760 -0.3494
  188SAPI   C2321621   5.354   1.205   7.078  0.1019 -0.4027  1.5884
  188SAPI   H3R21622   5.386   1.245   7.177  2.6117 -0.6213  0.9167
  188SAPI   H3S21623   5.443   1.152   7.038 -0.7174 -1.1761  0.7402
  188SAPI   C2421624   5.248   1.093   7.095 -0.6149  0.0491 -0.4928
  188SAPI   H4R21625   5.208   1.054   6.998 -0.0348 -0.1248 -0.6645
  188SAPI   H4S21626   5.162   1.145   7.142 -0.8564  0.8721 -1.7930
  188SAPI   C2521627   5.298   0.972   7.176  0.5322  0.3186  0.0381
  188SAPI   H5R21628   5.322   0.885   7.113  1.4362 -1.3539  2.5309
  188SAPI   C2621629   5.295   0.951   7.307 -0.1324 -0.6050  0.4471
  188SAPI   H6R21630   5.315   0.850   7.347  0.2769 -0.1669  1.3678
  188SAPI   C2721631   5.255   1.053   7.417 -0.0104 -0.2713  0.9695
  188SAPI   H7R21632   5.169   1.012   7.474 -1.6646  0.0253 -1.1893
  188SAPI   H7S21633   5.212   1.144   7.371  0.1070 -0.9336 -0.5303
  188SAPI   C2821634   5.379   1.063   7.505  0.1319 -0.3026  0.5965
  188SAPI   H8R21635   5.471   1.094   7.454  0.9877  1.2044  2.8882
  188SAPI   C2921636   5.405   1.029   7.631 -0.2036 -0.1819  0.4191
  188SAPI   H9R21637   5.502   1.046   7.680 -0.5062 -0.5410  1.1765
  188SAPI  C21021638   5.307   0.965   7.727  0.5069  0.7250  0.3708
  188SAPI  H10R21639   5.328   0.857   7.743  1.9144  1.1156  1.4289
  188SAPI  H10S21640   5.202   0.961   7.692 -0.1100 -1.2786  2.2692
  188SAPI  C21121641   5.308   1.045   7.856 -0.0313  0.2463 -0.4937
  188SAPI  H11R21642   5.286   1.152   7.854 -0.2104  0.1971 -1.6332
  188SAPI  C21221643   5.324   0.990   7.980 -0.0714 -0.0275 -0.1288
  188SAPI  H12R21644   5.346   1.055   8.066  0.7532  0.0899 -0.4231
  188SAPI  C21321645   5.353   0.853   8.028 -0.5792 -0.1251  0.1885
  188SAPI  H13R21646   5.462   0.837   8.043 -0.6480 -2.5078 -1.2403
  188SAPI  H13S21647   5.333   0.782   7.945  1.6987  0.0269 -0.5423
  188SAPI  C21421648   5.267   0.813   8.141  0.4035 -0.2679 -0.7392
  188SAPI  H14R21649   5.161   0.799   8.112  0.3617  0.3622 -0.8883
  188SAPI  C21521650   5.297   0.797   8.272 -0.1003 -0.2976  0.1621
  188SAPI  H15R21651   5.219   0.767   8.343 -1.3323 -0.5068 -1.2211
  188SAPI  C21621652   5.432   0.808   8.333 -0.3319 -0.7633  0.1611
  188SAPI  H16R21653   5.465   0.914   8.340  1.2749 -1.3654  3.8018
  188SAPI  H16S21654   5.499   0.749   8.266 -0.8384  0.4020 -1.4313
  188SAPI  C21721655   5.439   0.756   8.475 -0.3906  0.0894  0.0609
  188SAPI  H17R21656   5.343   0.774   8.528 -0.3230  0.9579 -0.0948
  188SAPI  H17S21657   5.522   0.794   8.538 -1.0599  0.5531  0.6754
  188SAPI  C21821658   5.453   0.606   8.481 -0.2454  0.0769 -0.0394
  188SAPI  H18R21659   5.563   0.592   8.476 -0.1159  0.7593  0.7191
  188SAPI  H18S21660   5.417   0.554   8.389 -1.2872 -2.8778  1.8887
  188SAPI  C21921661   5.388   0.532   8.601  0.0215  0.6529 -0.1359
  188SAPI  H19R21662   5.418   0.426   8.593 -0.6306  0.4663 -0.1606
  188SAPI  H19S21663   5.280   0.551   8.582  0.5346  2.2436 -1.6867
  188SAPI  C22021664   5.443   0.586   8.741  0.4389  0.0567  0.9801
  188SAPI  H20R21665   5.372   0.554   8.820 -0.3471  1.6311  0.9340
  188SAPI  H20S21666   5.445   0.696   8.730  0.4511  0.2278  2.5084
  188SAPI  H20T21667   5.542   0.544   8.772 -0.4861 -3.1361  0.0358
  188SAPI   C3321668   5.855   1.561   7.153  0.2828  0.3806  0.2005
  188SAPI   H3X21669   5.946   1.625   7.140  0.2061  0.0864 -2.5747
  188SAPI   H3Y21670   5.869   1.474   7.085 -0.6626 -0.4678  1.0725
  188SAPI   C3421671   5.868   1.507   7.300 -0.2531 -1.0449  0.1048
  188SAPI   H4X21672   5.854   1.596   7.365  2.8954  0.1266 -0.6326
  188SAPI   H4Y21673   5.978   1.497   7.310  0.2158  0.8808 -2.2872
  188SAPI   C3521674   5.811   1.373   7.341 -0.4013 -0.6899  0.5803
  188SAPI   H5X21675   5.850   1.296   7.271  2.2629 -0.6526  1.8841
  188SAPI   H5Y21676   5.701   1.385   7.329 -0.2204 -0.0432 -0.6425
  188SAPI   C3621677   5.851   1.322   7.485  0.0056  0.2175  0.3233
  188SAPI   H6X21678   5.960   1.339   7.492 -0.0763  0.2393  1.8877
  188SAPI   H6Y21679   5.826   1.214   7.483  0.1243  0.1935  0.0713
  188SAPI   C3721680   5.781   1.388   7.602  0.1598  0.7354  0.6240
  188SAPI   H7X21681   5.674   1.361   7.603  0.1599  0.7353  1.7704
  188SAPI   H7Y21682   5.782   1.498   7.588 -0.0125  0.6917  0.2477
  188SAPI   C3821683   5.834   1.331   7.739  0.0425  0.8264  0.1526
  188SAPI   H8X21684   5.934   1.372   7.764  0.3373  0.5122 -0.5004
  188SAPI   H8Y21685   5.844   1.221   7.732  1.4799  1.0658 -2.3258
  188SAPI   C3921686   5.729   1.364   7.848 -0.3338 -0.4395  0.1123
  188SAPI   H9X21687   5.633   1.313   7.826  0.1940 -1.2967 -0.2482
  188SAPI   H9Y21688   5.708   1.473   7.855  2.2647  0.1708 -0.4786
  188SAPI  C31021689   5.792   1.323   7.978 -0.4678  0.1165  0.5656
  188SAPI  H10X21690   5.894   1.367   7.983  0.1713 -1.2381  0.1434
  188SAPI  H10Y21691   5.806   1.212   7.977  0.6979  0.2133 -1.9641
  188SAPI  C31121692   5.725   1.345   8.108 -0.0257  0.2653 -0.2922
  188SAPI  H11X21693   5.723   1.454   8.131 -0.9462  0.2674 -0.3752
  188SAPI  H11Y21694   5.790   1.292   8.182 -0.4635 -0.6050 -0.5185
  188SAPI  C31221695   5.586   1.283   8.131 -0.3320  0.5133  0.0809
  188SAPI  H12X21696   5.589   1.175   8.157 -0.5000  0.2073 -1.1288
  188SAPI  H12Y21697   5.526   1.300   8.039  0.8616  0.5787 -0.6991
  188SAPI  C31321698   5.511   1.353   8.251  0.3437 -0.0302 -0.3769
  188SAPI  H13X21699   5.502   1.458   8.214  0.6077  0.2784  0.4127
  188SAPI  H13Y21700   5.575   1.355   8.342  0.7978  2.5450 -0.6623
  188SAPI  C31421701   5.374   1.295   8.279  0.1764 -0.1927  0.0576
  188SAPI  H14X21702   5.384   1.186   8.262  0.0164 -0.0581 -0.9630
  188SAPI  H14Y21703   5.286   1.326   8.219 -0.9141 -0.6286  1.3712
  188SAPI  C31521704   5.340   1.313   8.425 -0.0585  0.3950 -0.1341
  188SAPI  H15X21705   5.320   1.421   8.444  1.3167  0.4604  1.1406
  188SAPI  H15Y21706   5.431   1.291   8.486 -0.2327  2.1004  0.8357
  188SAPI  C31621707   5.230   1.221   8.460  0.1560  1.3330 -0.5268
  188SAPI  H16X21708   5.262   1.119   8.429  0.2586  1.0394  0.5150
  188SAPI  H16Y21709   5.138   1.255   8.408  0.6322 -0.0914 -2.4059
  188SAPI  C31721710   5.185   1.225   8.607  0.3122 -0.5194 -0.3790
  188SAPI  H17X21711   5.268   1.194   8.674  1.4309  1.1156 -0.9470
  188SAPI  H17Y21712   5.108   1.145   8.611 -0.2880 -0.1722 -3.0023
  188SAPI  C31821713   5.134   1.366   8.656  0.3486  0.2819 -0.0285
  188SAPI  H18X21714   5.085   1.367   8.756 -0.5636  2.0721 -0.4445
  188SAPI  H18Y21715   5.056   1.402   8.585 -0.1046  0.0193  0.3285
  188SAPI  H18Z21716   5.206   1.451   8.656 -0.0643  0.6385  0.5931
  189POPC     N21717   6.318   0.288  10.893  0.4463 -0.1470 -0.1302
  189POPC   C1221718   6.262   0.381  10.784  0.1012  0.0535 -0.0707
  189POPC  H12A21719   6.302   0.357  10.687 -0.2279  0.7237 -0.3741
  189POPC  H12B21720   6.295   0.482  10.802  1.1895  0.0557 -1.8693
  189POPC   C1321721   6.279   0.331  11.029 -0.0695 -0.0021 -0.1684
  189POPC  H13A21722   6.307   0.259  11.105 -0.5704 -0.6919 -0.6232
  189POPC  H13B21723   6.331   0.421  11.060 -2.7233  1.1152  1.3720
  189POPC  H13C21724   6.174   0.348  11.046  0.5383  1.8103  2.4082
  189POPC   C1421725   6.274   0.151  10.886  0.0573  0.2725 -0.0394
  189POPC  H14A21726   6.168   0.147  10.909  0.4792 -3.4264  2.0367
  189POPC  H14B21727   6.283   0.110  10.787 -0.8642  1.5384 -0.6832
  189POPC  H14C21728   6.331   0.083  10.947 -1.6541 -2.4537 -1.2890
  189POPC   C1521729   6.474   0.292  10.874  0.2649 -0.1073  0.7566
  189POPC  H15A21730   6.505   0.233  10.959  0.0817 -0.3920  0.6252
  189POPC  H15B21731   6.513   0.393  10.880 -0.0219  0.0063  0.7092
  189POPC  H15C21732   6.511   0.241  10.787  1.4414 -0.8841  1.6784
  189POPC   C1121733   6.104   0.390  10.768 -1.0566 -0.7500  0.2961
  189POPC  H11A21734   6.051   0.293  10.770 -0.7921 -0.8997  3.1664
  189POPC  H11B21735   6.101   0.440  10.668  0.8729 -0.5234  0.3062
  189POPC     P21736   6.067   0.620  10.876 -0.3233  0.2355 -0.1630
  189POPC   O1321737   6.206   0.658  10.894 -0.1448 -0.5192 -0.2520
  189POPC   O1421738   5.968   0.668  10.976  0.0366  0.1371  1.0973
  189POPC   O1221739   6.047   0.465  10.873  0.2392  0.1266  0.0908
  189POPC   O1121740   6.021   0.678  10.736 -0.2592  0.1125 -0.5065
  189POPC    C121741   5.881   0.668  10.708 -0.0411 -0.0228 -0.3119
  189POPC    HA21742   5.833   0.768  10.717 -0.1557 -0.2605  3.1288
  189POPC    HB21743   5.828   0.604  10.782  1.2091  0.5730  1.1745
  189POPC    C221744   5.847   0.603  10.568  0.3755  0.2266  0.1317
  189POPC    HS21745   5.752   0.649  10.533  0.9601  0.8553 -0.6883
  189POPC   O2121746   5.847   0.460  10.590 -0.4439 -0.0399 -0.9452
  189POPC   C2121747   5.722   0.418  10.624 -0.9566 -0.1756 -0.3555
  189POPC   O2221748   5.624   0.489  10.651  0.7367  0.2247 -0.3932
  189POPC   C2221749   5.723   0.270  10.609  0.3766  0.5256  0.3566
  189POPC   H2R21750   5.793   0.217  10.678 -0.5505 -1.3464 -0.0945
  189POPC   H2S21751   5.741   0.249  10.502 -0.6981  0.7934  0.1197
  189POPC    C321752   5.953   0.650  10.459  0.1731 -0.3610 -0.6844
  189POPC    HX21753   6.042   0.598  10.501 -0.8712 -0.3680  1.6612
  189POPC    HY21754   5.955   0.760  10.473  0.4884 -0.3093 -1.1110
  189POPC   O3121755   5.908   0.626  10.323 -0.3872 -0.2081  0.2922
  189POPC   C3121756   5.986   0.547  10.251  0.1896  0.3170 -0.3594
  189POPC   O3221757   6.098   0.509  10.286  0.1132 -0.1411  0.7145
  189POPC   C3221758   5.917   0.538  10.112 -0.4598 -0.2560 -0.3355
  189POPC   H2X21759   5.995   0.500  10.042  0.6186 -0.5427  0.9906
  189POPC   H2Y21760   5.898   0.644  10.085  0.1669  0.0603  0.4300
  189POPC   C2321761   5.584   0.211  10.644  0.0849  0.4230  0.3720
  189POPC   H3R21762   5.534   0.253  10.734  1.0946  1.2201  0.5787
  189POPC   H3S21763   5.608   0.104  10.663 -1.9527  0.0897  1.3852
  189POPC   C2421764   5.480   0.187  10.531  0.0254 -0.4083 -0.6497
  189POPC   H4R21765   5.383   0.149  10.570 -0.8648  1.3401 -1.0814
  189POPC   H4S21766   5.523   0.112  10.461  1.3836  3.0337 -3.8175
  189POPC   C2521767   5.455   0.312  10.442  0.7459  0.0276 -0.4653
  189POPC   H5R21768   5.548   0.352  10.396  0.8482 -1.0057 -1.1758
  189POPC   H5S21769   5.434   0.404  10.501 -0.9040  0.7299 -2.0332
  189POPC   C2621770   5.353   0.284  10.338  0.2688  0.0077  0.0963
  189POPC   H6R21771   5.261   0.245  10.386 -0.5143  3.3571  1.6588
  189POPC   H6S21772   5.391   0.209  10.266  0.2023  0.0368  0.0299
  189POPC   C2721773   5.304   0.410  10.267 -0.3874  0.4501 -0.2851
  189POPC   H7R21774   5.387   0.464  10.217 -0.1365 -0.7209 -1.1762
  189POPC   H7S21775   5.261   0.479  10.343  0.9339 -1.1389  2.0234
  189POPC   C2821776   5.183   0.382  10.175  0.2751 -0.1686 -0.2889
  189POPC   H8R21777   5.123   0.473  10.153 -0.0504 -0.0144  1.1115
  189POPC   H8S21778   5.105   0.321  10.225 -2.5406  1.9170 -1.8303
  189POPC   C2921779   5.219   0.327  10.042  0.0716 -0.0964  0.1985
  189POPC   H9121780   5.261   0.397   9.969  1.4846  1.4292  2.3632
  189POPC  C21021781   5.189   0.206   9.987  0.0978 -0.5604  0.4795
  189POPC  H10121782   5.226   0.189   9.885  1.8130 -3.7337  1.4736
  189POPC  C21121783   5.112   0.089  10.058 -0.2501  0.2052  0.1238
  189POPC  H11R21784   5.052   0.126  10.144  0.4954  1.8042 -0.0022
  189POPC  H11S21785   5.189   0.025  10.107 -0.6355 -1.8647 -1.8090
  189POPC  C21221786   5.018   0.006   9.974 -0.0112  0.0100  0.0897
  189POPC  H12R21787   4.943   0.077   9.934 -0.1491  1.1345  2.2111
  189POPC  H12S21788   4.967  -0.075  10.031  1.3603 -1.5106 -0.7577
  189POPC  C21321789   5.077  -0.076   9.855 -0.3227  0.3254  0.2180
  189POPC  H13R21790   5.138  -0.164   9.885  0.3327  1.0516  1.0593
  189POPC  H13S21791   5.151  -0.015   9.799  0.4330 -1.1288 -0.4376
  189POPC  C21421792   4.960  -0.111   9.754 -0.3020  0.7685 -0.0049
  189POPC  H14R21793   4.898  -0.023   9.724  0.1649  1.0092 -0.2845
  189POPC  H14S21794   4.903  -0.203   9.779  2.7587 -1.2354  0.1537
  189POPC  C21521795   5.021  -0.168   9.624 -0.3951 -0.7419 -0.2371
  189POPC  H15R21796   5.096  -0.245   9.653  0.0324 -1.1956 -2.3925
  189POPC  H15S21797   5.084  -0.085   9.586 -1.7497  0.1934 -0.5248
  189POPC  C21621798   4.926  -0.217   9.514 -0.4476  0.2143  0.1334
  189POPC  H16R21799   4.875  -0.129   9.468  0.6266  0.8314  0.0841
  189POPC  H16S21800   4.849  -0.289   9.549 -1.4304 -0.8943 -3.7480
  189POPC  C21721801   5.005  -0.290   9.404 -0.5925 -0.5006 -0.5487
  189POPC  H17R21802   5.076  -0.364   9.447 -1.3872 -1.9928 -1.6952
  189POPC  H17S21803   5.067  -0.215   9.350  1.7111 -2.1491 -0.3880
  189POPC  C21821804   4.911  -0.360   9.303  0.0523  0.7511 -0.2712
  189POPC  H18R21805   4.845  -0.291   9.245 -2.2498 -0.9153  0.2104
  189POPC  H18S21806   4.823  -0.411   9.349 -0.9142  1.6379 -1.0730
  189POPC  H18T21807   4.968  -0.417   9.227 -0.3838 -0.3361  0.1978
  189POPC   C3321808   5.798   0.446  10.107  0.2651 -0.0862 -0.2136
  189POPC   H3X21809   5.734   0.454  10.197  0.8810  1.4945  0.1137
  189POPC   H3Y21810   5.825   0.338  10.098 -0.4812 -0.5070  2.1490
  189POPC   C3421811   5.703   0.482   9.995  0.4158  0.5946 -0.5981
  189POPC   H4X21812   5.688   0.592   9.990 -0.5314  0.4232 -1.6159
  189POPC   H4Y21813   5.606   0.434  10.021  0.1293  2.3617  2.0837
  189POPC   C3521814   5.760   0.442   9.861 -0.0863  0.1068 -0.1921
  189POPC   H5X21815   5.748   0.332   9.872  1.1293  0.1905  3.3969
  189POPC   H5Y21816   5.867   0.459   9.839  0.9395 -2.1805  2.3901
  189POPC   C3621817   5.675   0.503   9.753 -0.5881  0.1369  0.2895
  189POPC   H6X21818   5.722   0.501   9.652 -2.0525  0.4528 -0.4288
  189POPC   H6Y21819   5.643   0.608   9.775  1.9521  0.8885  0.7046
  189POPC   C3721820   5.556   0.412   9.711 -0.4106 -0.2629  0.2498
  189POPC   H7X21821   5.493   0.383   9.798 -0.1384 -3.6732 -0.5148
  189POPC   H7Y21822   5.587   0.307   9.688 -2.1640 -0.7177 -0.2136
  189POPC   C3821823   5.481   0.487   9.608 -0.5928  0.4806 -0.2022
  189POPC   H8X21824   5.541   0.539   9.530 -0.2553  1.0474  0.4195
  189POPC   H8Y21825   5.420   0.557   9.669 -1.3668  1.1296 -1.6598
  189POPC   C3921826   5.374   0.406   9.525 -0.0757 -0.0963 -0.3538
  189POPC   H9X21827   5.426   0.335   9.458 -1.2937 -1.2621 -0.1002
  189POPC   H9Y21828   5.324   0.482   9.461  0.5561  1.1017  0.5249
  189POPC  C31021829   5.272   0.336   9.622  0.6299 -0.5898 -0.0623
  189POPC  H10X21830   5.228   0.414   9.688  0.0053 -0.0056 -1.1391
  189POPC  H10Y21831   5.322   0.259   9.685  0.4363 -0.3476  0.3928
  189POPC  C31121832   5.158   0.278   9.538 -0.0367 -0.4665 -0.7634
  189POPC  H11X21833   5.124   0.368   9.481 -1.2222 -0.3940  0.0186
  189POPC  H11Y21834   5.076   0.244   9.605 -0.2399 -0.1905 -0.8689
  189POPC  C31221835   5.190   0.183   9.430 -0.1654  0.4552  0.8012
  189POPC  H12X21836   5.241   0.102   9.487  1.5458  0.7615 -0.2197
  189POPC  H12Y21837   5.258   0.230   9.356 -0.8329  1.4251  0.7899
  189POPC  C31321838   5.072   0.129   9.351 -0.2641 -0.0698 -1.2642
  189POPC  H13X21839   5.008   0.217   9.328  0.2251  0.6696  0.0974
  189POPC  H13Y21840   5.018   0.068   9.426  4.3681 -1.4661  1.3194
  189POPC  C31421841   5.113   0.052   9.227 -0.0086 -0.0956  0.6924
  189POPC  H14X21842   5.182  -0.031   9.254 -0.6251 -1.0658 -0.6209
  189POPC  H14Y21843   5.170   0.127   9.168 -2.7745  2.4890  1.1011
  189POPC  C31521844   4.994  -0.006   9.157 -0.8489  0.0311  0.1420
  189POPC  H15X21845   4.931   0.074   9.112 -0.6695  0.5991  0.8766
  189POPC  H15Y21846   4.941  -0.063   9.236  0.8386  0.6050  1.7399
  189POPC  C31621847   5.049  -0.106   9.066 -0.1197 -0.4770  0.2748
  189POPC  H16X21848   5.109  -0.058   8.985 -1.6218  1.5851  0.2995
  189POPC  H16Y21849   4.967  -0.153   9.008  0.1271  1.3023 -1.6506
  189POPC  H16Z21850   5.106  -0.185   9.119  4.0224  0.4494 -2.3348
  190POPC     N21851   1.249   5.501  11.427  0.2131 -0.2226  0.7566
  190POPC   C1221852   1.246   5.384  11.331 -0.0553 -0.1957 -0.6104
  190POPC  H12A21853   1.341   5.331  11.336 -0.0864 -0.2904 -1.0395
  190POPC  H12B21854   1.244   5.428  11.233  0.5123  1.3138  0.0299
  190POPC   C1321855   1.236   5.447  11.563  0.2657 -0.6088  0.9682
  190POPC  H13A21856   1.143   5.393  11.571 -1.3215  1.6620 -0.8630
  190POPC  H13B21857   1.301   5.364  11.590 -1.2981 -1.6744  1.6311
  190POPC  H13C21858   1.243   5.517  11.645 -1.0638 -0.2897  0.8380
  190POPC   C1421859   1.381   5.576  11.434  0.6769 -0.9158  0.1394
  190POPC  H14A21860   1.455   5.498  11.434  0.6137 -0.9953 -1.1861
  190POPC  H14B21861   1.409   5.632  11.346 -0.7404  0.2731  0.3951
  190POPC  H14C21862   1.388   5.643  11.519 -0.1687  0.8233 -1.0963
  190POPC   C1521863   1.131   5.592  11.396 -0.3339  0.1796 -0.8826
  190POPC  H15A21864   1.139   5.632  11.296  2.2835 -0.9536 -1.2140
  190POPC  H15B21865   1.133   5.678  11.462  0.1950  0.8563 -1.7517
  190POPC  H15C21866   1.038   5.539  11.404  0.3627 -0.8822  0.6143
  190POPC   C1121867   1.132   5.280  11.336  0.3998 -0.5206  0.0048
  190POPC  H11A21868   1.125   5.238  11.438  2.3722  1.5535  1.0668
  190POPC  H11B21869   1.165   5.196  11.272  1.2758 -0.8639  0.8827
  190POPC     P21870   0.984   5.349  11.139  0.2413 -0.2001  0.0763
  190POPC   O1321871   1.067   5.466  11.095 -0.9345  0.3518  0.3684
  190POPC   O1421872   0.837   5.354  11.105  0.3677  0.0476  0.3119
  190POPC   O1221873   1.002   5.335  11.300  0.0829  0.2660  0.4399
  190POPC   O1121874   1.045   5.225  11.064  0.2700 -0.1149 -0.6268
  190POPC    C121875   1.126   5.243  10.948 -0.4433  0.0117 -0.0971
  190POPC    HA21876   1.195   5.157  10.937  1.5688  1.6590 -0.9321
  190POPC    HB21877   1.202   5.323  10.953  1.3030 -1.4851 -1.3061
  190POPC    C221878   1.043   5.245  10.816 -0.4230 -0.4661 -0.2267
  190POPC    HS21879   1.088   5.166  10.752  0.7750  2.0450 -2.6805
  190POPC   O2121880   1.064   5.373  10.755 -0.1512 -0.4951  0.2900
  190POPC   C2121881   1.092   5.367  10.618 -0.0640 -0.4408  0.3944
  190POPC   O2221882   1.113   5.261  10.557 -0.3021 -0.4382  0.5527
  190POPC   C2221883   1.105   5.514  10.572  0.5303  0.5832 -0.4680
  190POPC   H2R21884   1.193   5.525  10.505  2.1517 -0.8092  1.3015
  190POPC   H2S21885   1.141   5.567  10.663 -2.2217 -0.4389  1.3545
  190POPC    C321886   0.894   5.200  10.824  0.1696 -0.1417 -0.2865
  190POPC    HX21887   0.845   5.284  10.878 -1.5081 -0.6448 -0.9687
  190POPC    HY21888   0.876   5.110  10.887  1.9178  0.0403  0.5303
  190POPC   O3121889   0.832   5.186  10.695  0.6108 -0.0355 -0.3615
  190POPC   C3121890   0.849   5.066  10.637  0.2702 -0.4310  0.0783
  190POPC   O3221891   0.913   4.974  10.693 -0.1488 -0.0374 -0.1819
  190POPC   C3221892   0.781   5.065  10.494 -0.4054 -0.4272  0.7443
  190POPC   H2X21893   0.858   5.036  10.419 -0.7622 -0.3614  0.3485
  190POPC   H2Y21894   0.747   5.167  10.467 -0.9055 -0.7425  0.1326
  190POPC   C2321895   0.986   5.585  10.510 -0.3731  0.1681  0.3402
  190POPC   H3R21896   1.017   5.692  10.517 -1.2698  0.4071  0.7472
  190POPC   H3S21897   0.896   5.569  10.573 -1.3481  0.4504 -0.9314
  190POPC   C2421898   0.963   5.539  10.367 -0.1809 -0.0424 -0.1513
  190POPC   H4R21899   1.055   5.515  10.309 -0.2467  2.8734 -1.6647
  190POPC   H4S21900   0.911   5.613  10.303  1.3282  1.5871  0.4409
  190POPC   C2521901   0.858   5.425  10.369  0.0612  0.2768  0.2812
  190POPC   H5R21902   0.772   5.469  10.423 -0.4065  1.5724 -1.4533
  190POPC   H5S21903   0.909   5.336  10.413  0.2707 -0.4019 -1.2874
  190POPC   C2621904   0.820   5.381  10.223  0.2966 -0.4532 -0.0900
  190POPC   H6R21905   0.786   5.276  10.235  2.3807 -1.1493  0.1896
  190POPC   H6S21906   0.910   5.380  10.159 -0.3511 -0.1850 -1.0225
  190POPC   C2721907   0.700   5.460  10.171 -0.1793 -0.2623  0.0551
  190POPC   H7R21908   0.727   5.565  10.146  1.6263 -0.6634  0.1549
  190POPC   H7S21909   0.623   5.480  10.248 -0.1865  0.2648 -0.0880
  190POPC   C2821910   0.632   5.403  10.045 -0.2030  0.4203  0.5882
  190POPC   H8R21911   0.539   5.455  10.014  0.3373  1.7531  1.1229
  190POPC   H8S21912   0.598   5.302  10.077  0.3885 -0.5557 -1.6828
  190POPC   C2921913   0.734   5.371   9.947 -0.3980 -0.4130 -0.0801
  190POPC   H9121914   0.831   5.339   9.989 -0.2872  0.8039  0.6384
  190POPC  C21021915   0.718   5.378   9.810 -0.0184  0.6142  0.5564
  190POPC  H10121916   0.802   5.340   9.750  0.2175 -0.4957  1.5386
  190POPC  C21121917   0.602   5.418   9.728  0.6606  0.0797 -0.3761
  190POPC  H11R21918   0.553   5.504   9.777  1.8967 -0.4209  1.8574
  190POPC  H11S21919   0.524   5.339   9.722 -0.6878  1.2768  0.8675
  190POPC  C21221920   0.661   5.473   9.589 -0.4166 -0.6286 -0.3385
  190POPC  H12R21921   0.719   5.390   9.544  2.2680  1.4171 -0.9002
  190POPC  H12S21922   0.737   5.550   9.611 -0.2768 -1.1973  1.3632
  190POPC  C21321923   0.555   5.521   9.496  0.2608  0.4144  0.5960
  190POPC  H13R21924   0.491   5.593   9.552 -1.8210 -1.0429  0.2231
  190POPC  H13S21925   0.498   5.428   9.476 -0.7682  1.4602 -1.6179
  190POPC  C21421926   0.593   5.585   9.362 -0.0482 -0.3086 -0.0634
  190POPC  H14R21927   0.650   5.511   9.302  1.1381  1.0887 -0.7235
  190POPC  H14S21928   0.667   5.663   9.389 -0.3538 -0.3161  0.8313
  190POPC  C21521929   0.468   5.663   9.299  0.0158  0.0015  0.0406
  190POPC  H15R21930   0.431   5.737   9.373 -1.4161 -1.0229  0.3936
  190POPC  H15S21931   0.382   5.595   9.281 -0.0593 -0.2856  1.3503
  190POPC  C21621932   0.496   5.736   9.165 -0.1013  0.1926  0.7706
  190POPC  H16R21933   0.577   5.811   9.171  0.2354 -0.0862 -0.0971
  190POPC  H16S21934   0.406   5.796   9.141  0.1257  1.0225  1.9365
  190POPC  C21721935   0.532   5.636   9.046  0.4952  0.3391  0.9330
  190POPC  H17R21936   0.453   5.560   9.032 -1.5667  2.1190  2.2129
  190POPC  H17S21937   0.624   5.580   9.074  0.2261 -0.3311  0.4849
  190POPC  C21821938   0.559   5.698   8.907 -0.6869  0.0482 -0.1564
  190POPC  H18R21939   0.589   5.625   8.830 -2.7464 -1.3852  0.3309
  190POPC  H18S21940   0.649   5.764   8.913 -2.1299  2.2290 -1.2578
  190POPC  H18T21941   0.476   5.760   8.868  0.3965  1.3359 -0.5099
  190POPC   C3321942   0.671   4.961  10.494  0.5733  0.1314 -0.3420
  190POPC   H3X21943   0.595   4.997  10.567  1.4020  1.7284 -0.2223
  190POPC   H3Y21944   0.706   4.862  10.528  0.0957  0.1973  0.3472
  190POPC   C3421945   0.602   4.940  10.357  0.4299  0.3843 -0.5727
  190POPC   H4X21946   0.520   5.016  10.356  0.0044  0.0075  1.7155
  190POPC   H4Y21947   0.549   4.843  10.363  0.7176  0.2244 -0.6460
  190POPC   C3521948   0.683   4.971  10.227  0.1685  0.0654  0.5103
  190POPC   H5X21949   0.780   4.917  10.234  0.1513  0.2947  4.4901
  190POPC   H5Y21950   0.713   5.077  10.241  1.8229 -0.0227 -1.7070
  190POPC   C3621951   0.607   4.934  10.099 -0.6641  0.1861 -0.2904
  190POPC   H6X21952   0.527   5.011  10.094  0.4145  1.4637  0.9923
  190POPC   H6Y21953   0.589   4.825  10.109  2.3136 -0.1998  3.0847
  190POPC   C3721954   0.684   4.972   9.973 -0.6466  0.5507 -1.0241
  190POPC   H7X21955   0.782   4.922   9.967  0.5698  2.6903 -0.0512
  190POPC   H7Y21956   0.710   5.080   9.973 -1.1968  0.7073  0.2786
  190POPC   C3821957   0.597   4.943   9.853  0.1970 -0.3195  0.3608
  190POPC   H8X21958   0.497   4.990   9.867  1.7107  3.9808 -1.3667
  190POPC   H8Y21959   0.590   4.833   9.845 -2.6887 -0.1796 -0.0592
  190POPC   C3921960   0.655   5.017   9.736 -0.8415 -0.3779  0.2263
  190POPC   H9X21961   0.762   4.990   9.727 -0.4202  1.5791 -1.3890
  190POPC   H9Y21962   0.634   5.125   9.751  1.1417  0.3865 -1.9281
  190POPC  C31021963   0.610   4.980   9.597  0.0823  0.2602 -0.0001
  190POPC  H10X21964   0.506   4.941   9.597  0.0604  0.3181  0.4457
  190POPC  H10Y21965   0.676   4.899   9.558 -1.7156 -2.3635  2.0364
  190POPC  C31121966   0.631   5.098   9.495  0.2191  0.2818 -0.7397
  190POPC  H11X21967   0.738   5.121   9.472  0.4573  1.3677  1.2248
  190POPC  H11Y21968   0.600   5.201   9.524 -1.8479  0.1888 -2.3922
  190POPC  C31221969   0.552   5.086   9.362 -0.4296  0.0043 -0.0858
  190POPC  H12X21970   0.448   5.075   9.397 -0.5058  0.6329 -0.1006
  190POPC  H12Y21971   0.573   4.991   9.309  0.8428 -0.0873  0.5264
  190POPC  C31321972   0.549   5.202   9.263  0.4516  0.0936 -0.0872
  190POPC  H13X21973   0.657   5.224   9.247  0.0968  1.0863 -1.3294
  190POPC  H13Y21974   0.516   5.299   9.307  1.3001 -0.1813  1.2040
  190POPC  C31421975   0.469   5.175   9.143  0.3480  0.1970  0.3598
  190POPC  H14X21976   0.377   5.232   9.165  0.7938  1.2080 -0.3289
  190POPC  H14Y21977   0.452   5.066   9.128 -0.0005  0.3381 -0.2803
  190POPC  C31521978   0.532   5.228   9.014  0.2493  0.4587  0.1705
  190POPC  H15X21979   0.632   5.184   8.996 -0.1681 -0.3292 -0.2927
  190POPC  H15Y21980   0.555   5.335   9.031  2.3716 -0.0970  1.1643
  190POPC  C31621981   0.439   5.207   8.895 -0.0679  0.1050  0.0405
  190POPC  H16X21982   0.342   5.250   8.928  0.3082  1.4142 -0.4748
  190POPC  H16Y21983   0.422   5.098   8.886 -0.0034  0.0348  0.6853
  190POPC  H16Z21984   0.462   5.240   8.792 -2.8282  4.5295  0.5597
  191POPC     N21985   0.554   6.748   6.187 -0.6511  0.0173  0.2877
  191POPC   C1221986   0.524   6.797   6.323 -0.0880 -0.3976  0.1163
  191POPC  H12A21987   0.599   6.871   6.344  1.8514 -2.1778 -0.2588
  191POPC  H12B21988   0.539   6.713   6.389 -1.1852 -1.8399 -1.3898
  191POPC   C1321989   0.560   6.861   6.091 -0.1493 -0.1556  0.2441
  191POPC  H13A21990   0.645   6.925   6.110  0.7896 -0.9865 -0.9544
  191POPC  H13B21991   0.568   6.836   5.986 -0.7448 -1.9668  0.5867
  191POPC  H13C21992   0.480   6.930   6.114 -1.5009 -1.4028 -0.5208
  191POPC   C1421993   0.700   6.694   6.183 -0.2067  0.0776  0.8359
  191POPC  H14A21994   0.727   6.666   6.082 -0.3267 -1.4112  1.1978
  191POPC  H14B21995   0.780   6.764   6.202  1.4080 -0.6787 -2.3384
  191POPC  H14C21996   0.720   6.605   6.240 -1.1753 -0.9088 -0.3085
  191POPC   C1521997   0.462   6.638   6.136  0.2682  0.2770  0.6948
  191POPC  H15A21998   0.464   6.546   6.193 -0.5353 -1.1414 -1.4723
  191POPC  H15B21999   0.489   6.602   6.038  0.3647  0.0648  0.8000
  191POPC  H15C22000   0.358   6.666   6.133  0.1657 -0.0553  1.0985
  191POPC   C1122001   0.386   6.860   6.357  0.6810 -0.7808  0.2714
  191POPC  H11A22002   0.372   6.855   6.467 -1.9322 -1.1462 -0.0188
  191POPC  H11B22003   0.308   6.788   6.323 -0.9986  1.7965 -1.7313
  191POPC     P22004   0.219   7.049   6.305  0.2533  0.2189  0.3844
  191POPC   O1322005   0.143   6.971   6.207  0.3738 -0.1956  0.3133
  191POPC   O1422006   0.241   7.192   6.266  0.0329 -0.1693 -0.6025
  191POPC   O1222007   0.366   6.989   6.298 -0.7523 -0.5843 -0.3360
  191POPC   O1122008   0.183   7.024   6.462 -0.1462 -0.0364  0.0975
  191POPC    C122009   0.257   7.094   6.565 -0.1755  0.2169  1.4398
  191POPC    HA22010   0.280   7.199   6.534 -2.1768  0.4930  0.8019
  191POPC    HB22011   0.352   7.038   6.577 -0.2611 -0.2883 -0.0555
  191POPC    C222012   0.188   7.104   6.698  0.0982  0.2922 -0.0339
  191POPC    HS22013   0.180   7.207   6.738  2.7150  0.9456 -0.9924
  191POPC   O2122014   0.250   7.024   6.802  0.3765  0.0008  0.0063
  191POPC   C2122015   0.352   7.079   6.858  0.5169 -0.2966  0.1208
  191POPC   O2222016   0.395   7.192   6.836 -0.2599 -0.3510 -0.5300
  191POPC   C2222017   0.415   6.985   6.960  0.1183 -0.1377  0.0302
  191POPC   H2R22018   0.518   6.961   6.924 -0.1056 -0.8760 -0.1298
  191POPC   H2S22019   0.369   6.885   6.949 -0.5700  0.2961 -1.1548
  191POPC    C322020   0.035   7.062   6.700 -0.1214 -0.7323 -0.1018
  191POPC    HX22021   0.025   6.967   6.643 -2.0617 -0.5288 -0.1637
  191POPC    HY22022  -0.017   7.143   6.645  0.0170 -0.1862  0.5673
  191POPC   O3122023  -0.013   7.048   6.838 -0.0323 -0.0723  0.9299
  191POPC   C3122024  -0.033   6.931   6.880  0.5561  0.3438 -0.6850
  191POPC   O3222025  -0.010   6.823   6.823  0.0820  0.3842 -0.1269
  191POPC   C3222026  -0.117   6.942   7.016 -1.5600 -0.8095 -0.5244
  191POPC   H2X22027  -0.129   6.835   7.044 -1.6115 -0.7986 -0.5064
  191POPC   H2Y22028  -0.217   6.988   7.002 -0.4470  1.5677 -1.2755
  191POPC   C2322029   0.412   7.033   7.110  1.1035  0.0264 -0.0594
  191POPC   H3R22030   0.308   7.053   7.144  0.8352 -3.1629  1.2826
  191POPC   H3S22031   0.453   7.136   7.124 -3.1080  2.1158 -1.1778
  191POPC   C2422032   0.476   6.939   7.210 -0.7119  0.8395 -0.0722
  191POPC   H4R22033   0.584   6.935   7.187 -0.7482  1.4609 -0.3692
  191POPC   H4S22034   0.430   6.838   7.212  1.4741 -0.2366  2.9554
  191POPC   C2522035   0.476   6.981   7.356 -0.0885  0.3084 -0.5834
  191POPC   H5R22036   0.385   7.039   7.382  0.6410  0.8777  0.8459
  191POPC   H5S22037   0.558   7.056   7.348 -0.5184  0.8998  0.3280
  191POPC   C2622038   0.508   6.875   7.453  0.4318 -0.6109 -0.3478
  191POPC   H6R22039   0.609   6.838   7.429  1.0644  0.8420 -0.0559
  191POPC   H6S22040   0.430   6.796   7.449 -2.0323  1.6490 -0.2561
  191POPC   C2722041   0.532   6.938   7.588 -0.8488 -0.1133 -1.2440
  191POPC   H7R22042   0.576   7.039   7.575 -0.1860 -0.1850  0.2323
  191POPC   H7S22043   0.617   6.886   7.638 -1.8015  0.1206  0.7319
  191POPC   C2822044   0.421   6.924   7.692 -0.2303  0.0314  0.3518
  191POPC   H8R22045   0.436   6.848   7.771  3.1174 -0.7114 -0.8713
  191POPC   H8S22046   0.330   6.894   7.635  1.4833 -3.0795 -0.9829
  191POPC   C2922047   0.404   7.059   7.758 -0.2825 -0.2495  0.3087
  191POPC   H9122048   0.318   7.114   7.716 -0.8364  0.3682  2.1736
  191POPC  C21022049   0.463   7.103   7.870  0.0454 -0.0085  0.0707
  191POPC  H10122050   0.441   7.206   7.899 -0.5516  0.3855 -1.6462
  191POPC  C21122051   0.565   7.022   7.955  0.9201 -0.3132  0.6775
  191POPC  H11R22052   0.656   7.084   7.967  1.4618 -1.2799  1.7769
  191POPC  H11S22053   0.603   6.929   7.909 -0.5180 -0.7012  0.2363
  191POPC  C21222054   0.516   7.001   8.102 -0.3375 -0.5811  0.1031
  191POPC  H12R22055   0.448   6.914   8.105 -0.7723 -0.2811 -0.7138
  191POPC  H12S22056   0.473   7.095   8.142  0.8922 -0.1167  0.3790
  191POPC  C21322057   0.634   6.989   8.194  0.2102  0.4108  0.3341
  191POPC  H13R22058   0.687   7.081   8.227  0.1973  1.0337 -1.3263
  191POPC  H13S22059   0.707   6.909   8.167  0.2959  0.6224 -0.0665
  191POPC  C21422060   0.582   6.960   8.332 -0.0662  0.2027 -0.1985
  191POPC  H14R22061   0.547   6.855   8.341  2.1190 -0.5432  0.3909
  191POPC  H14S22062   0.496   7.028   8.349  0.2286  0.5848 -0.2152
  191POPC  C21522063   0.690   6.974   8.442 -0.2206 -0.2385 -0.0816
  191POPC  H15R22064   0.736   7.076   8.443 -1.4469  0.3427  1.7313
  191POPC  H15S22065   0.769   6.899   8.424  0.1763  0.4549 -1.3799
  191POPC  C21622066   0.628   6.971   8.583  0.0011 -0.7391  0.1566
  191POPC  H16R22067   0.561   7.060   8.587  0.0423 -0.7164  0.3740
  191POPC  H16S22068   0.710   6.991   8.655  0.1712 -1.0968  0.0640
  191POPC  C21722069   0.547   6.848   8.628  0.0946 -0.1062  0.0686
  191POPC  H17R22070   0.607   6.757   8.647 -1.3755 -1.1745 -0.1724
  191POPC  H17S22071   0.478   6.831   8.543  0.6603 -0.1708 -0.3771
  191POPC  C21822072   0.450   6.881   8.747  0.0199 -0.0600 -0.6433
  191POPC  H18R22073   0.385   6.971   8.734  0.2351  0.4991  1.6873
  191POPC  H18S22074   0.518   6.909   8.831  1.0480 -0.1871 -1.4044
  191POPC  H18T22075   0.396   6.787   8.769 -2.3097  1.5905  1.2617
  191POPC   C3322076  -0.034   6.995   7.135 -0.0044 -0.8042  0.4397
  191POPC   H3X22077  -0.019   7.105   7.145  1.3860 -1.0186  0.9566
  191POPC   H3Y22078   0.061   6.939   7.120 -0.1761 -1.1683  0.6871
  191POPC   C3422079  -0.089   6.944   7.268 -0.5848  0.2295 -0.2285
  191POPC   H4X22080  -0.108   6.834   7.264  1.1175 -0.2294  2.1611
  191POPC   H4Y22081  -0.184   7.000   7.281 -0.6405  0.0848 -0.0017
  191POPC   C3522082  -0.008   6.974   7.388 -0.1385  0.2530  0.4909
  191POPC   H5X22083   0.006   7.084   7.381  1.7770 -0.0360 -1.6643
  191POPC   H5Y22084   0.096   6.935   7.383  0.3668  1.6621 -1.1463
  191POPC   C3622085  -0.085   6.947   7.518 -0.7307  0.0093  0.6780
  191POPC   H6X22086  -0.082   6.836   7.521  1.7663 -0.0641 -1.1736
  191POPC   H6Y22087  -0.189   6.987   7.519 -0.8830 -0.3663  0.3355
  191POPC   C3722088  -0.013   6.988   7.645 -0.5192  0.5947 -0.5291
  191POPC   H7X22089  -0.015   7.098   7.635 -0.4424  0.5773 -0.7396
  191POPC   H7Y22090   0.091   6.947   7.647 -0.9440 -0.5258 -0.1206
  191POPC   C3822091  -0.075   6.954   7.775  0.1120 -0.6108  0.0929
  191POPC   H8X22092  -0.075   6.844   7.790  2.3203 -0.6886 -0.2441
  191POPC   H8Y22093  -0.179   6.993   7.771 -0.1086 -1.0895  0.8795
  191POPC   C3922094   0.002   7.022   7.894  0.8465  0.8006 -0.3436
  191POPC   H9X22095  -0.005   7.131   7.873  0.6187  0.1944 -4.1901
  191POPC   H9Y22096   0.108   6.989   7.891  0.8917  0.9739 -1.8505
  191POPC  C31022097  -0.056   6.973   8.024  0.2853  0.1244 -1.0307
  191POPC  H10X22098  -0.068   6.863   8.009  1.8158  0.0447 -1.9646
  191POPC  H10Y22099  -0.157   7.017   8.037 -1.1021 -2.7190 -1.3828
  191POPC  C31122100   0.035   7.017   8.149  0.6364  0.1790 -0.0680
  191POPC  H11X22101   0.034   7.128   8.155 -0.4498  0.1273  1.2330
  191POPC  H11Y22102   0.140   6.986   8.134 -0.1246 -1.0841 -3.7442
  191POPC  C31222103  -0.022   6.969   8.286  0.3665 -0.2402 -0.4327
  191POPC  H12X22104  -0.065   6.866   8.280 -1.9049  0.5655  0.6434
  191POPC  H12Y22105  -0.115   7.021   8.315 -0.3056 -1.1421 -0.8843
  191POPC  C31322106   0.084   6.972   8.395  0.4522  0.9127 -0.6677
  191POPC  H13X22107   0.180   6.947   8.345 -1.2262 -1.6727 -2.7755
  191POPC  H13Y22108   0.059   6.888   8.463 -1.3896  1.5295 -0.5138
  191POPC  C31422109   0.092   7.109   8.469 -0.2209  0.7595  0.6570
  191POPC  H14X22110   0.048   7.104   8.571 -0.1969  0.2248  0.6423
  191POPC  H14Y22111   0.033   7.178   8.405  1.6895  3.5943  1.7278
  191POPC  C31522112   0.240   7.151   8.480 -0.1468  0.3091 -0.7823
  191POPC  H15X22113   0.282   7.146   8.377  0.0733  0.2665 -0.6905
  191POPC  H15Y22114   0.306   7.085   8.541  1.6581  3.8731  1.4312
  191POPC  C31622115   0.257   7.293   8.530  0.6517 -0.2406 -0.2993
  191POPC  H16X22116   0.222   7.298   8.636 -2.1876  0.5228 -1.1686
  191POPC  H16Y22117   0.201   7.365   8.466  0.0790 -1.7248 -1.5315
  191POPC  H16Z22118   0.362   7.328   8.529  0.5932  0.0522  0.9440
  192POPC     N22119   5.561   3.992   6.102 -0.1505 -0.0898 -0.4249
  192POPC   C1222120   5.683   4.062   6.047  0.5066  0.8344 -0.0502
  192POPC  H12A22121   5.660   4.167   6.043 -0.0068  0.7725  1.0317
  192POPC  H12B22122   5.706   4.036   5.944 -1.7867  3.2467 -1.3023
  192POPC   C1322123   5.547   4.009   6.250  0.1432  0.2773  0.1066
  192POPC  H13A22124   5.637   3.980   6.302  0.2997 -0.1590 -0.3962
  192POPC  H13B22125   5.536   4.113   6.276  2.7124  1.6765 -3.5773
  192POPC  H13C22126   5.471   3.943   6.288  0.0379  0.1717 -0.2853
  192POPC   C1422127   5.445   4.049   6.033  0.4165  0.5343 -0.3115
  192POPC  H14A22128   5.449   4.037   5.925  0.5381 -0.4084 -0.2148
  192POPC  H14B22129   5.349   4.017   6.070  1.0169  0.6472  1.3850
  192POPC  H14C22130   5.446   4.155   6.053  0.7264  0.5504 -0.3992
  192POPC   C1522131   5.580   3.849   6.069 -0.1882  0.3340  0.1213
  192POPC  H15A22132   5.603   3.830   5.965 -4.0310 -0.6015 -0.7195
  192POPC  H15B22133   5.491   3.792   6.092 -0.6004  1.3707  1.1617
  192POPC  H15C22134   5.657   3.809   6.134 -2.9686 -2.2085  2.1175
  192POPC   C1122135   5.808   4.046   6.135  0.2372 -0.1918 -0.0617
  192POPC  H11A22136   5.894   4.082   6.074 -0.7097 -0.3455 -1.5302
  192POPC  H11B22137   5.813   3.938   6.160  1.2777  0.4568  2.9587
  192POPC     P22138   5.768   4.267   6.275  0.0715  0.2000 -0.0291
  192POPC   O1322139   5.647   4.278   6.359 -0.4761  0.8315  0.5221
  192POPC   O1422140   5.752   4.326   6.137 -0.1040  0.7444  0.2778
  192POPC   O1222141   5.801   4.112   6.260 -0.1329 -0.4689  0.4524
  192POPC   O1122142   5.889   4.330   6.351  0.5943  0.1237  0.0225
  192POPC    C122143   6.008   4.265   6.386  0.7208  0.0467 -0.5998
  192POPC    HA22144   6.090   4.335   6.360  0.6624  0.5506  0.5201
  192POPC    HB22145   6.027   4.174   6.325  1.2797  1.0164 -1.9014
  192POPC    C222146   6.015   4.238   6.538  0.6526 -0.4272 -0.4413
  192POPC    HS22147   5.911   4.216   6.571  0.0388  0.1509 -1.9127
  192POPC   O2122148   6.070   4.344   6.616 -0.2418 -0.0901 -0.6445
  192POPC   C2122149   6.005   4.464   6.626 -0.3124  0.2351 -0.2044
  192POPC   O2222150   5.894   4.489   6.590  0.4050 -0.1590 -0.3286
  192POPC   C2222151   6.105   4.556   6.688  0.2271  0.1827  0.0688
  192POPC   H2R22152   6.134   4.626   6.607 -1.7057  0.3322 -0.5317
  192POPC   H2S22153   6.192   4.492   6.715 -0.9197 -2.6892 -2.4832
  192POPC    C322154   6.092   4.110   6.571 -0.3305 -0.3591 -0.8481
  192POPC    HX22155   6.180   4.095   6.504  0.2556 -1.0113  0.0473
  192POPC    HY22156   6.033   4.021   6.541  1.4967 -1.7555 -0.4651
  192POPC   O3122157   6.127   4.106   6.712 -0.7274 -0.6297 -0.1031
  192POPC   C3122158   6.063   4.029   6.794 -0.3297 -0.0465  0.0233
  192POPC   O3222159   5.963   3.961   6.775  0.1678 -0.5268  0.3176
  192POPC   C3222160   6.132   4.034   6.935  0.3151 -0.3964  0.6212
  192POPC   H2X22161   6.098   4.117   7.000 -0.9910 -1.6505  1.6252
  192POPC   H2Y22162   6.239   4.049   6.911  0.3037 -0.3182  0.6199
  192POPC   C2322163   6.043   4.646   6.805 -0.0519  0.1931 -0.2371
  192POPC   H3R22164   5.956   4.700   6.764 -1.4428 -2.2865 -0.7530
  192POPC   H3S22165   6.117   4.724   6.832 -1.1146  1.6663 -1.4227
  192POPC   C2422166   5.998   4.567   6.933  0.1098  0.2030  0.4773
  192POPC   H4R22167   5.928   4.485   6.906 -0.4113  0.9487 -0.5375
  192POPC   H4S22168   5.942   4.635   7.002 -1.2806 -1.8042  1.4132
  192POPC   C2522169   6.120   4.513   7.008  0.7510  0.0806  0.3033
  192POPC   H5R22170   6.196   4.593   7.024  0.5749  0.6823 -1.5339
  192POPC   H5S22171   6.164   4.434   6.943  0.7093  0.4949 -0.2361
  192POPC   C2622172   6.090   4.440   7.135  0.0852 -0.1137  0.6197
  192POPC   H6R22173   6.024   4.351   7.131 -0.5621  0.3924 -0.1879
  192POPC   H6S22174   6.031   4.514   7.193 -0.8262 -0.6877  0.4415
  192POPC   C2722175   6.225   4.401   7.202 -1.0191  0.5818 -0.9243
  192POPC   H7R22176   6.307   4.465   7.164  1.5859 -1.3810  1.0722
  192POPC   H7S22177   6.243   4.292   7.185 -0.2651  0.2453  1.6223
  192POPC   C2822178   6.211   4.418   7.358  0.4758  0.3863 -0.1898
  192POPC   H8R22179   6.157   4.329   7.398  0.6716  1.0502  1.6770
  192POPC   H8S22180   6.142   4.505   7.372  1.9446  1.7145 -0.8557
  192POPC   C2922181   6.342   4.440   7.426 -0.4873 -0.1977 -0.2935
  192POPC   H9122182   6.432   4.392   7.386  2.1217  1.9541  2.5276
  192POPC  C21022183   6.372   4.531   7.523 -0.4224 -0.3192 -0.1495
  192POPC  H10122184   6.472   4.534   7.567 -0.4547  0.3726 -0.1001
  192POPC  C21122185   6.274   4.627   7.589  0.3019  0.2301  0.9848
  192POPC  H11R22186   6.176   4.628   7.536 -0.0422 -0.7897  1.5652
  192POPC  H11S22187   6.317   4.728   7.575  3.4633 -1.1270  0.0494
  192POPC  C21222188   6.251   4.610   7.737  0.4808  0.3853 -0.7216
  192POPC  H12R22189   6.225   4.509   7.776  1.0536  1.3473  2.4058
  192POPC  H12S22190   6.165   4.677   7.760 -0.1916 -0.4212 -0.8542
  192POPC  C21322191   6.368   4.657   7.823  0.3557  0.5431 -0.1388
  192POPC  H13R22192   6.406   4.758   7.799 -3.5105  1.8550 -1.4668
  192POPC  H13S22193   6.446   4.580   7.803 -1.1978 -0.7083 -1.6958
  192POPC  C21422194   6.342   4.655   7.977  0.2451 -0.4243 -0.0752
  192POPC  H14R22195   6.306   4.554   8.006  0.3610 -0.5946 -0.5051
  192POPC  H14S22196   6.264   4.731   7.999  1.5631  0.7782  0.5772
  192POPC  C21522197   6.475   4.683   8.051 -0.3170  0.5546  1.0779
  192POPC  H15R22198   6.513   4.785   8.030  2.5262 -0.6291 -0.0267
  192POPC  H15S22199   6.548   4.611   8.009 -1.9855  0.1199 -1.2316
  192POPC  C21622200   6.478   4.662   8.195 -0.3016  0.2819 -0.7030
  192POPC  H16R22201   6.459   4.557   8.227  1.6170 -0.0846 -0.6520
  192POPC  H16S22202   6.397   4.721   8.243 -0.3664  0.2337 -0.7528
  192POPC  C21722203   6.609   4.703   8.255 -0.6372 -0.8304 -0.7372
  192POPC  H17R22204   6.626   4.809   8.228 -0.0046 -0.8763 -0.5267
  192POPC  H17S22205   6.687   4.637   8.210 -0.5293 -1.4158  0.2821
  192POPC  C21822206   6.598   4.676   8.404  0.4650  0.3999 -0.5140
  192POPC  H18R22207   6.564   4.572   8.426  1.1071  0.0820 -1.0056
  192POPC  H18S22208   6.540   4.754   8.458 -1.9912  0.1223 -2.5761
  192POPC  H18T22209   6.700   4.680   8.446  0.6353 -1.7924 -0.6204
  192POPC   C3322210   6.114   3.912   7.027 -0.1970  0.4852  0.3993
  192POPC   H3X22211   6.171   3.822   6.997 -1.2228 -2.0176  4.9284
  192POPC   H3Y22212   6.006   3.884   7.020  0.0332  0.0942 -2.5144
  192POPC   C3422213   6.144   3.947   7.171 -0.4260 -0.7569 -0.4096
  192POPC   H4X22214   6.076   4.033   7.193  1.2333  1.2967 -2.7340
  192POPC   H4Y22215   6.248   3.984   7.176 -0.0457 -1.9792  1.8431
  192POPC   C3522216   6.126   3.832   7.267 -0.5880 -0.5177  0.7681
  192POPC   H5X22217   6.185   3.748   7.226  0.3313  0.1058  0.7846
  192POPC   H5Y22218   6.020   3.799   7.276 -1.6796  1.9437 -1.6378
  192POPC   C3622219   6.188   3.862   7.404  0.0120  0.4219  0.6854
  192POPC   H6X22220   6.133   3.941   7.459 -0.1169  0.4880  0.4637
  192POPC   H6Y22221   6.289   3.905   7.385 -0.1733  0.6070  0.0911
  192POPC   C3722222   6.186   3.736   7.495 -0.0013 -0.9863 -0.6755
  192POPC   H7X22223   6.248   3.656   7.448  0.5787 -1.7164  1.2232
  192POPC   H7Y22224   6.085   3.689   7.501 -0.2718 -0.6663 -2.3173
  192POPC   C3822225   6.244   3.766   7.632 -0.4327 -0.0808 -1.0501
  192POPC   H8X22226   6.223   3.672   7.688  1.4267  0.6784  1.1152
  192POPC   H8Y22227   6.201   3.851   7.689  0.3577 -0.1842 -0.2807
  192POPC   C3922228   6.389   3.786   7.629 -0.4505 -0.0834 -0.0423
  192POPC   H9X22229   6.405   3.886   7.585 -1.2984  0.3956  0.6954
  192POPC   H9Y22230   6.428   3.705   7.564 -0.8594  0.1392 -0.5668
  192POPC  C31022231   6.461   3.769   7.768  0.9001  0.4053 -0.4202
  192POPC  H10X22232   6.422   3.675   7.813  0.7315  0.4667 -0.4342
  192POPC  H10Y22233   6.432   3.854   7.833  3.4984  1.4380 -0.5248
  192POPC  C31122234   6.616   3.761   7.754 -0.6411  1.0146 -0.1759
  192POPC  H11X22235   6.662   3.862   7.745  0.9274  0.5068  1.4875
  192POPC  H11Y22236   6.653   3.699   7.670 -0.6265  0.1479  0.4585
  192POPC  C31222237   6.675   3.689   7.883  0.2321 -0.1723 -0.5928
  192POPC  H12X22238   6.786   3.683   7.877  0.2157  0.4665 -2.1523
  192POPC  H12Y22239   6.647   3.581   7.888  2.7996 -0.9230 -0.7107
  192POPC  C31322240   6.665   3.765   8.021  0.3314  0.1150 -0.2783
  192POPC  H13X22241   6.565   3.810   8.037  0.6976  0.9193 -0.2215
  192POPC  H13Y22242   6.733   3.853   8.027 -1.2009  1.3031  0.4251
  192POPC  C31422243   6.666   3.667   8.139  0.2152  0.4320  0.0312
  192POPC  H14X22244   6.765   3.619   8.152 -0.7204 -1.8515 -0.7152
  192POPC  H14Y22245   6.594   3.584   8.120  1.8089 -1.2217  0.9325
  192POPC  C31522246   6.636   3.728   8.279 -0.0412 -0.2332  1.1486
  192POPC  H15X22247   6.533   3.767   8.269 -0.7167 -2.0966  0.4283
  192POPC  H15Y22248   6.698   3.819   8.292 -1.4112  0.8585  0.2454
  192POPC  C31622249   6.641   3.640   8.397 -0.2506  0.3813  0.3491
  192POPC  H16X22250   6.620   3.696   8.491  0.9278 -1.1588  1.6091
  192POPC  H16Y22251   6.747   3.607   8.411  0.4808  2.3075 -0.4378
  192POPC  H16Z22252   6.567   3.559   8.377 -1.6953  2.4124 -3.4318
  193SOD    SOD22253   2.175   0.587  10.582  0.2511  0.1800  0.0909
  194SOD    SOD22254   1.869   5.979   6.308  0.2995 -0.4323 -0.4975
  195SOD    SOD22255   0.828   6.288   5.988 -0.2478  0.0061  0.0334
  196SOD    SOD22256   0.983   3.078  13.996 -0.5332  0.1478  0.0708
  197SOD    SOD22257   1.612   4.103  10.828  0.2019 -0.1472 -0.1995
  198SOD    SOD22258   5.902   2.321  16.746 -0.4932 -0.1992  0.3417
  199SOD    SOD22259   6.492   6.599  14.710  0.5368  0.3235 -0.2282
  200SOD    SOD22260   5.860   4.180  11.402  0.5399  0.1792 -0.1087
  201SOD    SOD22261   0.901   3.680   0.282  0.4691  0.4340  0.7092
  202SOD    SOD22262   0.846   5.759  14.998 -0.2942 -0.1948  0.1787
  203SOD    SOD22263   3.527   2.161  15.979 -0.0831  0.0428  0.0915
  204SOD    SOD22264   2.938   0.495   0.928  0.2859 -0.0976 -0.0955
  205SOD    SOD22265   2.011   6.720  16.553  0.2100  0.0759 -0.0853
  206SOD    SOD22266   6.179   5.222   1.291 -0.3953  0.2561 -0.2251
  207SOD    SOD22267   5.734   0.205  16.087 -0.3993 -0.5665  0.2540
  208SOD    SOD22268   0.455   2.294   5.324 -0.3409  0.0732  0.2452
  209SOD    SOD22269   1.718   0.949   6.292  0.1054  0.1729  0.0486
  210SOD    SOD22270   4.294   6.286   6.458 -0.4002 -0.1056 -0.5657
  211SOD    SOD22271   0.591   5.233   6.511  0.4933 -0.2007  0.4209
  212SOD    SOD22272   4.931   6.196   1.903  0.1257  0.2545  0.0739
  213SOD    SOD22273   1.689   1.732   4.494 -0.2009  0.3770 -0.2369
  214SOD    SOD22274   4.455   1.429  11.729  0.0973  0.3806  0.1532
  215SOD    SOD22275   1.009   4.618  16.338 -0.0395 -0.4151 -0.0151
  216SOD    SOD22276   5.763   4.193  15.445 -0.7230 -0.1775 -0.3491
  217SOD    SOD22277   0.622   6.047   2.070 -0.3894  0.1084 -0.1718
  218SOD    SOD22278   5.656   4.014  13.262 -0.2748  0.1381  0.6479
  219SOD    SOD22279   5.322   0.297   5.764 -0.2771  0.0432  0.0614
  220SOD    SOD22280   6.744   1.700   2.046 -0.3316  0.0176  0.1263
  221SOD    SOD22281   3.489   2.634  16.329 -0.1318 -0.0257 -0.6020
  222SOD    SOD22282   4.127   6.413  14.331  0.3714  0.3446 -0.0809
  223SOD    SOD22283   2.575   3.829  14.086  0.1684 -0.1225 -0.2322
  224SOD    SOD22284   0.333   4.687   4.462  0.1253 -0.0012  0.1740
  225SOD    SOD22285   1.391   1.427   0.901 -0.3018  0.1270 -0.0179
  226SOD    SOD22286   0.546   1.664   2.668 -0.1998 -0.6437  0.1710
  227SOD    SOD22287   3.990   5.061  13.858  0.3116  0.2870  0.1412
  228SOD    SOD22288   4.456   5.785   1.082  0.2585  0.2939  0.1176
  229SOD    SOD22289   3.159   5.095   4.914  0.4979 -0.2204  0.2429
  230SOD    SOD22290   4.619   1.059  14.383  0.3128 -0.0061 -0.2391
  231SOD    SOD22291   4.317   6.169   2.782 -0.1674  0.1966 -0.1309
  232SOD    SOD22292   1.240   1.326  13.062 -0.2325 -0.4651  0.1948
  233SOD    SOD22293   4.250   4.249  11.685 -0.5181 -0.1106 -0.8902
  234SOD    SOD22294   4.916   5.241  12.093 -0.1564  0.0555  0.2143
  235SOD    SOD22295   3.509   3.596  14.663 -0.2943 -0.4611  0.5691
  236SOD    SOD22296   4.068   1.152   5.971 -0.0226  0.0039 -0.2429
  237SOD    SOD22297   2.656   2.676   2.789 -0.4069  0.1514 -0.2739
  238SOD    SOD22298   0.700   2.093  16.445 -0.1257  0.1369 -0.3833
  239SOD    SOD22299   3.169   0.453  11.084 -0.0203 -0.0624 -0.0053
  240SOD    SOD22300   1.794   1.864  12.396 -0.4784 -0.1383 -0.0435
  241SOD    SOD22301   4.014   1.338  12.409  0.2928  0.3014  0.3376
  242SOD    SOD22302   3.998   6.636   5.338  0.0630  0.1011 -0.1275
  243SOD    SOD22303   3.174   2.408  12.682  0.3469  0.5775 -0.4530
  244SOD    SOD22304   4.731   2.972   4.164 -0.3270  0.0342 -0.4644
  245SOD    SOD22305   4.275   1.546   5.282 -0.1189  0.0045  0.1247
  246SOD    SOD22306   6.208   4.114   0.804  0.0808 -0.3743 -0.1523
  247SOD    SOD22307   1.109   6.716  16.239 -0.1596  0.2812  0.3206
  248SOD    SOD22308   2.241   5.030  13.362  0.2078 -0.5762 -0.1579
  249SOD    SOD22309   1.604   0.688   6.518 -0.9480  0.2352  0.1197
  250SOD    SOD22310   2.579   2.035   0.670 -0.5779 -0.0586 -0.3821
  251SOD    SOD22311   2.997   0.028   5.659  0.0065 -0.1995  0.3290
  252SOD    SOD22312   6.573   3.121   6.133 -0.3304  0.3659 -0.6391
  253SOD    SOD22313   5.881   2.467   3.355  0.3249  0.5881 -0.4639
  254SOD    SOD22314   4.163   3.069   6.345 -0.1496  0.2265  0.4618
  255SOD    SOD22315   2.315   2.355   1.680 -0.4407 -0.1618 -0.1839
  256SOD    SOD22316   0.014   4.401  11.740 -0.0632  0.7612 -0.6019
  257SOD    SOD22317   2.144   0.340   1.053 -0.8052  0.2939 -0.0579
  258SOD    SOD22318   5.676   4.973  12.902 -0.1760  0.4932 -0.1307
  259SOD    SOD22319   1.149   1.655  15.512 -0.2207  0.0807 -0.3967
  260SOD    SOD22320   2.931   1.833  11.585  0.4689  0.1677  0.2704
  261SOD    SOD22321   6.580   0.039  12.589  0.2446  0.3101 -0.2265
  262SOD    SOD22322   5.490   2.877   1.972 -0.1708  0.4015 -0.3537
  263SOD    SOD22323   6.360   6.700  11.467 -0.5129  0.4662 -0.1972
  264SOD    SOD22324   0.721   2.310  15.041  0.5232  0.4463  0.1264
  265SOD    SOD22325   5.150   3.248   0.636 -0.3066 -0.1041 -0.0417
  266SOD    SOD22326   3.605   2.672   2.794  0.5477 -0.1293  0.2555
  267SOD    SOD22327   6.152   4.489  15.973 -0.1970  0.3515  0.5094
  268SOD    SOD22328   3.108   6.250   3.046  0.2042  0.0740 -0.8548
  269SOD    SOD22329   0.704   5.518  11.584 -0.3032 -0.1672  0.0921
  270CLA    CLA22330   0.928   2.501  16.828  0.3568 -0.0260  0.0312
  271CLA    CLA22331   1.730   1.981   2.453  0.3155  0.1415 -0.5320
  272CLA    CLA22332   3.612   2.063  15.742 -0.1686  0.2561 -0.0474
  273CLA    CLA22333   4.176   5.231  11.668 -0.0226  0.0517  0.4144
  274CLA    CLA22334   3.514   2.925   4.772 -0.3203 -0.0692 -0.5123
  275CLA    CLA22335   1.038   1.447  14.650  0.0955 -0.0867 -0.3194
  276CLA    CLA22336   0.062   2.179   5.604  0.7883 -0.1523  0.0546
  277CLA    CLA22337   5.062   0.972   3.590 -0.0996 -0.0115  0.0064
  278CLA    CLA22338   6.105   4.647  13.189  0.0820 -0.1503  0.2334
  279CLA    CLA22339   0.899   2.474   1.329  0.3906  0.3480  0.0249
  280CLA    CLA22340   0.811   0.840   5.125 -0.1692  0.1954 -0.1421
  281CLA    CLA22341   0.651   5.593  14.917  0.0360 -0.0042 -0.0453
  282CLA    CLA22342   2.663   3.636   4.629 -0.1470 -0.1449 -0.0211
  283CLA    CLA22343   0.130   4.859  12.863  0.4143  0.0140 -0.0232
  284CLA    CLA22344   0.302   4.244  17.129  0.0285  0.1428 -0.1677
  285CLA    CLA22345   6.482   6.316   0.480 -0.1794  0.2094 -0.1470
  286CLA    CLA22346   1.733   3.513  15.299 -0.5870 -0.1386  0.1220
  287CLA    CLA22347   5.001   4.896   4.810  0.0738  0.3063  0.0290
  288CLA    CLA22348   1.267   1.471  16.177  0.3322  0.1894  0.0460
  289CLA    CLA22349   5.256   1.881   2.998 -0.2311  0.3985  0.2846
  290CLA    CLA22350   0.970   3.926   4.656  0.1211 -0.2170  0.1270
  291CLA    CLA22351   2.500   4.110  13.343 -0.4353  0.6461  0.4306
  292CLA    CLA22352   5.614   1.096  16.816  0.1625  0.1918 -0.1859
  293CLA    CLA22353   5.054   3.933  15.082  0.3391  0.0766 -0.6492
  294CLA    CLA22354   1.980   1.033   2.749 -0.2556  0.4549 -0.0608
  295CLA    CLA22355   4.902   2.260   1.011 -0.0497  0.2599 -0.1740
  296CLA    CLA22356   1.555   2.717  15.377 -0.1269  0.0732  0.3296
  297CLA    CLA22357   4.538   3.336   2.780  0.5625  0.0762  0.0647
  298CLA    CLA22358   1.716   4.640  13.518 -0.4099  0.4438  0.2867
  299CLA    CLA22359   6.069   0.561  16.201  0.1529  0.2595 -0.0595
  300CLA    CLA22360   3.789   5.966   1.032 -0.0981  0.6064 -0.5426
  301CLA    CLA22361   3.138   1.702  11.491  0.3270  0.5122  0.0119
  302CLA    CLA22362   4.746   2.112  15.386 -0.0423  0.0802 -0.3444
  303CLA    CLA22363   0.575   3.903   0.579 -0.2382 -0.0185  0.3034
  304CLA    CLA22364   6.466   5.171   0.739 -0.0349 -0.2716  0.4916
  305CLA    CLA22365   2.070   5.281  13.019  0.0717  0.3776  0.3095
  306CLA    CLA22366   3.637   3.468   1.096  0.2856  0.3603 -0.3491
  307CLA    CLA22367   4.058   5.446   3.532  0.1217 -0.1260 -0.0777
  308CLA    CLA22368   0.589   4.614   0.084  0.0111 -0.0954 -0.3771
  309CLA    CLA22369   6.174   0.882  13.616  0.2458  0.3051 -0.0558
  310CLA    CLA22370   6.742   2.798  14.406 -0.2912  0.2390 -0.3306
  311CLA    CLA22371   4.660   3.713  12.736  0.1391  0.1063  0.0825
  312CLA    CLA22372   2.650   1.735   1.839 -0.2094  0.1856  0.2751
  313CLA    CLA22373   6.733   2.525   1.923  0.6845  0.0795  0.0532
  314CLA    CLA22374   5.551   2.459   4.472  0.4208 -0.1505  0.2433
  315CLA    CLA22375   1.869   0.734   0.761 -0.2999  0.1791  0.2206
  316CLA    CLA22376   4.278   1.893  13.524 -0.0617 -0.3917 -0.5099
  317CLA    CLA22377   3.336   6.243  16.662  0.6232  0.1627  0.0392
  318CLA    CLA22378   3.014   5.604   0.193  0.0742  0.2629 -0.3517
  319CLA    CLA22379   5.808   2.286   3.889  0.1326 -0.5441  0.3561
  320CLA    CLA22380   4.910   0.920   2.714 -0.3047  0.3340  0.0158
  321CLA    CLA22381   5.330   4.620   0.595  0.1203 -0.1831  0.1774
  322CLA    CLA22382   3.480   5.942  13.690 -0.0187  0.1466 -0.0697
  323TIP3   OH222383   2.738   3.042   4.938  0.0239  0.3764  0.0447
  323TIP3    H122384   2.705   2.995   4.862 -3.1214  1.4598  0.5999
  323TIP3    H222385   2.761   2.973   5.000  0.8086 -0.4731 -1.1485
  324TIP3   OH222386   2.454   6.461   4.539  0.6880 -0.1083 -0.0538
  324TIP3    H122387   2.360   6.469   4.553  0.6430  1.7201 -1.0307
  324TIP3    H222388   2.480   6.383   4.588 -1.2387 -0.3510  0.6440
  325TIP3   OH222389   6.176   2.452   5.943 -0.3699  0.2353 -0.7486
  325TIP3    H122390   6.160   2.389   6.014 -0.5979 -0.8156 -1.6992
  325TIP3    H222391   6.220   2.526   5.986  0.6671 -0.9201  0.2789
  326TIP3   OH222392   3.349   2.302  11.671 -0.1996  0.3140  0.2867
  326TIP3    H122393   3.391   2.228  11.627 -1.7221 -0.2821 -0.2441
  326TIP3    H222394   3.420   2.344  11.720  0.6810 -1.6062  0.7781
  327TIP3   OH222395   0.544   1.685  16.874 -0.9009 -0.3080 -0.0344
  327TIP3    H122396   0.526   1.697  16.967 -0.6961 -0.4841  0.0298
  327TIP3    H222397   0.460   1.699  16.831 -0.8937  0.2571  0.1328
  328TIP3   OH222398   0.139   0.387  16.578 -0.2693 -0.5228  0.4578
  328TIP3    H122399   0.146   0.320  16.510 -3.1016  0.9172 -1.4504
  328TIP3    H222400   0.164   0.468  16.535 -1.2682  0.3111  1.3904
  329TIP3   OH222401   3.374   4.986  17.022 -0.0074  0.5196 -0.5641
  329TIP3    H122402   3.380   4.968  17.116  0.0691 -0.6895 -0.7781
  329TIP3    H222403   3.298   5.043  17.013 -1.6417 -1.4602 -0.0083
  330TIP3   OH222404   6.027   1.484   4.400  0.2715 -0.0344  0.0573
  330TIP3    H122405   5.958   1.525   4.451  2.2637  2.0174  1.2624
  330TIP3    H222406   6.062   1.554   4.344  0.0886 -1.5160 -2.0510
  331TIP3   OH222407   2.276   6.712  14.179 -0.2084 -0.2433 -0.3860
  331TIP3    H122408   2.231   6.672  14.105  0.3558 -0.3410 -0.6845
  331TIP3    H222409   2.210   6.717  14.248 -0.7704 -0.0458 -0.9319
  332TIP3   OH222410   0.649   6.513  11.259  0.0256 -0.5519  0.0916
  332TIP3    H122411   0.730   6.499  11.211  0.9387  0.6153  1.2100
  332TIP3    H222412   0.590   6.552  11.195  0.3873 -1.2543 -0.6945
  333TIP3   OH222413   3.515   0.604  12.296  0.4370  0.4855  0.8030
  333TIP3    H122414   3.447   0.656  12.339  0.2458  1.2104 -0.3440
  333TIP3    H222415   3.597   0.637  12.333  0.1908 -0.5805  2.3968
  334TIP3   OH222416   2.106   4.827  17.046  0.2449 -0.4885 -0.1151
  334TIP3    H122417   2.198   4.838  17.068  0.0482  0.8915  0.1312
  334TIP3    H222418   2.103   4.749  16.990  1.5820 -0.4032 -0.3330
  335TIP3   OH222419   5.932   4.262  11.211 -0.1941  0.2525 -0.2362
  335TIP3    H122420   6.026   4.265  11.198 -0.1565  1.5697  0.1796
  335TIP3    H222421   5.895   4.308  11.135 -0.4827  0.0403 -0.2287
  336TIP3   OH222422   3.389   6.668   4.537 -0.1246 -0.2484  0.0928
  336TIP3    H122423   3.461   6.607   4.520  0.8565  0.6869  0.7860
  336TIP3    H222424   3.430   6.740   4.585 -1.4020  0.6160 -0.0905
  337TIP3   OH222425   2.564   3.464  12.269 -0.0362  0.1427  0.0781
  337TIP3    H122426   2.550   3.478  12.362 -0.0173  1.1280 -0.0563
  337TIP3    H222427   2.580   3.552  12.233 -1.5890 -0.0238 -1.1213
  338TIP3   OH222428   4.223   3.030   6.575  0.4071 -0.1720  0.5175
  338TIP3    H122429   4.140   2.983   6.580  1.1389 -1.9064 -1.6603
  338TIP3    H222430   4.290   2.962   6.587  1.5056  0.5761 -0.9468
  339TIP3   OH222431   0.093   1.938  10.869 -0.0835 -0.1063  0.4704
  339TIP3    H122432   0.044   1.858  10.886 -0.0196 -0.3763 -0.5169
  339TIP3    H222433   0.181   1.908  10.846  0.7355  0.3906  2.6781
  340TIP3   OH222434   0.545   6.677  14.671 -0.1093  0.3477  0.1022
  340TIP3    H122435   0.486   6.604  14.656 -0.2708  0.4137  0.3942
  340TIP3    H222436   0.600   6.681  14.593  0.4190 -0.5705  0.3998
  341TIP3   OH222437   2.831   0.125  11.569  0.0746  0.2710 -0.7416
  341TIP3    H122438   2.782   0.135  11.487 -1.1752  0.1368 -0.0362
  341TIP3    H222439   2.888   0.050  11.554  1.3702  1.4752 -2.1861
  342TIP3   OH222440   5.149   0.841   4.951 -0.0147 -0.3818 -0.9018
  342TIP3    H122441   5.146   0.870   5.042  2.1871  0.7052 -1.1200
  342TIP3    H222442   5.229   0.788   4.946 -0.2266 -0.5980 -2.1766
  343TIP3   OH222443   5.526   2.509  11.705 -0.1472 -0.1447 -0.9163
  343TIP3    H122444   5.606   2.522  11.756 -0.8450 -0.8296  0.3991
  343TIP3    H222445   5.513   2.593  11.660  1.3910 -0.0779 -1.3048
  344TIP3   OH222446   5.534   4.420  14.784  0.4076 -0.3762  0.8324
  344TIP3    H122447   5.576   4.501  14.756 -2.0050  0.6637 -0.0537
  344TIP3    H222448   5.515   4.433  14.876 -0.2329  0.2076  0.6231
  345TIP3   OH222449   5.803   5.486  11.285 -0.3046  0.4051 -0.3555
  345TIP3    H122450   5.877   5.508  11.228 -0.3303  0.2471 -0.4490
  345TIP3    H222451   5.793   5.563  11.342 -1.6079  1.4767 -1.9405
  346TIP3   OH222452   5.792   4.897   4.278 -0.1888  0.6661 -0.1283
  346TIP3    H122453   5.849   4.874   4.352 -0.6248  0.5622  0.1761
  346TIP3    H222454   5.853   4.917   4.207  0.2276 -0.2329 -0.0442
  347TIP3   OH222455   4.377   3.612  12.848 -0.3505  0.8591  0.7635
  347TIP3    H122456   4.452   3.649  12.802 -0.9987  1.5800  0.2562
  347TIP3    H222457   4.415   3.562  12.921  0.7318 -0.8188 -0.8758
  348TIP3   OH222458   1.567   1.482   2.240 -0.1992  0.0932  0.2016
  348TIP3    H122459   1.579   1.548   2.309 -0.4695  1.6213 -1.1525
  348TIP3    H222460   1.625   1.411   2.265  1.6533  1.6915  0.6930
  349TIP3   OH222461   4.303   6.540  15.801  0.3023  0.2007 -0.0145
  349TIP3    H122462   4.247   6.556  15.724 -0.7134 -0.4879  0.5482
  349TIP3    H222463   4.346   6.623  15.817  0.6785  0.3064 -1.4417
  350TIP3   OH222464   4.255   6.286   3.875 -0.0309  0.2317  0.2332
  350TIP3    H122465   4.202   6.345   3.928 -0.2765 -0.2842  0.5639
  350TIP3    H222466   4.242   6.316   3.785 -1.0919 -0.0559  0.2850
  351TIP3   OH222467   6.174   0.606  15.917 -0.2825 -0.1324 -0.1476
  351TIP3    H122468   6.111   0.567  15.978  0.0372 -0.5647 -0.0883
  351TIP3    H222469   6.201   0.688  15.959 -0.1894 -0.3472  0.2209
  352TIP3   OH222470   4.739   0.796   1.253 -0.3782  0.3902 -0.6637
  352TIP3    H122471   4.776   0.713   1.224 -0.7512  0.4895 -1.4380
  352TIP3    H222472   4.699   0.834   1.175 -0.4770  1.1585 -0.2534
  353TIP3   OH222473   2.294   4.658   2.634 -0.0761 -0.1693 -0.4454
  353TIP3    H122474   2.301   4.745   2.672  1.2624 -0.7945  0.8782
  353TIP3    H222475   2.251   4.671   2.549  1.4324  1.9715 -0.9522
  354TIP3   OH222476   3.054   1.508  14.792 -0.0820  0.1196  0.1057
  354TIP3    H122477   2.969   1.508  14.835  1.3582 -0.8286  3.2500
  354TIP3    H222478   3.104   1.577  14.836  0.8099  0.6942 -1.6996
  355TIP3   OH222479   4.284   1.120  17.004 -0.0153 -0.7683 -0.8570
  355TIP3    H122480   4.242   1.197  17.042 -0.7280 -0.0988 -2.9138
  355TIP3    H222481   4.212   1.060  16.985  0.2863 -0.9152 -1.5441
  356TIP3   OH222482   5.196   4.188   3.883 -0.4413  0.1585  0.0327
  356TIP3    H122483   5.128   4.256   3.882  0.5511  1.1964 -0.0431
  356TIP3    H222484   5.181   4.139   3.964 -1.9956 -0.4046 -0.5756
  357TIP3   OH222485   1.204   4.154   3.283 -0.3146 -0.7162 -0.2783
  357TIP3    H122486   1.110   4.153   3.297 -0.0344 -0.7028  1.9995
  357TIP3    H222487   1.241   4.122   3.366  1.6905 -0.3600 -0.9704
  358TIP3   OH222488   0.657   2.645   5.063  0.0722  0.0173 -0.0019
  358TIP3    H122489   0.625   2.664   4.974  0.7184  1.2769  0.0255
  358TIP3    H222490   0.610   2.707   5.118  1.8071  1.2206  0.1636
  359TIP3   OH222491   3.636   2.909  13.306  0.4553 -0.1652 -0.3514
  359TIP3    H122492   3.719   2.919  13.351  1.4526  0.8066 -2.2767
  359TIP3    H222493   3.578   2.973  13.347  0.4755 -1.1184  1.2665
  360TIP3   OH222494   2.544   1.225   3.383 -0.1406 -0.2060  0.7778
  360TIP3    H122495   2.516   1.281   3.310 -1.1238 -0.2323  1.1173
  360TIP3    H222496   2.638   1.215   3.371  0.3645  2.7185  1.4892
  361TIP3   OH222497   1.001   3.249   2.007  0.4661  0.3965 -0.0802
  361TIP3    H122498   1.015   3.155   2.020  1.7964  0.4586 -0.8667
  361TIP3    H222499   1.008   3.287   2.094  1.1308 -0.0943  0.0848
  362TIP3   OH222500   0.889   4.939   1.184 -0.1252  0.2148 -0.5310
  362TIP3    H122501   0.932   4.909   1.264  0.3887 -0.8455 -1.1818
  362TIP3    H222502   0.806   4.892   1.183  0.9923 -1.9350 -1.9295
  363TIP3   OH222503   4.750   5.513  13.646 -0.8055 -0.1876 -0.2112
  363TIP3    H122504   4.749   5.592  13.700  1.0760  0.0275 -0.4369
  363TIP3    H222505   4.676   5.525  13.586 -0.4657  1.5244 -0.3646
  364TIP3   OH222506   5.280   3.349   5.958  0.3550  0.1913 -0.3257
  364TIP3    H122507   5.221   3.278   5.983 -0.7230  1.8100  2.1064
  364TIP3    H222508   5.227   3.404   5.899  0.1068  0.6070  0.2822
  365TIP3   OH222509   6.755   3.617   3.300 -0.1126 -0.0138 -0.1470
  365TIP3    H122510   6.739   3.705   3.264 -0.7847  0.2122  0.6507
  365TIP3    H222511   6.818   3.631   3.370  0.1751 -0.2523 -0.3563
  366TIP3   OH222512   1.970   4.168   3.989  0.1838 -0.1185 -0.0363
  366TIP3    H122513   2.061   4.176   3.959  0.3673 -0.4265  0.4324
  366TIP3    H222514   1.925   4.123   3.917  0.6650 -1.0271  0.2131
  367TIP3   OH222515   5.958   6.162   6.394 -0.0280  0.4205  0.2125
  367TIP3    H122516   5.881   6.218   6.407  0.2550  0.8095  0.2456
  367TIP3    H222517   6.026   6.223   6.367  0.1173 -0.0050 -0.3747
  368TIP3   OH222518   4.888   5.822   5.775  0.3485 -0.8431 -0.3713
  368TIP3    H122519   4.924   5.910   5.780  0.2598 -0.7772 -0.9104
  368TIP3    H222520   4.920   5.787   5.692 -0.3578 -0.9953 -0.5796
  369TIP3   OH222521   0.406   3.974  13.854  0.5429  0.2374  0.1792
  369TIP3    H122522   0.405   4.069  13.851 -0.5507  0.2810  1.0167
  369TIP3    H222523   0.347   3.952  13.926  3.4877 -0.9933  2.4436
  370TIP3   OH222524   5.518   1.992  12.544  0.7479  0.1418 -0.4845
  370TIP3    H122525   5.435   2.029  12.513 -0.4245 -0.7184  1.3973
  370TIP3    H222526   5.554   1.947  12.468 -1.7330 -1.5141 -0.8045
  371TIP3   OH222527   5.382   0.212   1.643  0.2086 -0.0296  0.8489
  371TIP3    H122528   5.362   0.142   1.580 -0.5395  2.3426 -1.7769
  371TIP3    H222529   5.298   0.256   1.657  0.6147  0.2322  2.6201
  372TIP3   OH222530   2.245   5.066   1.633  0.5302  0.4274 -0.0862
  372TIP3    H122531   2.338   5.043   1.628  0.2537 -0.3678 -2.5214
  372TIP3    H222532   2.204   4.991   1.675  0.9548  0.8249  1.0984
  373TIP3   OH222533   3.121   0.654  14.859 -0.9879  0.7561 -0.2139
  373TIP3    H122534   3.199   0.706  14.842 -0.3107 -0.3010 -0.4388
  373TIP3    H222535   3.116   0.593  14.785 -1.2915 -0.0360  0.4421
  374TIP3   OH222536   3.837   2.973  14.904  0.6945 -0.0431  0.0914
  374TIP3    H122537   3.912   2.931  14.946 -0.2790 -1.8171  0.1368
  374TIP3    H222538   3.791   2.901  14.860  0.1647  1.3243 -1.7017
  375TIP3   OH222539   6.455   1.129  10.526  0.1463  0.2356 -0.1608
  375TIP3    H122540   6.488   1.074  10.598 -0.0993 -0.4400 -0.5550
  375TIP3    H222541   6.475   1.218  10.553 -0.4599  0.0339  1.0256
  376TIP3   OH222542   2.908   6.134  12.884  0.0588  0.1450 -0.1166
  376TIP3    H122543   2.929   6.221  12.919  1.3066 -1.1302  2.6259
  376TIP3    H222544   2.869   6.087  12.958  0.5696 -2.0115 -1.1288
  377TIP3   OH222545   0.695   3.937   6.434  0.2735  0.1621 -0.0439
  377TIP3    H122546   0.716   3.935   6.527  1.2186  0.2530 -0.2435
  377TIP3    H222547   0.643   3.859   6.419 -0.4476  0.4894  0.6855
  378TIP3   OH222548   1.993   1.284   2.216  0.1342 -0.2750  0.5337
  378TIP3    H122549   2.046   1.214   2.252  1.2686  1.1399  1.7470
  378TIP3    H222550   2.017   1.362   2.267 -2.2379  0.6877  0.3266
  379TIP3   OH222551   6.033   0.166  12.056 -0.2838  0.6978 -0.0931
  379TIP3    H122552   5.938   0.173  12.043 -0.1483  1.7459 -0.6305
  379TIP3    H222553   6.055   0.241  12.110 -0.1010 -0.9316  2.2450
  380TIP3   OH222554   1.056   6.792   1.237 -0.1444  0.3059 -0.4540
  380TIP3    H122555   0.997   6.858   1.274  0.5725  1.6307 -1.5576
  380TIP3    H222556   1.128   6.843   1.198  1.0978 -1.1948 -0.2465
  381TIP3   OH222557   1.974   0.221  16.904 -0.1215 -0.1160 -0.0540
  381TIP3    H122558   2.057   0.175  16.889 -0.3828 -0.5389 -0.2136
  381TIP3    H222559   1.970   0.287  16.835  0.9821  1.1988  1.0731
  382TIP3   OH222560   0.717   4.196   3.719 -0.1964  0.0382  0.1610
  382TIP3    H122561   0.801   4.242   3.718 -0.0138 -0.1944 -2.5820
  382TIP3    H222562   0.665   4.238   3.651 -1.6960 -0.9018  0.6746
  383TIP3   OH222563   1.155   6.682   0.701  0.8402  0.4782  0.1600
  383TIP3    H122564   1.228   6.743   0.699  1.2940 -0.0700 -0.4783
  383TIP3    H222565   1.174   6.620   0.631  0.7356 -0.7927  1.2192
  384TIP3   OH222566   4.844   0.274   4.760 -0.3805 -0.1543  0.1446
  384TIP3    H122567   4.900   0.307   4.690  0.7153  0.9366  1.4745
  384TIP3    H222568   4.904   0.231   4.821 -1.1529 -0.0364  1.0139
  385TIP3   OH222569   2.374   3.249   3.384 -0.4363  0.0293  0.6963
  385TIP3    H122570   2.440   3.253   3.316 -1.1420  1.3981  0.0433
  385TIP3    H222571   2.412   3.297   3.457 -1.1323  1.8737 -0.1033
  386TIP3   OH222572   1.330   3.072  16.615 -0.5641 -0.1301  0.3130
  386TIP3    H122573   1.363   2.983  16.631 -0.2628 -0.3110 -1.1800
  386TIP3    H222574   1.284   3.065  16.531 -0.4069  1.1676  0.1064
  387TIP3   OH222575   4.168   1.878   6.407 -0.3102  0.0221  0.5482
  387TIP3    H122576   4.080   1.849   6.383 -0.2208  0.0052  0.2358
  387TIP3    H222577   4.221   1.798   6.403  0.5215  0.5892 -2.9834
  388TIP3   OH222578   6.701   0.717  15.871  0.4044  0.5071  0.1275
  388TIP3    H122579   6.622   0.685  15.828  0.0325  0.6009  0.7301
  388TIP3    H222580   6.754   0.752  15.800 -0.5344  1.3664 -0.1754
  389TIP3   OH222581   3.002   1.915   6.033  0.3561 -0.1767 -0.3684
  389TIP3    H122582   3.014   2.010   6.022  2.3338 -0.4918 -1.4564
  389TIP3    H222583   3.040   1.877   5.953  0.7241 -1.9354  0.5958
  390TIP3   OH222584   0.307   6.495   6.444  0.0610 -0.2741  0.4049
  390TIP3    H122585   0.297   6.400   6.436  0.6798 -0.5195  2.1134
  390TIP3    H222586   0.228   6.531   6.405 -1.6663 -1.6442  2.4176
  391TIP3   OH222587   1.327   1.063   2.641 -0.4406  0.0456 -0.6951
  391TIP3    H122588   1.244   1.056   2.592 -0.8260 -1.9440  0.1355
  391TIP3    H222589   1.390   1.095   2.577 -1.2538 -1.0784 -2.1186
  392TIP3   OH222590   0.271   3.268  15.834  0.1812  0.4733  0.0832
  392TIP3    H122591   0.244   3.276  15.743 -1.0782  2.0930  0.5524
  392TIP3    H222592   0.201   3.218  15.876  0.3341  0.4581  0.3248
  393TIP3   OH222593   1.312   2.584  14.074 -0.5753  0.2906 -1.0293
  393TIP3    H122594   1.245   2.518  14.092  0.3954 -0.2463  0.7594
  393TIP3    H222595   1.272   2.667  14.103 -0.9890  0.1854 -1.2892
  394TIP3   OH222596   2.154   4.584  10.552  0.1597  0.3307 -0.3318
  394TIP3    H122597   2.176   4.635  10.630  1.1841  0.9134 -0.9843
  394TIP3    H222598   2.061   4.601  10.539  0.1737  0.9286  0.2555
  395TIP3   OH222599   3.941   6.313   5.872  0.2073  0.0257 -0.0250
  395TIP3    H122600   4.017   6.317   5.930 -0.4816  1.5248  0.8257
  395TIP3    H222601   3.953   6.387   5.812  0.2278 -0.7051 -0.9432
  396TIP3   OH222602   0.265   4.575  16.052  0.2382  0.4431  0.1218
  396TIP3    H122603   0.298   4.650  16.003 -1.2983  1.2444  0.2412
  396TIP3    H222604   0.313   4.577  16.135 -0.7324  2.1754  0.7001
  397TIP3   OH222605   5.621   2.577  15.697  0.1466 -0.0253  0.2320
  397TIP3    H122606   5.629   2.599  15.790  1.2203 -0.0870  0.1755
  397TIP3    H222607   5.562   2.643  15.661  0.9050  0.9092  0.6696
  398TIP3   OH222608   3.132   0.492   5.975 -0.4255  0.3423 -0.5889
  398TIP3    H122609   3.071   0.550   6.021 -1.5065 -0.1653 -1.3189
  398TIP3    H222610   3.156   0.540   5.896  0.8403  0.9013  0.1030
  399TIP3   OH222611   0.819   6.193  13.914 -0.2420 -0.5245  0.3245
  399TIP3    H122612   0.803   6.257  13.844  2.8790 -0.0901 -0.1671
  399TIP3    H222613   0.863   6.244  13.983 -1.3307 -1.3861  1.7235
  400TIP3   OH222614   3.958   2.857   0.554  0.3398  0.4870 -0.2957
  400TIP3    H122615   4.048   2.839   0.528 -0.0064  0.0961 -1.2986
  400TIP3    H222616   3.937   2.941   0.513  0.5304  1.0324  0.6965
  401TIP3   OH222617   1.039   5.079   0.776  0.4349 -0.3710  0.1894
  401TIP3    H122618   1.076   5.083   0.864 -1.3362 -0.6531  0.9820
  401TIP3    H222619   1.094   5.016   0.729  1.0310 -0.6709  1.2653
  402TIP3   OH222620   4.905   5.536  14.831  0.4990 -0.1345  0.2766
  402TIP3    H122621   4.969   5.520  14.761 -0.2222  0.5136 -0.5527
  402TIP3    H222622   4.913   5.460  14.888  3.4703  0.8310  1.3803
  403TIP3   OH222623   2.147   0.228  15.623 -0.0944  0.3454  0.9027
  403TIP3    H122624   2.231   0.274  15.623 -0.4362  1.0209  2.1326
  403TIP3    H222625   2.094   0.276  15.687 -0.5114 -1.6850  2.1700
  404TIP3   OH222626   3.875   6.587   5.690 -0.0463  0.1818 -0.3922
  404TIP3    H122627   3.925   6.547   5.618 -0.9781 -1.2853 -0.2606
  404TIP3    H222628   3.896   6.680   5.684  2.4800 -0.3085 -0.5159
  405TIP3   OH222629   5.999   6.572   3.222 -0.1076 -0.5608 -0.2620
  405TIP3    H122630   5.967   6.657   3.252 -0.1310 -0.1866 -1.2950
  405TIP3    H222631   6.034   6.589   3.134  0.1980 -1.5516 -0.3475
  406TIP3   OH222632   3.335   2.683  16.869  0.3367  0.1217 -1.0741
  406TIP3    H122633   3.273   2.675  16.797  0.5502  3.1287 -1.7127
  406TIP3    H222634   3.404   2.620  16.848 -1.2704 -1.6005 -1.5563
  407TIP3   OH222635   3.553   6.226  16.413 -0.3539 -0.1671  0.3831
  407TIP3    H122636   3.503   6.148  16.389 -0.9603  0.2529  0.2567
  407TIP3    H222637   3.516   6.254  16.496 -0.6256  0.3841  0.0856
  408TIP3   OH222638   5.759   3.139  15.215  0.5232 -0.0619  0.4021
  408TIP3    H122639   5.835   3.101  15.170  1.8701  3.3452 -0.5690
  408TIP3    H222640   5.687   3.130  15.152  1.6823  1.9611 -1.3827
  409TIP3   OH222641   5.591   6.623   0.265  0.8148 -1.3630 -0.3204
  409TIP3    H122642   5.511   6.675   0.275  1.7679 -0.0754  0.9787
  409TIP3    H222643   5.582   6.552   0.330  0.3270 -1.7652 -0.8224
  410TIP3   OH222644   1.444   5.676   1.385  0.1545  0.3594 -0.3956
  410TIP3    H122645   1.481   5.728   1.315 -0.4478  1.1184 -0.1551
  410TIP3    H222646   1.520   5.652   1.439  0.7093 -0.7355 -1.5991
  411TIP3   OH222647   4.920   3.888   5.612 -0.6726 -0.0303 -0.2165
  411TIP3    H122648   5.015   3.895   5.619 -0.8089  1.3411  0.6197
  411TIP3    H222649   4.905   3.865   5.520  0.4440  0.2744 -0.4974
  412TIP3   OH222650   5.115   2.163  15.202 -0.0483  0.3311 -0.3139
  412TIP3    H122651   5.080   2.251  15.185  2.0965  1.0081 -1.5691
  412TIP3    H222652   5.037   2.107  15.205 -1.6871  2.5009  2.6015
  413TIP3   OH222653   5.345   3.763  14.835 -0.4726  0.1690 -0.5623
  413TIP3    H122654   5.390   3.746  14.918  0.0148 -0.2501 -0.9074
  413TIP3    H222655   5.289   3.838  14.853  2.1834  2.3508 -0.7460
  414TIP3   OH222656   3.080   2.512   1.897 -0.3343  0.0337  0.0568
  414TIP3    H122657   3.059   2.604   1.880 -0.9667  0.3741  2.2916
  414TIP3    H222658   3.174   2.505   1.881 -0.0043  1.4380  1.1187
  415TIP3   OH222659   5.575   0.251  11.501  0.1462 -0.0755  0.6202
  415TIP3    H122660   5.572   0.278  11.592 -2.6702 -2.2095  1.2979
  415TIP3    H222661   5.488   0.271  11.467  0.7151 -0.5176 -1.2265
  416TIP3   OH222662   4.199   1.553   2.820  0.2589  0.3126 -0.3096
  416TIP3    H122663   4.161   1.641   2.817 -0.2225  0.1070 -0.3574
  416TIP3    H222664   4.133   1.500   2.864  0.4209 -0.0883 -0.5408
  417TIP3   OH222665   2.084   2.747   1.753 -0.1414  0.2218  0.0735
  417TIP3    H122666   2.024   2.684   1.792 -1.6378  0.4852 -1.6837
  417TIP3    H222667   2.132   2.784   1.827 -2.5242  0.3917  1.6283
  418TIP3   OH222668   3.369   2.653   2.153  0.3712 -0.1293  0.5685
  418TIP3    H122669   3.282   2.692   2.159 -0.3242 -1.4107 -0.6533
  418TIP3    H222670   3.428   2.723   2.180 -1.0265  0.7461  1.4818
  419TIP3   OH222671   4.047   5.136  13.131 -0.1225  0.0473 -0.0530
  419TIP3    H122672   4.111   5.191  13.085 -0.8746 -0.0350 -1.2274
  419TIP3    H222673   3.993   5.198  13.181 -1.7227  0.5544 -2.2919
  420TIP3   OH222674   5.508   2.079  13.247  0.0987  0.2879  0.2192
  420TIP3    H122675   5.505   2.129  13.165 -0.0995 -0.9396 -0.5347
  420TIP3    H222676   5.501   1.988  13.221  0.0211 -0.1361  1.6148
  421TIP3   OH222677   1.172   4.239  12.531 -0.4327 -0.2380  0.5659
  421TIP3    H122678   1.250   4.290  12.511 -0.8977  0.4919  0.5984
  421TIP3    H222679   1.185   4.156  12.485  1.1241 -0.7860  1.9268
  422TIP3   OH222680   0.508   0.572  13.184 -0.3109  0.1055 -0.0989
  422TIP3    H122681   0.430   0.523  13.210 -1.2405  0.0322 -2.6569
  422TIP3    H222682   0.473   0.647  13.135  1.2110  0.7599 -0.2373
  423TIP3   OH222683   1.999   1.350   6.351 -0.4013 -0.3278 -0.0488
  423TIP3    H122684   1.911   1.386   6.336 -1.5664 -1.7924  2.4919
  423TIP3    H222685   2.054   1.426   6.368 -1.8092  0.5035  0.9621
  424TIP3   OH222686   6.674   5.016   5.198  0.1183 -0.0528  0.1818
  424TIP3    H122687   6.597   5.037   5.145  0.5184  0.9885 -0.0185
  424TIP3    H222688   6.648   4.940   5.250 -0.8620 -0.0356 -0.2688
  425TIP3   OH222689   4.257   0.663  14.934 -0.0628  0.1549 -0.1411
  425TIP3    H122690   4.315   0.625  15.000 -1.2047  0.2055  0.9223
  425TIP3    H222691   4.281   0.755  14.930  0.5410 -0.0107 -0.3735
  426TIP3   OH222692   6.135   2.532   2.743 -0.3585 -0.3908 -0.6313
  426TIP3    H122693   6.145   2.438   2.730 -0.9982 -0.6476  0.5375
  426TIP3    H222694   6.055   2.555   2.697 -0.5814 -0.5635 -0.3351
  427TIP3   OH222695   5.271   2.834   5.793 -0.0660 -0.1249  0.0946
  427TIP3    H122696   5.235   2.837   5.881  0.0379 -0.2002  0.1404
  427TIP3    H222697   5.356   2.791   5.803 -0.6887 -1.5258 -0.2537
  428TIP3   OH222698   4.534   2.759  10.639 -0.0376 -0.2124  0.0484
  428TIP3    H122699   4.614   2.804  10.666 -0.3241 -0.0394  0.6421
  428TIP3    H222700   4.493   2.818  10.577  1.3079 -1.2130 -1.9010
  429TIP3   OH222701   3.253   6.143   5.472  0.0976 -0.6882  0.7659
  429TIP3    H122702   3.259   6.048   5.462  2.0594 -0.6985  1.6516
  429TIP3    H222703   3.324   6.166   5.532 -1.2807  1.1709  1.8132
  430TIP3   OH222704   4.771   1.037   6.248  0.1729  0.0126 -0.2715
  430TIP3    H122705   4.712   1.103   6.212  0.1784 -0.0775 -0.4473
  430TIP3    H222706   4.828   1.086   6.307 -1.3310 -0.2004  1.4475
  431TIP3   OH222707   1.923   3.803   1.600 -0.1426  0.4348  0.2450
  431TIP3    H122708   1.934   3.889   1.640  0.9986 -0.0089  0.9489
  431TIP3    H222709   1.919   3.743   1.675  0.5304 -0.2657 -0.2685
  432TIP3   OH222710   0.544   0.242  13.511  0.4632 -0.2587 -0.7721
  432TIP3    H122711   0.472   0.192  13.473 -1.1643  0.2126  1.4873
  432TIP3    H222712   0.569   0.193  13.588  0.7524  0.9528 -0.0678
  433TIP3   OH222713   1.661   3.919  16.324  0.2706 -0.2761  0.7140
  433TIP3    H122714   1.739   3.967  16.298 -1.2107  1.1089 -1.5586
  433TIP3    H222715   1.647   3.856  16.253 -1.5471  0.6446  0.1963
  434TIP3   OH222716   4.076   5.656  13.109  0.1778  0.9664 -0.4411
  434TIP3    H122717   4.011   5.621  13.048  0.4693  0.8659 -0.6952
  434TIP3    H222718   4.024   5.687  13.183  0.0078 -2.5290  1.1372
  435TIP3   OH222719   5.057   1.032   2.969 -0.1822 -0.0977 -0.2267
  435TIP3    H122720   5.020   0.988   2.893  1.8388  0.0759 -1.3819
  435TIP3    H222721   5.023   1.122   2.964 -0.9008 -0.3691 -0.3003
  436TIP3   OH222722   0.733   6.025  12.098  0.2602  0.5157  0.1572
  436TIP3    H122723   0.818   5.983  12.092 -0.5221 -1.1950  0.2999
  436TIP3    H222724   0.726   6.055  12.189  0.5959  0.4114  0.2152
  437TIP3   OH222725   1.053   1.524  12.339 -0.8993 -0.1834 -0.1346
  437TIP3    H122726   1.018   1.484  12.419 -0.5016 -2.0085 -0.8098
  437TIP3    H222727   1.103   1.599  12.369 -2.2671  0.2624  1.1638
  438TIP3   OH222728   2.636   3.895   3.714 -0.3469 -0.4634  0.4563
  438TIP3    H122729   2.712   3.856   3.670 -0.1695 -1.7096  1.7859
  438TIP3    H222730   2.668   3.979   3.746  0.2239 -0.5967  0.2500
  439TIP3   OH222731   4.316   3.226  14.355  0.4071 -0.0470  0.3946
  439TIP3    H122732   4.224   3.213  14.334  0.1078  1.2359  0.8324
  439TIP3    H222733   4.316   3.300  14.416  1.5901 -0.9705  1.5863
  440TIP3   OH222734   2.021   3.619   5.689 -0.0370  0.2758 -0.3788
  440TIP3    H122735   1.977   3.657   5.613  0.5805 -1.7631 -1.8313
  440TIP3    H222736   2.099   3.577   5.654 -0.5342 -2.0869  1.0744
  441TIP3   OH222737   1.524   0.022   1.986 -0.2690 -0.6101 -0.6999
  441TIP3    H122738   1.448  -0.035   1.999 -0.5817  0.1316  0.8714
  441TIP3    H222739   1.576   0.013   2.066  1.0131 -0.6400 -1.5014
  442TIP3   OH222740   0.297   1.418   4.536  0.0007 -1.1482  0.1390
  442TIP3    H122741   0.222   1.450   4.486  0.8896 -1.0973 -1.2175
  442TIP3    H222742   0.301   1.324   4.517  0.6317 -1.0406 -0.3220
  443TIP3   OH222743   3.487   5.314  15.906 -0.4400  0.1583 -0.0968
  443TIP3    H122744   3.485   5.327  15.811 -1.3403 -2.3523 -0.5120
  443TIP3    H222745   3.493   5.402  15.943 -2.7541  1.4180 -2.4230
  444TIP3   OH222746   3.132   6.784   5.257 -0.1710 -0.4701  0.6870
  444TIP3    H122747   3.135   6.834   5.175  1.3101 -0.1401  0.9173
  444TIP3    H222748   3.045   6.800   5.292 -0.0332  1.2303  0.3038
  445TIP3   OH222749   2.571   1.234  15.660  0.5067 -0.1255 -0.5203
  445TIP3    H122750   2.581   1.257  15.568  1.6668 -0.3084 -0.4566
  445TIP3    H222751   2.492   1.280  15.688  0.2427  0.0737 -1.5560
  446TIP3   OH222752   1.084   3.296   5.594  0.0684 -0.1619  0.2820
  446TIP3    H122753   1.108   3.384   5.565  0.4371 -0.3576 -0.0145
  446TIP3    H222754   1.035   3.259   5.520 -0.6006  0.0096  0.6390
  447TIP3   OH222755   4.127   6.728  14.811 -0.4948  0.1013 -0.2428
  447TIP3    H122756   4.107   6.814  14.772 -0.4258  0.6727  0.9401
  447TIP3    H222757   4.168   6.749  14.895 -0.4067 -1.1003  0.0274
  448TIP3   OH222758   1.973   2.218   6.198 -0.7953  0.4538  0.3115
  448TIP3    H122759   1.926   2.266   6.130 -0.5457  1.3048  0.7264
  448TIP3    H222760   1.953   2.126   6.181  0.8637  0.4512 -2.1426
  449TIP3   OH222761   0.580   5.181   4.030 -0.1124 -0.5097  0.0264
  449TIP3    H122762   0.627   5.113   4.078  2.9741  0.3823 -1.4393
  449TIP3    H222763   0.642   5.254   4.026 -1.4584  0.6114 -2.5012
  450TIP3   OH222764   1.379   3.032   0.731 -0.4310  0.2430  0.1299
  450TIP3    H122765   1.443   3.100   0.753  2.0617 -1.4931 -1.3449
  450TIP3    H222766   1.369   2.982   0.812 -0.6667  1.0755  0.6272
  451TIP3   OH222767   2.037   1.378  15.013 -0.3635  0.1606 -0.2190
  451TIP3    H122768   2.059   1.414  15.099 -0.6029  0.9109 -0.4620
  451TIP3    H222769   1.941   1.385  15.008 -0.2868  0.8633 -0.8610
  452TIP3   OH222770   3.600   4.948   5.744 -0.2238 -0.2805 -0.5804
  452TIP3    H122771   3.640   5.033   5.725 -0.2841 -0.6260 -2.5221
  452TIP3    H222772   3.655   4.910   5.813 -0.1212  1.2528  0.2274
  453TIP3   OH222773   5.757   0.882  13.357  0.0015  0.1691 -0.3419
  453TIP3    H122774   5.678   0.871  13.303  1.6959  3.5153 -4.0924
  453TIP3    H222775   5.817   0.815  13.326  0.4926  1.2201 -1.7638
  454TIP3   OH222776   3.027   3.552   4.912  0.2447 -0.7150  0.1310
  454TIP3    H122777   3.045   3.508   4.994 -1.9780 -1.1415  0.4548
  454TIP3    H222778   2.941   3.592   4.924  0.1448 -0.2428 -1.7576
  455TIP3   OH222779   6.312   2.544  16.894 -0.0350  0.4913 -0.1054
  455TIP3    H122780   6.368   2.469  16.875 -0.2353  0.5278 -0.8816
  455TIP3    H222781   6.296   2.540  16.988 -0.5189 -0.7612 -0.2286
  456TIP3   OH222782   1.342   2.009  12.633  0.1757 -0.0314 -0.3765
  456TIP3    H122783   1.357   2.029  12.725  0.0438  0.4514 -0.4541
  456TIP3    H222784   1.248   1.996  12.626  0.3156 -1.2101 -0.2345
  457TIP3   OH222785   1.509   1.322  15.215  0.1811 -0.4453 -0.3346
  457TIP3    H122786   1.546   1.283  15.135  0.7425  0.1423 -0.3706
  457TIP3    H222787   1.464   1.249  15.258 -0.9537 -0.5622 -1.6467
  458TIP3   OH222788   6.692   6.365   4.880 -0.3502 -0.2504  0.1732
  458TIP3    H122789   6.756   6.295   4.885  0.5948  0.6262  0.6833
  458TIP3    H222790   6.626   6.343   4.946 -2.1244 -2.5974 -2.1620
  459TIP3   OH222791   4.578   3.936   5.159 -0.1897  0.2952 -0.0338
  459TIP3    H122792   4.620   3.873   5.101  1.1641  1.3607 -0.2509
  459TIP3    H222793   4.484   3.918   5.149  0.1276 -1.2352 -0.5735
  460TIP3   OH222794   0.796   3.588  16.623  0.5986 -0.2699 -0.5088
  460TIP3    H122795   0.825   3.519  16.683  1.4128  0.6787  0.2353
  460TIP3    H222796   0.715   3.621  16.662 -0.8938 -2.0912 -1.9248
  461TIP3   OH222797   0.062   5.058   1.925 -0.0219  0.3727 -0.0898
  461TIP3    H122798   0.094   4.985   1.872 -0.9264 -1.3841  1.6581
  461TIP3    H222799  -0.033   5.052   1.919 -0.1680 -0.0365  1.8417
  462TIP3   OH222800   1.295   5.557  17.192 -0.7575  0.1010  0.1633
  462TIP3    H122801   1.323   5.529  17.280  1.3272  2.5740  0.4061
  462TIP3    H222802   1.326   5.487  17.135 -1.9838 -1.4664  1.3150
  463TIP3   OH222803   3.041   5.783  11.193  0.1622  0.4454  0.2743
  463TIP3    H122804   2.964   5.765  11.247  0.1029 -1.7906 -0.4325
  463TIP3    H222805   3.017   5.860  11.141 -0.9080  0.8227  1.2842
  464TIP3   OH222806   3.248   5.916  15.706  0.2998 -0.2863 -0.2945
  464TIP3    H122807   3.285   5.919  15.795 -1.2292  1.0314  0.3616
  464TIP3    H222808   3.157   5.888  15.720 -0.4221  1.4649 -1.2455
  465TIP3   OH222809   5.656   3.198  17.120  0.2302 -0.2938 -0.4285
  465TIP3    H122810   5.702   3.154  17.191  0.2733 -0.7595 -0.7417
  465TIP3    H222811   5.609   3.128  17.074 -1.3640  0.2492  0.2864
  466TIP3   OH222812   2.940   6.673  11.581  0.6323  0.5433  0.0576
  466TIP3    H122813   3.005   6.620  11.627 -1.2513 -0.8086  1.2523
  466TIP3    H222814   2.930   6.630  11.496  2.0900  1.4595 -0.6396
  467TIP3   OH222815   3.827   5.518  12.476 -0.4015 -0.0455  0.2626
  467TIP3    H122816   3.858   5.539  12.388 -2.0321  0.8007 -0.1535
  467TIP3    H222817   3.815   5.604  12.518 -0.2053 -0.4202  1.1153
  468TIP3   OH222818   3.056   0.432  13.072 -0.5201 -0.2149  0.0669
  468TIP3    H122819   3.147   0.434  13.041  0.0554 -0.5887  1.6389
  468TIP3    H222820   3.013   0.370  13.014 -1.0387  3.3056 -3.7817
  469TIP3   OH222821   5.500   6.575  16.954 -0.2108 -0.0028 -0.7052
  469TIP3    H122822   5.568   6.614  17.008 -1.5799 -2.2533  3.0613
  469TIP3    H222823   5.538   6.494  16.921 -0.0205  0.4286 -1.5999
  470TIP3   OH222824   1.104   2.019   3.563 -0.3064 -0.0821 -0.3722
  470TIP3    H122825   1.094   1.990   3.653  0.5955  0.6414 -0.0296
  470TIP3    H222826   1.093   1.939   3.511 -2.2707 -0.2659  0.2567
  471TIP3   OH222827   5.196   6.527   4.177 -0.8860  0.3000 -0.3424
  471TIP3    H122828   5.116   6.548   4.127  0.1777  0.5254 -2.0330
  471TIP3    H222829   5.267   6.565   4.125  0.4462 -0.9585  0.4985
  472TIP3   OH222830   2.963   3.819  17.012 -0.5082 -0.0330  0.1516
  472TIP3    H122831   2.944   3.792  16.922  0.6360 -2.4798  0.5713
  472TIP3    H222832   3.055   3.846  17.010 -0.1303 -1.2472  0.8083
  473TIP3   OH222833   5.523   3.599  13.269  0.6810  0.2715  0.0882
  473TIP3    H122834   5.493   3.564  13.353  1.0811 -0.4438 -0.0608
  473TIP3    H222835   5.444   3.599  13.215  0.9272 -1.8060 -0.3650
  474TIP3   OH222836   5.662   2.450   1.157  0.3537 -0.2437 -0.2691
  474TIP3    H122837   5.732   2.442   1.092  0.8378 -0.1770  0.2470
  474TIP3    H222838   5.595   2.502   1.113  0.3020 -0.9243 -1.0323
  475TIP3   OH222839   3.881   1.533   1.711 -0.3398 -0.4371 -0.1932
  475TIP3    H122840   3.967   1.501   1.681 -0.0407  1.1334 -1.1488
  475TIP3    H222841   3.827   1.531   1.632 -0.7728 -0.0651  0.0944
  476TIP3   OH222842   3.461   0.898   0.575  0.2361 -0.0642  0.0937
  476TIP3    H122843   3.486   0.966   0.512 -0.1875  0.0613  0.0583
  476TIP3    H222844   3.494   0.817   0.536 -0.9496 -0.1339 -0.8347
  477TIP3   OH222845   6.756   6.406  13.301 -0.0367  0.3878  0.2196
  477TIP3    H122846   6.791   6.391  13.214  0.8667  0.0822  0.6204
  477TIP3    H222847   6.740   6.319  13.336 -1.2180  0.5198  0.0515
  478TIP3   OH222848   6.446   4.186   5.069  0.2639 -0.9094 -0.1612
  478TIP3    H122849   6.514   4.190   5.002  0.6682 -0.4848  0.2686
  478TIP3    H222850   6.457   4.101   5.111  1.9297 -0.0271  1.3401
  479TIP3   OH222851   4.177   1.510  13.474 -0.0560 -0.0478 -0.3743
  479TIP3    H122852   4.112   1.560  13.524 -0.9695 -1.2850 -0.2849
  479TIP3    H222853   4.261   1.533  13.514 -0.2816  2.3335 -1.1096
  480TIP3   OH222854   2.346   3.745  15.731  0.3043 -0.1178 -0.0553
  480TIP3    H122855   2.383   3.695  15.658  0.3587  0.0171 -0.1206
  480TIP3    H222856   2.258   3.709  15.742  0.7682 -1.0957  0.7148
  481TIP3   OH222857   0.932   5.960  15.394 -0.7854  0.0127 -0.0757
  481TIP3    H122858   0.978   5.907  15.460  1.4009  1.2031 -0.5440
  481TIP3    H222859   0.955   6.050  15.415  0.0903  0.4262 -2.4720
  482TIP3   OH222860   2.674   3.956  11.941  0.0498  0.0844 -0.5748
  482TIP3    H122861   2.637   3.887  11.887  0.0743  0.1159 -0.6319
  482TIP3    H222862   2.725   3.910  12.008 -3.0383 -0.1781  1.8182
  483TIP3   OH222863   4.277   4.585  16.242  0.1869  0.6670  0.0562
  483TIP3    H122864   4.353   4.573  16.298 -0.6679 -1.0709  0.9079
  483TIP3    H222865   4.293   4.527  16.167 -0.8086 -0.6604  0.8277
  484TIP3   OH222866   2.836   1.373  14.281  0.4331 -0.6637 -0.6940
  484TIP3    H122867   2.757   1.354  14.333  1.2578  0.6740  1.1649
  484TIP3    H222868   2.834   1.468  14.269  2.2700 -0.4501  0.3442
  485TIP3   OH222869   1.078   1.255   3.061 -0.2618 -0.0286 -0.5827
  485TIP3    H122870   1.013   1.274   2.994  2.1319  2.5088 -2.4494
  485TIP3    H222871   1.142   1.199   3.016  0.1205 -0.4164  0.4193
  486TIP3   OH222872   3.093   2.860  11.886 -0.3251 -0.0803 -0.0595
  486TIP3    H122873   3.007   2.817  11.889 -0.7845  0.8116 -0.2249
  486TIP3    H222874   3.140   2.825  11.962 -0.9852 -0.2537  0.2769
  487TIP3   OH222875   1.935   6.070   4.864 -0.2695 -0.6496  0.3516
  487TIP3    H122876   1.857   6.096   4.913 -0.1438  0.1087  0.1770
  487TIP3    H222877   1.940   5.975   4.874 -0.0558 -0.4940  2.0988
  488TIP3   OH222878   3.764   1.924  14.137  0.0357 -0.2503 -0.0983
  488TIP3    H122879   3.671   1.904  14.142 -0.3239  1.2392 -0.3851
  488TIP3    H222880   3.805   1.843  14.104 -1.0187 -1.1990  0.8393
  489TIP3   OH222881   2.460   3.435   2.516  0.0766  0.3826 -0.0923
  489TIP3    H122882   2.439   3.373   2.586 -0.6525  1.4897  0.6808
  489TIP3    H222883   2.418   3.397   2.438  1.5911 -1.2949 -0.1716
  490TIP3   OH222884   2.959   3.445  11.042 -0.5914 -0.0276 -0.0549
  490TIP3    H122885   2.998   3.431  10.956 -0.7034 -1.7667  0.1561
  490TIP3    H222886   3.012   3.393  11.102 -0.6138  1.0389  0.9172
  491TIP3   OH222887   4.583   1.596  17.135 -0.0193 -0.3847 -0.5548
  491TIP3    H122888   4.495   1.566  17.116  0.2742 -1.2959 -0.5350
  491TIP3    H222889   4.603   1.660  17.065 -0.7858  0.0499 -0.3854
  492TIP3   OH222890   4.771   0.468  14.539 -0.8334 -0.4506  0.1499
  492TIP3    H122891   4.801   0.395  14.486  0.2375  0.3669 -0.4261
  492TIP3    H222892   4.700   0.507  14.489 -1.9190 -1.5248  0.8182
  493TIP3   OH222893   6.486   2.988  14.366  0.4043  0.1864 -0.5259
  493TIP3    H122894   6.558   2.926  14.375  0.0901 -0.3139 -1.3631
  493TIP3    H222895   6.457   3.005  14.455  1.2385  0.0201 -0.2128
  494TIP3   OH222896   4.189   3.311  12.726 -0.6172  0.1437  0.1213
  494TIP3    H122897   4.165   3.399  12.698  2.1500  0.3322 -2.0675
  494TIP3    H222898   4.183   3.258  12.646 -0.1729 -1.1683  0.9237
  495TIP3   OH222899   4.803   5.840   3.766  0.5277 -0.1461 -0.2527
  495TIP3    H122900   4.721   5.813   3.727  0.2075  0.0359  0.2861
  495TIP3    H222901   4.838   5.761   3.807  0.9736 -0.3895 -1.0892
  496TIP3   OH222902   3.196   6.247   2.382  0.0999 -0.2960 -0.5811
  496TIP3    H122903   3.130   6.316   2.379  0.1668 -0.1465  0.6340
  496TIP3    H222904   3.159   6.181   2.441  0.7631 -0.4937 -0.3699
  497TIP3   OH222905   0.719   6.509   2.028  0.4486 -0.5299 -0.1146
  497TIP3    H122906   0.643   6.538   2.079  0.9471 -0.5261  0.6510
  497TIP3    H222907   0.794   6.542   2.077  1.1276 -3.8457  1.3801
  498TIP3   OH222908   6.472   1.858   4.925  0.6168 -0.0969 -0.2960
  498TIP3    H122909   6.456   1.922   4.856  1.0169  0.0661 -0.2394
  498TIP3    H222910   6.475   1.909   5.006 -0.4599 -0.3562 -0.0647
  499TIP3   OH222911   5.798   1.404   3.512  0.3393  0.0256 -0.0619
  499TIP3    H122912   5.757   1.489   3.527 -1.7865 -0.6433 -1.5327
  499TIP3    H222913   5.850   1.417   3.432  1.5107  0.3794  0.7361
  500TIP3   OH222914   3.978   1.571  16.748 -0.1339  0.6512  0.5334
  500TIP3    H122915   3.992   1.528  16.833 -0.5653  1.1427  0.8629
  500TIP3    H222916   3.926   1.648  16.769  0.8491  1.4950  0.0001
  501TIP3   OH222917   1.662   1.146  13.986  0.7078  0.2673  0.0914
  501TIP3    H122918   1.696   1.143  13.897 -2.0689 -1.2015 -1.0260
  501TIP3    H222919   1.631   1.236  13.997 -0.0619  0.1285 -0.8896
  502TIP3   OH222920   1.095   1.956  14.586  0.0606 -0.1242 -0.2762
  502TIP3    H122921   1.050   1.879  14.620  0.8041 -0.7050 -0.5761
  502TIP3    H222922   1.040   2.030  14.613 -0.0863 -0.6618  0.9849
  503TIP3   OH222923   2.552   3.605   5.099 -0.4632  0.3129  0.0379
  503TIP3    H122924   2.493   3.660   5.047 -0.6486  1.5680  1.5018
  503TIP3    H222925   2.528   3.516   5.076 -3.0093  0.7745  0.5752
  504TIP3   OH222926   0.082   0.736  13.434  0.1349 -0.1044 -0.0799
  504TIP3    H122927   0.041   0.735  13.520  1.0338  1.5723  0.4191
  504TIP3    H222928   0.129   0.819  13.431  2.0965 -1.1755 -1.2628
  505TIP3   OH222929   1.095   0.926  17.076  0.0334 -0.4758  0.1959
  505TIP3    H122930   1.057   0.862  17.136 -0.8503 -0.4994 -0.3702
  505TIP3    H222931   1.183   0.942  17.110  0.9416 -3.2482 -0.5323
  506TIP3   OH222932   2.242   2.417  15.132 -0.9111  0.4955  0.0899
  506TIP3    H122933   2.270   2.417  15.040  0.8371  0.8170  0.5862
  506TIP3    H222934   2.166   2.358  15.133  1.3129 -2.6583 -0.9316
  507TIP3   OH222935   4.143   1.055   5.100  0.6028 -0.3580  0.4637
  507TIP3    H122936   4.200   1.067   5.025  1.0998  3.1555  1.2312
  507TIP3    H222937   4.058   1.031   5.063  1.3694 -0.8323 -1.0303
  508TIP3   OH222938   4.176   6.501   4.353 -0.3274 -0.0517 -0.6646
  508TIP3    H122939   4.236   6.539   4.289 -0.5420  0.3417 -0.6340
  508TIP3    H222940   4.233   6.468   4.423 -0.2469  3.2998  1.0199
  509TIP3   OH222941   4.184   5.188  12.484 -0.0058  0.8104  0.3433
  509TIP3    H122942   4.228   5.184  12.569  0.3181  3.4769  0.3760
  509TIP3    H222943   4.094   5.214  12.505 -0.2580  0.3064 -0.0771
  510TIP3   OH222944   2.746   1.561   1.372 -0.1999  0.4660 -0.1118
  510TIP3    H122945   2.763   1.468   1.358 -0.2027  0.6151 -1.1840
  510TIP3    H222946   2.652   1.571   1.358 -0.3328  0.5017  0.7797
  511TIP3   OH222947   2.343   5.585   0.249 -0.5741 -0.4249 -0.1692
  511TIP3    H122948   2.425   5.556   0.286 -0.8554  1.0689  1.7795
  511TIP3    H222949   2.342   5.548   0.160  1.9178 -0.9047 -0.0619
  512TIP3   OH222950   4.698   0.947   2.124 -0.2222  0.1051  0.0283
  512TIP3    H122951   4.756   1.015   2.159 -1.6362  0.0927  2.6190
  512TIP3    H222952   4.748   0.866   2.134 -0.5072  0.1215  2.0432
  513TIP3   OH222953   0.146   2.164   3.534  0.1631  0.0494  0.2162
  513TIP3    H122954   0.074   2.171   3.596  0.3918  0.4902  0.4426
  513TIP3    H222955   0.108   2.124   3.456 -0.6475  1.4925 -0.1622
  514TIP3   OH222956   5.681   3.673  16.710 -0.7682  0.3724 -0.1230
  514TIP3    H122957   5.719   3.586  16.695 -3.8855 -1.2106  0.4174
  514TIP3    H222958   5.616   3.659  16.778 -0.5191  3.4475  0.8725
  515TIP3   OH222959   4.975   6.363   3.240 -0.6914  0.4488 -0.4969
  515TIP3    H122960   4.962   6.269   3.227 -1.2018  0.6100 -1.1881
  515TIP3    H222961   4.895   6.403   3.206  0.4352  1.2891 -2.3143
  516TIP3   OH222962   3.584   3.895   1.598 -0.6959  0.1233 -0.4874
  516TIP3    H122963   3.678   3.908   1.589 -0.2840 -0.5346  2.1423
  516TIP3    H222964   3.570   3.803   1.577 -0.9853  0.4925 -2.0526
  517TIP3   OH222965   1.750   0.191   2.605  0.2321 -0.5925  0.2303
  517TIP3    H122966   1.845   0.193   2.594  0.3055  1.2219  0.7528
  517TIP3    H222967   1.734   0.250   2.679 -1.2250 -1.7898  0.9161
  518TIP3   OH222968   3.077   6.485   2.616 -0.0402  0.0520 -0.9928
  518TIP3    H122969   2.987   6.460   2.597  0.0329  0.2907 -1.6789
  518TIP3    H222970   3.103   6.540   2.542  0.2384  1.0678 -0.1710
  519TIP3   OH222971   3.736   0.980   0.286 -0.3294 -0.0943 -0.4113
  519TIP3    H122972   3.659   1.028   0.316 -0.5846 -0.5765 -0.2857
  519TIP3    H222973   3.774   1.036   0.217  1.6509  2.2627  2.3278
  520TIP3   OH222974   2.544   2.572  13.104 -0.2772  0.1238  0.2426
  520TIP3    H122975   2.502   2.523  13.033 -0.4276  0.5503  0.0324
  520TIP3    H222976   2.514   2.662  13.092 -1.2707  0.0051  1.5546
  521TIP3   OH222977   1.822   6.055  15.340  0.2120 -0.2043  1.0060
  521TIP3    H122978   1.799   6.072  15.248  0.0534 -1.1819  0.8488
  521TIP3    H222979   1.893   6.115  15.359  1.3133 -1.0446 -0.2466
  522TIP3   OH222980   0.443   2.451   2.537 -0.5515 -0.0618  0.2894
  522TIP3    H122981   0.528   2.430   2.500 -0.0538  2.4728 -0.1891
  522TIP3    H222982   0.460   2.471   2.629 -0.6674  0.1967  0.2567
  523TIP3   OH222983   4.418   3.517  11.839  0.0606 -0.1932  0.2039
  523TIP3    H122984   4.470   3.439  11.856  1.6346  0.7592 -0.0336
  523TIP3    H222985   4.328   3.486  11.833  0.6655 -1.9796  0.0454
  524TIP3   OH222986   6.630   6.656   1.885 -0.4142  0.6456 -0.0120
  524TIP3    H122987   6.702   6.677   1.826 -0.0576 -0.0576  0.1564
  524TIP3    H222988   6.663   6.676   1.973  0.1353 -1.0442  0.2038
  525TIP3   OH222989   3.443   0.570   5.520 -0.2789  0.5387 -0.1027
  525TIP3    H122990   3.436   0.653   5.566  0.1629  0.8549 -0.5934
  525TIP3    H222991   3.356   0.557   5.481 -0.9702 -0.2089  1.5793
  526TIP3   OH222992   2.389   0.709   4.270 -0.0649 -0.4658 -0.4971
  526TIP3    H122993   2.438   0.631   4.298  0.5331 -0.6227 -1.9092
  526TIP3    H222994   2.362   0.750   4.352  0.0562 -1.8759  0.2866
  527TIP3   OH222995   5.961   6.785   4.715  0.6465 -0.0864  0.4479
  527TIP3    H122996   5.948   6.843   4.790  0.6011 -0.4533  0.7212
  527TIP3    H222997   6.055   6.785   4.700  0.6187  0.3057  0.2504
  528TIP3   OH222998   4.021   5.685  15.563  0.0860  0.5963 -0.6768
  528TIP3    H122999   4.026   5.591  15.547 -0.7938  0.9243 -3.4679
  528TIP3    H223000   4.043   5.725  15.479  1.5965  2.9694  0.7136
  529TIP3   OH223001   2.086   2.326  13.794 -0.2315 -0.2582  0.1521
  529TIP3    H123002   2.121   2.367  13.715  1.0877 -0.2637  0.7161
  529TIP3    H223003   2.143   2.251  13.810 -0.1992  0.0066  1.3658
  530TIP3   OH223004   3.537   3.212   5.994  0.2666  0.2577 -0.3079
  530TIP3    H123005   3.622   3.178   6.020 -0.1031  0.0072  0.5863
  530TIP3    H223006   3.485   3.213   6.074  0.1164  2.4990 -0.3561
  531TIP3   OH223007   1.470   2.600  16.928  0.0955  0.6658  0.3032
  531TIP3    H123008   1.464   2.535  16.998  1.5681 -0.0230 -0.1619
  531TIP3    H223009   1.483   2.683  16.974  0.6310  0.2830  0.8655
  532TIP3   OH223010   0.297   5.783   3.337 -0.5119  0.3467 -0.3289
  532TIP3    H123011   0.302   5.796   3.432  1.3341 -1.6202 -0.0696
  532TIP3    H223012   0.236   5.710   3.327 -1.9145  1.5449 -0.8253
  533TIP3   OH223013   1.566   5.888  13.892  0.1898  0.0094  0.0375
  533TIP3    H123014   1.520   5.889  13.976  1.2266  1.5257  0.6238
  533TIP3    H223015   1.533   5.965  13.845  0.9935  0.2406 -0.1644
  534TIP3   OH223016   2.582   4.047  17.038 -0.4416 -0.0586 -0.1288
  534TIP3    H123017   2.624   4.132  17.051 -1.3573  0.4249 -0.2911
  534TIP3    H223018   2.521   4.060  16.966 -0.9006 -0.7430  0.1186
  535TIP3   OH223019   1.761   5.647   2.131 -0.1734  0.0292 -0.3510
  535TIP3    H123020   1.751   5.565   2.180 -0.4685  0.5741  0.5265
  535TIP3    H223021   1.672   5.680   2.120  0.0440  1.9857  2.4446
  536TIP3   OH223022   1.604   1.897  12.846 -0.3186 -0.8557 -0.1273
  536TIP3    H123023   1.605   1.985  12.808 -0.0110 -1.6884 -2.1730
  536TIP3    H223024   1.619   1.911  12.940  0.8035  1.1934 -0.5596
  537TIP3   OH223025   2.967   4.069   4.345 -0.3662 -0.4077  0.6554
  537TIP3    H123026   2.968   3.976   4.366 -1.0479 -0.2871  1.2481
  537TIP3    H223027   3.003   4.111   4.423 -0.2674 -0.1507  0.4738
  538TIP3   OH223028   1.836   4.624  12.825  0.1497  0.1489  0.1336
  538TIP3    H123029   1.759   4.573  12.801 -0.0763  0.9309 -0.9059
  538TIP3    H223030   1.846   4.610  12.919 -1.0876 -0.1914  0.2342
  539TIP3   OH223031   1.572   4.104   1.001  0.3522 -0.8559 -0.3637
  539TIP3    H123032   1.549   4.047   1.074 -1.2323 -0.8854 -0.8416
  539TIP3    H223033   1.643   4.058   0.956  0.6295 -1.3446  0.5540
  540TIP3   OH223034   4.786   3.253   4.442 -0.2655 -0.0810  0.2863
  540TIP3    H123035   4.723   3.209   4.499 -0.8961  1.0520  0.4857
  540TIP3    H223036   4.826   3.320   4.498  0.9224 -0.5852  0.0819
  541TIP3   OH223037   6.141   4.207   0.027  0.2069 -0.0101  0.2182
  541TIP3    H123038   6.085   4.142  -0.015  0.8307  0.5104 -1.5385
  541TIP3    H223039   6.211   4.156   0.067 -1.3116 -0.6484  2.2199
  542TIP3   OH223040   6.413   3.955   3.754 -0.5514 -0.0787  0.7127
  542TIP3    H123041   6.447   3.891   3.692  1.1623 -2.2767  3.6143
  542TIP3    H223042   6.319   3.938   3.758 -0.8104  0.5067 -1.5490
  543TIP3   OH223043   3.960   6.142  15.931 -0.0840  1.2461 -0.0333
  543TIP3    H123044   3.983   6.098  15.849 -1.0118  2.5062 -1.0201
  543TIP3    H223045   4.035   6.197  15.950 -0.3989  1.9634 -0.7938
  544TIP3   OH223046   4.825   2.397   5.429 -0.0098  0.8588 -0.3769
  544TIP3    H123047   4.783   2.335   5.369  0.2845 -0.2205  0.5020
  544TIP3    H223048   4.918   2.392   5.408  0.8232 -2.8658  2.8867
  545TIP3   OH223049   3.690   0.124   6.055 -0.7189 -0.0668 -0.1487
  545TIP3    H123050   3.780   0.130   6.025 -0.9496 -0.9328 -1.0586
  545TIP3    H223051   3.689   0.173   6.138  0.6574 -0.3441  0.0557
  546TIP3   OH223052   4.916   4.671  12.466  0.1858  0.2232 -0.1423
  546TIP3    H123053   4.941   4.619  12.389  0.7573  0.5805 -0.2097
  546TIP3    H223054   4.978   4.643  12.533 -0.8148 -0.6665  0.4379
  547TIP3   OH223055   5.032   4.439  11.306  0.1034  0.7989  0.1212
  547TIP3    H123056   4.993   4.387  11.375  0.1324  1.6072  0.7709
  547TIP3    H223057   5.088   4.378  11.258 -0.3940  0.0903  0.4260
  548TIP3   OH223058   4.975   6.360  12.312 -0.6251  0.3169  0.0683
  548TIP3    H123059   5.056   6.334  12.356 -0.2312 -2.3992 -1.9911
  548TIP3    H223060   4.996   6.352  12.218 -2.6388  1.7557 -0.5587
  549TIP3   OH223061   5.214   4.689  16.640  0.0771  0.7426  0.0517
  549TIP3    H123062   5.205   4.601  16.677  1.4410  0.2090 -0.7878
  549TIP3    H223063   5.228   4.746  16.715  1.9917 -0.1919  0.4710
  550TIP3   OH223064   6.637   3.142  17.044  0.7969  0.0388 -0.0677
  550TIP3    H123065   6.577   3.085  17.093  0.1538 -0.5591 -1.4896
  550TIP3    H223066   6.723   3.103  17.058  0.5219 -0.5753 -0.0253
  551TIP3   OH223067   0.981   2.840   0.501  0.3631 -0.7472  0.2250
  551TIP3    H123068   1.045   2.908   0.523 -0.5390  0.3723 -0.4828
  551TIP3    H223069   0.977   2.785   0.579 -0.3676  1.1994  1.6471
  552TIP3   OH223070   0.080   3.111   2.340 -0.1242 -0.8770 -0.1016
  552TIP3    H123071   0.015   3.041   2.344  0.4813 -1.3901  1.2425
  552TIP3    H223072   0.061   3.166   2.416 -1.0022  0.8403 -1.4789
  553TIP3   OH223073   6.781   6.039  12.239  0.4401  0.5777  0.3892
  553TIP3    H123074   6.836   5.981  12.186  2.2807  0.4216  2.3127
  553TIP3    H223075   6.696   6.036  12.197  0.3670 -3.6508  0.3547
  554TIP3   OH223076   6.608   0.357   1.103  0.0885 -0.5765  0.5333
  554TIP3    H123077   6.701   0.362   1.124  0.2040  2.3021 -0.3076
  554TIP3    H223078   6.605   0.321   1.015  0.2872 -1.7364  0.9771
  555TIP3   OH223079   6.492   5.721   1.769 -0.1360  0.3239 -0.3940
  555TIP3    H123080   6.465   5.805   1.807  1.7144  1.0540 -0.6018
  555TIP3    H223081   6.481   5.733   1.675 -1.3602 -0.2404 -0.3351
  556TIP3   OH223082   3.730   4.198   1.710  0.6486 -0.7667  0.1695
  556TIP3    H123083   3.668   4.170   1.642  1.9128 -0.6123 -1.0981
  556TIP3    H223084   3.810   4.150   1.690  0.9603 -0.9407  1.7603
  557TIP3   OH223085   6.195   4.750   2.964 -0.1372  0.2518  0.5879
  557TIP3    H123086   6.128   4.712   2.906 -1.7161 -1.6996  3.4489
  557TIP3    H223087   6.273   4.696   2.949  0.6774  1.9591 -2.0913
  558TIP3   OH223088   0.614   4.752  13.456  0.0253  0.1240 -0.4358
  558TIP3    H123089   0.578   4.809  13.388  1.0682  1.2935 -0.0378
  558TIP3    H223090   0.655   4.680  13.408  0.4164  0.7398 -1.0361
  559TIP3   OH223091   2.518   4.528   5.069  0.0707  0.2837  0.4496
  559TIP3    H123092   2.476   4.605   5.030 -1.2565 -0.5032  0.2543
  559TIP3    H223093   2.486   4.526   5.159 -0.8574 -0.6861  0.1159
  560TIP3   OH223094   2.195   3.285  16.981 -0.6563  0.0679 -0.0412
  560TIP3    H123095   2.210   3.357  16.919 -1.3513 -1.2039 -1.7596
  560TIP3    H223096   2.277   3.236  16.982 -0.0342  1.0462  1.4547
  561TIP3   OH223097   4.269   2.440  11.011 -0.5675  0.0717 -0.1969
  561TIP3    H123098   4.264   2.483  10.926 -2.0717 -0.4667 -0.4224
  561TIP3    H223099   4.331   2.368  10.998 -1.2914 -0.4278 -1.0697
  562TIP3   OH223100   5.434   5.538   3.750  0.3663  0.0009 -0.3859
  562TIP3    H123101   5.526   5.563   3.744 -0.3897  3.2214 -0.4162
  562TIP3    H223102   5.392   5.610   3.796 -2.1492 -1.4346 -0.2422
  563TIP3   OH223103   1.052   0.979   0.621 -0.2650 -0.4693 -0.1811
  563TIP3    H123104   1.071   0.896   0.577  2.8392 -1.1729  2.1652
  563TIP3    H223105   1.135   1.027   0.620 -1.4704  1.7857  0.2912
  564TIP3   OH223106   2.224   0.238  15.019  0.0663  0.8693 -0.2321
  564TIP3    H123107   2.244   0.331  15.034  0.9150  0.6279  0.2025
  564TIP3    H223108   2.201   0.234  14.926  1.0843  1.3493 -0.5257
  565TIP3   OH223109   6.662   5.540   2.177 -0.1073  0.2620  0.3581
  565TIP3    H123110   6.630   5.629   2.161  2.8605  1.4052 -0.0192
  565TIP3    H223111   6.584   5.490   2.200 -1.8775  3.0306  0.9559
  566TIP3   OH223112   1.748   5.780  15.536  0.8977  0.0932 -0.4324
  566TIP3    H123113   1.696   5.706  15.507 -0.1852 -0.4066  2.4670
  566TIP3    H223114   1.769   5.828  15.456 -0.2000 -2.1329 -2.1513
  567TIP3   OH223115   6.667   1.908  15.597 -0.6899  0.0375 -0.1039
  567TIP3    H123116   6.581   1.949  15.584 -1.2448 -0.7735  0.8904
  567TIP3    H223117   6.662   1.868  15.683  0.4626 -0.5967 -0.3115
  568TIP3   OH223118   2.550   0.577  12.214  0.2400 -0.7865 -0.1805
  568TIP3    H123119   2.585   0.490  12.194 -0.0350 -1.2605  1.2572
  568TIP3    H223120   2.628   0.632  12.226  0.5545 -1.6629  2.2703
  569TIP3   OH223121   0.038   4.474  13.337  0.0106 -0.8281 -0.1419
  569TIP3    H123122   0.058   4.385  13.306  0.1937 -1.1720  0.9146
  569TIP3    H223123   0.123   4.510  13.364 -0.0303 -0.2399 -0.7764
  570TIP3   OH223124   0.291   1.659   3.250  0.1814 -0.4419 -0.1190
  570TIP3    H123125   0.273   1.714   3.327  2.1067 -0.4041  0.3619
  570TIP3    H223126   0.317   1.722   3.182 -0.7450 -0.5358 -0.5659
  571TIP3   OH223127   6.778   3.793  11.554  0.0640  0.0986  0.0256
  571TIP3    H123128   6.788   3.867  11.494 -1.4438 -1.8890 -2.9237
  571TIP3    H223129   6.685   3.793  11.577  0.4792  0.3669  1.8428
  572TIP3   OH223130   0.703   6.407   4.775 -0.7726 -0.3355 -0.4756
  572TIP3    H123131   0.782   6.456   4.798 -1.3959  1.4542 -1.9361
  572TIP3    H223132   0.675   6.366   4.858 -0.5240  2.2629  0.9951
  573TIP3   OH223133   2.000   2.445   4.058  0.0260  0.4373  0.0827
  573TIP3    H123134   2.012   2.539   4.044 -1.0014  0.6953  0.7920
  573TIP3    H223135   1.934   2.420   3.993 -0.4266  0.4210  0.5429
  574TIP3   OH223136   4.997   1.857  13.363 -0.1863  0.4801  0.4889
  574TIP3    H123137   4.949   1.781  13.331 -1.6773  0.9630  1.4553
  574TIP3    H223138   5.071   1.867  13.303  0.4497 -2.1239  0.7407
  575TIP3   OH223139   2.185   6.019  12.585  0.4982 -0.2294 -0.6850
  575TIP3    H123140   2.225   6.001  12.500 -1.8919  0.4339 -2.0257
  575TIP3    H223141   2.149   5.934  12.613 -1.2470  0.0875 -1.7969
  576TIP3   OH223142   1.368   0.799  15.151  0.1722 -0.6538 -0.5415
  576TIP3    H123143   1.276   0.776  15.166 -0.1929 -0.0842 -1.7209
  576TIP3    H223144   1.389   0.758  15.067  2.2320 -4.1035  1.4173
  577TIP3   OH223145   4.978   5.222   2.974 -0.1160  0.3476 -0.8997
  577TIP3    H123146   5.000   5.236   3.066  0.3540  0.5332 -1.0395
  577TIP3    H223147   4.926   5.141   2.974  1.5300 -0.7613 -0.6916
  578TIP3   OH223148   1.313   0.968  12.768 -0.2037 -0.3537  0.0491
  578TIP3    H123149   1.317   1.001  12.678 -1.4369 -0.4427 -0.0509
  578TIP3    H223150   1.261   0.888  12.762 -2.4884  0.9189  1.1667
  579TIP3   OH223151   3.701   4.527  14.595  0.0069  0.2786 -0.7822
  579TIP3    H123152   3.619   4.481  14.614 -0.3307  1.0987 -0.1817
  579TIP3    H223153   3.738   4.481  14.520 -2.2405  1.3376 -2.6841
  580TIP3   OH223154   2.702   3.760   2.441 -0.7960 -0.7099 -0.2699
  580TIP3    H123155   2.608   3.758   2.428 -0.7529 -0.1844 -0.6967
  580TIP3    H223156   2.735   3.686   2.391 -0.8602 -0.0921 -1.2695
  581TIP3   OH223157   6.143   2.343   2.035 -0.6478  0.3205  0.1265
  581TIP3    H123158   6.120   2.251   2.046 -0.8716  0.4654  0.9430
  581TIP3    H223159   6.099   2.369   1.954  0.9943 -0.7812 -1.1882
  582TIP3   OH223160   4.360   5.684  16.428  0.0708 -0.0151  0.5888
  582TIP3    H123161   4.320   5.599  16.410 -0.8988  0.8357 -1.6219
  582TIP3    H223162   4.445   5.681  16.385  0.1687  0.0261  0.7784
  583TIP3   OH223163   6.538   1.976  14.208  0.0312  0.1097  0.2688
  583TIP3    H123164   6.478   1.902  14.218  1.2094 -0.6557  2.1820
  583TIP3    H223165   6.492   2.049  14.250 -0.3542  0.0058  0.0340
  584TIP3   OH223166   5.532   0.690   4.259 -0.2198 -0.0859 -0.1938
  584TIP3    H123167   5.589   0.766   4.247 -0.5717  0.0635 -0.9827
  584TIP3    H223168   5.443   0.725   4.248 -0.4190 -0.4720  0.1769
  585TIP3   OH223169   5.983   4.020   5.670  0.2559  0.0972 -0.2812
  585TIP3    H123170   5.975   4.111   5.643  1.7915  0.0242 -1.1058
  585TIP3    H223171   5.894   3.993   5.692 -0.6727  1.0128 -2.5756
  586TIP3   OH223172   6.637   4.725  12.569 -0.1033  0.2394  0.0030
  586TIP3    H123173   6.627   4.635  12.598 -0.5411  0.3427  0.1679
  586TIP3    H223174   6.583   4.777  12.628 -0.1908  0.5653 -0.3543
  587TIP3   OH223175   0.628   4.380  15.041  0.1727 -0.3167 -0.2929
  587TIP3    H123176   0.597   4.345  15.125  0.5428  0.4070  0.1624
  587TIP3    H223177   0.553   4.373  14.983 -1.3885  2.6591  1.1442
  588TIP3   OH223178   1.660   5.529  15.392 -0.5194 -0.3676  0.9103
  588TIP3    H123179   1.715   5.504  15.317 -0.0829 -0.1799  1.1668
  588TIP3    H223180   1.626   5.446  15.425  0.0906 -0.5366  1.1182
  589TIP3   OH223181   6.706   1.416  15.877 -0.1385  0.0016 -0.1082
  589TIP3    H123182   6.769   1.348  15.904 -0.0375 -0.3581 -1.2175
  589TIP3    H223183   6.754   1.498  15.889  0.3605 -0.2361 -0.4131
  590TIP3   OH223184   4.139   2.284   2.213  0.3825  0.5452  0.1995
  590TIP3    H123185   4.195   2.331   2.151 -0.3409 -0.1070 -1.0032
  590TIP3    H223186   4.154   2.327   2.297  2.2675  0.7341 -0.1890
  591TIP3   OH223187   3.029   3.850  14.287 -0.2131 -0.0465 -0.4096
  591TIP3    H123188   3.014   3.788  14.358  2.4146  0.5295  0.7707
  591TIP3    H223189   3.046   3.933  14.331  0.1587  0.6237 -1.7684
  592TIP3   OH223190   0.864   5.392  13.701  0.1182 -0.4946 -0.6460
  592TIP3    H123191   0.790   5.334  13.719  0.1378 -0.1010  0.8411
  592TIP3    H223192   0.828   5.480  13.711  0.2867 -0.2379 -2.0753
  593TIP3   OH223193   2.557   3.764  16.258  0.0073 -0.1094 -0.2087
  593TIP3    H123194   2.625   3.698  16.243 -0.8783 -1.6209  1.9214
  593TIP3    H223195   2.602   3.848  16.246  2.0016 -1.0686  0.1694
  594TIP3   OH223196   4.900   3.609   6.081 -0.1734  0.2775 -0.0283
  594TIP3    H123197   4.944   3.688   6.113  0.4574 -0.2927  0.5403
  594TIP3    H223198   4.956   3.537   6.109  0.0037 -0.3148 -1.7852
  595TIP3   OH223199   5.360   3.051   2.643 -0.1818 -0.5344 -0.8318
  595TIP3    H123200   5.327   3.011   2.723 -0.4097 -1.8159 -1.5199
  595TIP3    H223201   5.336   3.143   2.649  1.9639 -0.0061  1.6726
  596TIP3   OH223202   2.202   3.016   5.562 -0.4964 -0.0031  0.6367
  596TIP3    H123203   2.135   3.007   5.493 -0.6698  0.7267  0.7028
  596TIP3    H223204   2.187   3.103   5.599  1.5728  0.9043 -0.5001
  597TIP3   OH223205   6.114   1.107  13.385  0.1108  0.2176 -0.2199
  597TIP3    H123206   6.136   1.060  13.465 -1.2518  2.0716  1.3405
  597TIP3    H223207   6.020   1.093  13.374  0.4873 -1.0809 -2.2964
  598TIP3   OH223208   2.536   1.130   2.330 -0.0180  0.2667 -0.1261
  598TIP3    H123209   2.602   1.199   2.330  0.4169 -0.1303 -0.9066
  598TIP3    H223210   2.562   1.071   2.400 -0.4570  0.9466  0.6225
  599TIP3   OH223211   0.528   0.844  13.937  0.3539 -0.2806 -0.0770
  599TIP3    H123212   0.570   0.779  13.880  0.3918 -0.3486  0.0277
  599TIP3    H223213   0.470   0.794  13.993  1.6900 -0.4545  1.2113
  600TIP3   OH223214   6.372   5.213   5.460  0.2615 -0.0204 -0.0542
  600TIP3    H123215   6.353   5.131   5.415  0.4171  0.2849 -0.6789
  600TIP3    H223216   6.291   5.234   5.507  0.8776 -1.6168  1.8588
  601TIP3   OH223217   0.282   0.390  13.916  0.1520  0.4696  0.0207
  601TIP3    H123218   0.190   0.390  13.942 -0.1099 -1.5954 -0.7039
  601TIP3    H223219   0.283   0.431  13.830 -0.3465 -0.7256 -0.5834
  602TIP3   OH223220   4.600   3.601  11.526  0.0470 -0.1202 -0.1886
  602TIP3    H123221   4.546   3.649  11.589  0.2351  0.6262 -0.5817
  602TIP3    H223222   4.548   3.524  11.503  0.3905 -0.9464  1.6176
  603TIP3   OH223223   4.280   4.464   3.316  1.4094  0.4774  0.2867
  603TIP3    H123224   4.259   4.481   3.408  1.4620 -0.8472  0.5651
  603TIP3    H223225   4.344   4.393   3.318 -0.3172 -1.2108 -0.8090
  604TIP3   OH223226   1.422   6.197   3.648 -0.6745  0.1304  0.6898
  604TIP3    H123227   1.454   6.286   3.635 -1.0607  0.1900  0.1476
  604TIP3    H223228   1.330   6.200   3.624 -0.4769 -0.6125 -0.2268
  605TIP3   OH223229   1.111   1.238  16.346 -0.5446 -0.3565 -0.0145
  605TIP3    H123230   1.154   1.310  16.299 -0.1214 -0.2662  0.4993
  605TIP3    H223231   1.104   1.168  16.282 -1.0406  0.1673 -0.5502
  606TIP3   OH223232   5.579   1.869   0.999  0.3843 -0.7083 -0.2397
  606TIP3    H123233   5.642   1.806   0.963  1.9907  0.3738  0.5419
  606TIP3    H223234   5.550   1.920   0.923  0.8528 -0.8960 -0.5500
  607TIP3   OH223235   1.722   1.707   5.382  0.2184  0.3952  0.2277
  607TIP3    H123236   1.754   1.794   5.406 -1.0158  1.8363 -2.7398
  607TIP3    H223237   1.779   1.681   5.309  1.9886 -2.4206  2.3915
  608TIP3   OH223238   2.803   1.628   2.858 -0.0744 -0.2148  0.5464
  608TIP3    H123239   2.771   1.690   2.924 -1.0651 -2.0410  1.8755
  608TIP3    H223240   2.736   1.630   2.789  1.7510  2.9131 -1.3732
  609TIP3   OH223241   4.263   0.953  15.349 -0.2295  0.1706  0.0795
  609TIP3    H123242   4.207   0.891  15.301  0.4054 -0.8125  0.5736
  609TIP3    H223243   4.212   1.033  15.353 -0.4990  0.1551 -1.8573
  610TIP3   OH223244   3.185   1.240   3.092  0.1378 -0.1165 -0.3728
  610TIP3    H123245   3.171   1.207   3.003 -0.3570 -0.0685 -0.3131
  610TIP3    H223246   3.280   1.252   3.098  0.0544  1.1499 -1.3477
  611TIP3   OH223247   4.536   3.368   2.479  0.4617 -0.2878  0.5388
  611TIP3    H123248   4.498   3.451   2.453  1.3487 -0.1372 -0.3158
  611TIP3    H223249   4.528   3.366   2.575  1.1432  1.1327  0.6412
  612TIP3   OH223250   4.450   0.069  15.582 -0.2671  0.4905  0.5203
  612TIP3    H123251   4.504   0.071  15.502  0.2754 -0.2322  0.8628
  612TIP3    H223252   4.432   0.161  15.600  0.2001  0.7030 -0.0383
  613TIP3   OH223253   5.785   4.555   1.684 -0.0556 -0.2789  0.2122
  613TIP3    H123254   5.866   4.519   1.648  0.5923  0.2468  1.1121
  613TIP3    H223255   5.810   4.595   1.767 -1.1231  0.4303  0.2277
  614TIP3   OH223256   5.531   4.672   1.379 -0.1936 -0.3067  0.3270
  614TIP3    H123257   5.517   4.767   1.383  1.0419 -0.1036  0.1850
  614TIP3    H223258   5.579   4.652   1.460 -0.1047 -0.7444  0.1647
  615TIP3   OH223259   4.035   0.391  13.050 -0.0251  0.2436 -0.0042
  615TIP3    H123260   3.961   0.335  13.073 -0.0117  0.4753  0.5981
  615TIP3    H223261   4.101   0.373  13.116 -0.6698  2.2520  1.2732
  616TIP3   OH223262   3.881   5.708  10.972 -0.4743  0.5710 -0.0233
  616TIP3    H123263   3.975   5.724  10.979 -0.3751  1.0325 -1.8129
  616TIP3    H223264   3.865   5.697  10.878 -2.5292  2.8083 -0.0483
  617TIP3   OH223265   2.179   0.095   0.322 -0.0768  0.1211  0.1588
  617TIP3    H123266   2.264   0.086   0.277 -1.1317  0.1154 -1.9873
  617TIP3    H223267   2.167   0.189   0.331 -0.8608  0.2566 -1.7648
  618TIP3   OH223268   2.112   3.249  15.177  0.2974  0.1901  0.0756
  618TIP3    H123269   2.083   3.194  15.250  0.0502  0.8282  0.4651
  618TIP3    H223270   2.208   3.247  15.182  0.2805  0.4543  0.5901
  619TIP3   OH223271   0.301   6.635   5.107  0.3222 -0.6609 -0.2199
  619TIP3    H123272   0.322   6.594   5.023 -1.5838 -1.6617 -0.2747
  619TIP3    H223273   0.325   6.569   5.172  1.0622 -0.2051 -0.0295
  620TIP3   OH223274   1.451   5.129   4.534 -0.0517 -0.0836 -0.2711
  620TIP3    H123275   1.514   5.143   4.464  0.3665 -0.0680  0.1044
  620TIP3    H223276   1.394   5.206   4.531 -1.3383 -1.0309 -1.9274
  621TIP3   OH223277   6.240   1.115   2.808  0.1544  0.0685 -0.9141
  621TIP3    H123278   6.297   1.049   2.767  0.8624  0.6556 -0.8919
  621TIP3    H223279   6.271   1.121   2.898 -1.0015 -0.7683 -0.4258
  622TIP3   OH223280   0.481   0.482  12.292  0.5536 -0.0275  0.0501
  622TIP3    H123281   0.487   0.498  12.386  1.5749  0.4730 -0.0857
  622TIP3    H223282   0.526   0.399  12.278 -0.5188 -0.6381  0.1258
  623TIP3   OH223283   4.698   6.378  15.140  0.2239 -0.2504 -0.5174
  623TIP3    H123284   4.724   6.413  15.225  0.9474 -0.5471 -0.6142
  623TIP3    H223285   4.749   6.298  15.130 -0.6770 -0.8089 -0.7433
  624TIP3   OH223286   6.730   1.366   3.150  0.0485  0.5456  0.1426
  624TIP3    H123287   6.739   1.397   3.059  0.0723 -0.2326 -0.1238
  624TIP3    H223288   6.668   1.426   3.190 -1.0939  0.0198 -0.8023
  625TIP3   OH223289   1.003   6.256   5.149  0.4593 -0.5994 -0.4325
  625TIP3    H123290   1.015   6.298   5.234  0.6458 -0.4220 -0.5457
  625TIP3    H223291   0.948   6.316   5.100  3.7546  1.4712 -1.9621
  626TIP3   OH223292   6.180   6.155  16.917 -0.4583 -0.5652 -0.3378
  626TIP3    H123293   6.250   6.103  16.958 -0.3051 -0.0104  0.1165
  626TIP3    H223294   6.105   6.144  16.975 -0.7902 -1.2407 -0.8795
  627TIP3   OH223295   5.453   1.634   2.919  0.6727 -0.0178  0.0862
  627TIP3    H123296   5.481   1.590   2.999  0.0423 -1.3629 -0.4125
  627TIP3    H223297   5.409   1.714   2.950 -0.4461 -1.0064  1.1476
  628TIP3   OH223298   4.263   3.746   0.457  0.0901  0.6172  0.1011
  628TIP3    H123299   4.294   3.736   0.367 -0.4434  0.2006 -0.0394
  628TIP3    H223300   4.303   3.673   0.504 -1.6921 -0.7208 -0.3624
  629TIP3   OH223301   0.951   1.433  16.746 -0.1046 -0.1382 -0.2556
  629TIP3    H123302   0.937   1.361  16.685  0.3111 -1.2055  0.8721
  629TIP3    H223303   0.960   1.391  16.831  2.5576  0.9923  0.1222
  630TIP3   OH223304   5.210   4.101   0.553 -0.4759 -0.3195  0.0644
  630TIP3    H123305   5.289   4.081   0.603 -0.8486 -1.9622  0.0647
  630TIP3    H223306   5.174   4.179   0.595  1.0712  0.4127  0.1227
  631TIP3   OH223307   3.196   1.608   5.434  0.0099  0.0619  0.0268
  631TIP3    H123308   3.283   1.578   5.459 -0.3773 -2.2556 -1.1141
  631TIP3    H223309   3.149   1.528   5.409 -2.0771  1.3630 -0.5300
  632TIP3   OH223310   3.376   0.655  10.438  0.0212 -0.1780  0.5270
  632TIP3    H123311   3.436   0.688  10.371 -1.3847 -0.1185 -0.7472
  632TIP3    H223312   3.432   0.605  10.498  1.5701  1.1731  0.2761
  633TIP3   OH223313   1.748   3.132   1.738  0.4203  0.5990 -0.1770
  633TIP3    H123314   1.794   3.187   1.801  0.8012 -2.3266  2.3697
  633TIP3    H223315   1.818   3.092   1.687  0.5581 -0.9981  1.1765
  634TIP3   OH223316   6.315   2.960  10.769 -0.0796 -0.1777 -0.4649
  634TIP3    H123317   6.254   2.901  10.813  0.7525 -0.3799  0.4488
  634TIP3    H223318   6.388   2.904  10.744  0.1434  0.2291 -0.7399
  635TIP3   OH223319   0.541   0.118   2.211  0.0075  0.2445  1.0505
  635TIP3    H123320   0.479   0.094   2.280  0.4819  0.3346  1.5206
  635TIP3    H223321   0.499   0.091   2.130 -0.2496 -0.5208  1.4317
  636TIP3   OH223322   0.515   5.018   3.381  0.3656  0.2768  0.1467
  636TIP3    H123323   0.593   5.055   3.421  1.2874 -1.9748  0.5906
  636TIP3    H223324   0.491   4.946   3.439 -1.6948  0.5225 -0.3311
  637TIP3   OH223325   5.229   3.513  11.921 -0.0636  0.3660  0.3483
  637TIP3    H123326   5.168   3.441  11.939 -0.0678  0.9516  3.2737
  637TIP3    H223327   5.272   3.529  12.006  3.2027  0.8832 -1.2290
  638TIP3   OH223328   2.281   3.960   2.854 -0.0377  0.6206  0.1992
  638TIP3    H123329   2.314   4.048   2.873 -1.2884  0.8720  1.4462
  638TIP3    H223330   2.259   3.924   2.940  0.1456 -0.8002 -0.3190
  639TIP3   OH223331   5.394   6.085   4.223  0.3621  0.0868  1.3505
  639TIP3    H123332   5.440   6.134   4.156  0.1195 -0.3488  0.8609
  639TIP3    H223333   5.410   6.134   4.304 -1.5755  2.1607  0.5860
  640TIP3   OH223334   1.173   2.143   1.899  0.7271  0.0786 -0.6810
  640TIP3    H123335   1.122   2.224   1.906  3.4759  1.8637  0.4850
  640TIP3    H223336   1.179   2.126   1.805 -0.2343  0.9810 -0.9212
  641TIP3   OH223337   0.326   0.080   0.584  0.4598 -0.3298  0.0708
  641TIP3    H123338   0.358  -0.008   0.564  1.4372  0.1306 -0.4463
  641TIP3    H223339   0.338   0.089   0.679  1.6606 -0.2772 -0.0612
  642TIP3   OH223340   3.275   1.502   2.657 -0.2347  0.0896 -0.4463
  642TIP3    H123341   3.221   1.570   2.617 -1.3159  0.2518  1.1633
  642TIP3    H223342   3.295   1.536   2.744  1.7444 -0.3761 -0.6791
  643TIP3   OH223343   4.900   1.328  16.516 -0.0649  0.2720 -0.7369
  643TIP3    H123344   4.898   1.256  16.453 -0.5825 -2.0708  1.7816
  643TIP3    H223345   4.993   1.342  16.533  0.0643 -2.2049  1.1681
  644TIP3   OH223346   3.872   0.556  14.380  0.1106 -0.1504  0.2119
  644TIP3    H123347   3.911   0.540  14.465 -0.5376  2.4235  1.0817
  644TIP3    H223348   3.931   0.617  14.337 -0.7618  0.4178 -0.2181
  645TIP3   OH223349   2.268   6.631  12.628 -0.3801 -0.3367  0.4094
  645TIP3    H123350   2.292   6.653  12.538 -0.0945 -1.7046  0.1325
  645TIP3    H223351   2.344   6.584  12.663 -1.7097 -2.7616  0.2508
  646TIP3   OH223352   3.137   3.641   2.809 -0.1486  0.2226  0.1351
  646TIP3    H123353   3.042   3.643   2.802 -0.2797 -0.2500  1.4523
  646TIP3    H223354   3.158   3.705   2.878  0.3679 -0.6082  0.7709
  647TIP3   OH223355   3.775   2.694  11.531  0.0228  0.1519 -0.4013
  647TIP3    H123356   3.844   2.748  11.570 -0.9489  3.6127 -2.9366
  647TIP3    H223357   3.816   2.657  11.453 -0.3454  0.4268 -0.7303
  648TIP3   OH223358   4.834   3.003   1.983  0.5912 -0.1986  0.0075
  648TIP3    H123359   4.782   2.941   1.931  1.7159 -0.0857 -1.2966
  648TIP3    H223360   4.890   2.947   2.037  1.4743 -0.3551 -1.0353
  649TIP3   OH223361   6.248   0.706  13.868  0.1461  0.2823  0.3426
  649TIP3    H123362   6.236   0.790  13.823 -2.3039 -0.3267 -0.3170
  649TIP3    H223363   6.216   0.721  13.956  1.8962  0.6011  0.9672
  650TIP3   OH223364   2.999   5.137  13.344  0.2640 -0.1548 -0.1110
  650TIP3    H123365   3.090   5.159  13.329  0.2260  0.5453  0.6286
  650TIP3    H223366   2.966   5.207  13.401 -0.9645  0.0790 -1.0633
  651TIP3   OH223367   3.011   1.277   0.618  0.0895  0.8414 -0.3641
  651TIP3    H123368   3.082   1.302   0.559  1.3574 -2.8255 -0.6531
  651TIP3    H223369   2.941   1.249   0.560 -0.7259  2.1897 -0.0634
  652TIP3   OH223370   2.719   1.853   1.286 -0.0705 -0.5195  0.2272
  652TIP3    H123371   2.666   1.780   1.254  1.0306 -0.8532 -0.8910
  652TIP3    H223372   2.790   1.812   1.335  1.4139 -0.3448 -1.6578
  653TIP3   OH223373   5.295   4.327   5.591  0.6062  0.0879 -0.5755
  653TIP3    H123374   5.335   4.242   5.607  0.0151  0.0928  1.1117
  653TIP3    H223375   5.200   4.311   5.595  0.4836  0.9695  0.8201
  654TIP3   OH223376   6.623   4.819   2.928 -0.3794 -0.2616  0.0473
  654TIP3    H123377   6.535   4.830   2.892  0.2703  0.3081 -1.4562
  654TIP3    H223378   6.660   4.907   2.929 -0.4203 -0.2314  2.3533
  655TIP3   OH223379   3.280   2.987  12.725 -0.1562 -0.4997  0.2424
  655TIP3    H123380   3.200   2.942  12.696 -0.2163 -0.4179  0.2836
  655TIP3    H223381   3.311   2.934  12.799 -0.1219 -0.5841  0.1680
  656TIP3   OH223382   4.240   0.516  14.157 -0.0321 -0.4297  0.6608
  656TIP3    H123383   4.148   0.515  14.129 -0.4099  0.5205  1.8109
  656TIP3    H223384   4.257   0.607  14.181  1.7956 -0.1566 -1.3167
  657TIP3   OH223385   1.838   2.338   1.626  0.5014 -0.3458  0.0348
  657TIP3    H123386   1.750   2.376   1.631  0.3625 -0.5370 -0.8947
  657TIP3    H223387   1.867   2.336   1.717 -0.8000 -1.0930  0.4701
  658TIP3   OH223388   1.019   4.214   5.046 -0.1514  0.1058 -0.8381
  658TIP3    H123389   1.058   4.301   5.040 -0.4026  0.2611 -0.3609
  658TIP3    H223390   1.093   4.154   5.052  0.0337  0.4171  0.3108
  659TIP3   OH223391   1.604   2.576   3.605 -0.0081  0.2059 -0.1835
  659TIP3    H123392   1.603   2.495   3.552 -0.3419 -0.0158  0.1584
  659TIP3    H223393   1.614   2.646   3.541  2.1935 -0.2016 -0.3654
  660TIP3   OH223394   1.554   1.495  16.015 -0.2316 -0.4140 -0.2533
  660TIP3    H123395   1.463   1.497  16.045 -0.0221  0.3850  0.3698
  660TIP3    H223396   1.576   1.402  16.012 -0.2915 -0.5492  2.0355
  661TIP3   OH223397   4.021   4.902  12.518  0.1554  0.1380 -0.0214
  661TIP3    H123398   3.972   4.983  12.534  0.3193  0.6699 -1.9848
  661TIP3    H223399   3.959   4.844  12.474  0.6847  0.0542 -0.6736
  662TIP3   OH223400   3.377   0.370  12.236 -0.8452  0.6963 -0.2258
  662TIP3    H123401   3.403   0.356  12.145  2.9554 -0.0126  0.7712
  662TIP3    H223402   3.432   0.443  12.265  1.5271 -1.9204  2.5600
  663TIP3   OH223403   2.383   0.359   5.661  0.3798  0.3163  0.4192
  663TIP3    H123404   2.382   0.342   5.755  1.1287  0.8184  0.5270
  663TIP3    H223405   2.446   0.297   5.626 -1.9575 -1.8757 -0.1993
  664TIP3   OH223406   2.493   2.141  15.611 -0.3183  0.0368 -0.5523
  664TIP3    H123407   2.491   2.202  15.685 -2.2691  0.8350 -1.1878
  664TIP3    H223408   2.434   2.181  15.547 -2.9748 -3.2274 -0.4124
  665TIP3   OH223409   1.482   3.534   5.712  0.3492 -0.1803  0.3342
  665TIP3    H123410   1.542   3.504   5.644 -0.9535  0.2297 -1.0537
  665TIP3    H223411   1.433   3.455   5.737  0.1705 -0.1462  0.0956
  666TIP3   OH223412   6.731   0.663   2.446 -0.1461 -0.6656  0.2418
  666TIP3    H123413   6.774   0.601   2.505 -0.5954 -0.3852  0.8683
  666TIP3    H223414   6.744   0.625   2.359 -1.4213 -2.2812  0.6922
  667TIP3   OH223415   4.812   6.410  16.685  0.1421 -0.9503  0.2291
  667TIP3    H123416   4.829   6.494  16.728  0.7914 -1.1843  0.4332
  667TIP3    H223417   4.717   6.410  16.670  0.1644 -0.0904  0.0372
  668TIP3   OH223418   3.643   5.132  16.404  0.2731  0.4818  0.1902
  668TIP3    H123419   3.618   5.100  16.491 -0.5622 -0.8330 -0.4923
  668TIP3    H223420   3.604   5.219  16.398 -1.2749 -0.1498  0.4609
  669TIP3   OH223421   1.126   2.213   6.203  0.5112  0.1741  0.1782
  669TIP3    H123422   1.161   2.129   6.175  1.3011  0.5075  0.1404
  669TIP3    H223423   1.103   2.200   6.295  0.0053 -0.2664 -0.0029
  670TIP3   OH223424   3.345   0.730   0.816  0.3572  0.0200 -0.2913
  670TIP3    H123425   3.413   0.768   0.761  0.8975 -0.7679 -0.1747
  670TIP3    H223426   3.375   0.641   0.834 -0.3998 -0.1299  0.2796
  671TIP3   OH223427   2.016   6.626  16.333 -0.1006  0.1749 -0.4475
  671TIP3    H123428   1.999   6.702  16.277 -1.2697 -0.9078 -1.6254
  671TIP3    H223429   1.937   6.573  16.326 -0.1844 -0.1396  2.0721
  672TIP3   OH223430   4.412   1.994   1.469  0.0694 -1.1084 -0.4850
  672TIP3    H123431   4.478   2.061   1.486  0.3141 -0.5414 -3.2135
  672TIP3    H223432   4.438   1.956   1.385 -1.4708 -2.9301 -0.2124
  673TIP3   OH223433   4.909   5.714   0.796 -0.0420 -0.5550  0.6467
  673TIP3    H123434   4.929   5.622   0.780 -0.5585 -0.7031  0.8027
  673TIP3    H223435   4.906   5.754   0.709  0.7084 -0.5636  0.6101
  674TIP3   OH223436   0.038   6.094   4.092 -0.2195 -0.3847  0.1132
  674TIP3    H123437   0.007   6.171   4.142  2.8756  1.3479 -0.3673
  674TIP3    H223438   0.009   6.111   4.003 -2.0897 -1.3513  0.4864
  675TIP3   OH223439   3.167   3.393  14.109 -0.3373 -0.6422 -0.3045
  675TIP3    H123440   3.102   3.342  14.062 -1.8749 -0.2621  1.3270
  675TIP3    H223441   3.130   3.406  14.196  0.9491  1.4193  0.0140
  676TIP3   OH223442   1.586   3.545  10.413 -0.4247 -0.0322 -0.1061
  676TIP3    H123443   1.589   3.449  10.402 -0.0466  0.0644 -0.9546
  676TIP3    H223444   1.496   3.568  10.393 -0.0213  0.0050 -2.0669
  677TIP3   OH223445   2.250   4.725  11.217  0.4320  0.3603  0.0852
  677TIP3    H123446   2.339   4.758  11.211  0.4516  0.1031 -1.2981
  677TIP3    H223447   2.200   4.779  11.156 -0.0437 -0.4678 -0.2818
  678TIP3   OH223448   3.740   1.218   0.988  0.4305 -0.5762  0.2631
  678TIP3    H123449   3.782   1.143   1.030  0.2232 -0.9930 -0.2492
  678TIP3    H223450   3.719   1.277   1.059  2.8628  0.1655  0.4500
  679TIP3   OH223451   0.141   5.927   5.381  0.2176 -0.0969 -0.2602
  679TIP3    H123452   0.053   5.932   5.344 -0.0291 -0.2161  0.3025
  679TIP3    H223453   0.130   5.950   5.473  0.7951  0.0080 -0.2137
  680TIP3   OH223454   3.909   0.664  12.866  0.0176 -0.1376 -0.0238
  680TIP3    H123455   3.873   0.581  12.835 -0.1941 -0.6047  1.3929
  680TIP3    H223456   3.850   0.731  12.830  0.8744 -0.4637 -2.1736
  681TIP3   OH223457   5.060   6.128   1.708 -0.2231 -0.1146 -0.3443
  681TIP3    H123458   5.144   6.173   1.713  1.2827 -2.7712  0.6906
  681TIP3    H223459   5.040   6.124   1.615 -0.2803  2.2730 -0.4953
  682TIP3   OH223460   5.793   6.463  17.061  0.4628 -0.0262  0.0613
  682TIP3    H123461   5.760   6.394  17.004 -0.3588 -0.4863  1.0533
  682TIP3    H223462   5.807   6.537  17.003 -0.9766 -0.2669 -0.6477
  683TIP3   OH223463   5.939   2.558   3.742  0.6521  0.2001  0.2040
  683TIP3    H123464   5.891   2.484   3.780 -1.5246 -0.1991 -2.9042
  683TIP3    H223465   5.963   2.527   3.654  1.0136  2.6668 -0.6296
  684TIP3   OH223466   2.810   6.242   3.592  0.2115  0.9042 -0.2273
  684TIP3    H123467   2.871   6.227   3.520  0.1008  0.9894 -0.3413
  684TIP3    H223468   2.833   6.328   3.627  0.0451  1.0164 -0.3867
  685TIP3   OH223469   0.620   5.587   4.200 -0.8821  0.1945 -0.2119
  685TIP3    H123470   0.656   5.560   4.284  0.3543  1.5543 -0.2783
  685TIP3    H223471   0.525   5.581   4.212 -0.7042 -1.5478  0.6064
  686TIP3   OH223472   4.199   0.454   3.323  1.0956 -0.2539 -0.4281
  686TIP3    H123473   4.205   0.490   3.411  0.0376 -1.0835  0.0099
  686TIP3    H223474   4.116   0.487   3.289  0.6881 -1.2836 -0.4656
  687TIP3   OH223475   0.030   4.962   1.086 -0.2382  0.6615 -0.2267
  687TIP3    H123476   0.019   4.887   1.145 -0.6153  0.8089 -0.1058
  687TIP3    H223477   0.005   4.929   1.000  0.7007  0.3335 -0.3855
  688TIP3   OH223478   1.632   2.628   3.068 -0.1531 -0.1045  0.5338
  688TIP3    H123479   1.552   2.628   3.121  0.1194  0.5519  0.9651
  688TIP3    H223480   1.602   2.650   2.980 -0.3268  1.3996  0.9334
  689TIP3   OH223481   6.433   3.144  16.533  0.8499  0.5038  0.2175
  689TIP3    H123482   6.444   3.209  16.603  1.0880  1.1033 -0.3698
  689TIP3    H223483   6.517   3.142  16.488  1.1839 -0.9680  0.8548
  690TIP3   OH223484   0.298   5.519   3.108 -0.2555  0.2813  0.2557
  690TIP3    H123485   0.264   5.604   3.080 -1.0991 -0.2245 -0.2792
  690TIP3    H223486   0.242   5.495   3.183 -0.1749  0.0859  0.2532
  691TIP3   OH223487   5.371   4.348  13.128 -0.3004 -0.1123  0.2418
  691TIP3    H123488   5.354   4.383  13.041  0.2069 -3.0349 -1.1717
  691TIP3    H223489   5.455   4.385  13.154 -0.7983  1.3514 -0.1470
  692TIP3   OH223490   2.476   5.450   4.683  1.0586  0.0477 -0.7492
  692TIP3    H123491   2.530   5.490   4.615 -1.3924 -0.8694 -3.4561
  692TIP3    H223492   2.457   5.362   4.650  1.0470 -1.0502  1.9342
  693TIP3   OH223493   3.909   0.032  12.646  0.0050 -0.9465 -0.2154
  693TIP3    H123494   3.908   0.032  12.550 -0.4051 -1.0193 -0.2122
  693TIP3    H223495   4.002   0.034  12.669  0.1003 -0.4752 -0.6157
  694TIP3   OH223496   4.193   2.010  14.355  0.3021 -0.2483 -0.2340
  694TIP3    H123497   4.193   1.936  14.416 -0.9479 -0.2516 -0.2016
  694TIP3    H223498   4.219   1.973  14.271  2.4461 -0.1683  0.3419
  695TIP3   OH223499   0.460   4.216   6.479 -0.2357 -0.3711  0.1498
  695TIP3    H123500   0.479   4.166   6.558  0.3307 -0.8874 -0.3095
  695TIP3    H223501   0.403   4.159   6.428  0.0868 -0.3761 -0.1990
  696TIP3   OH223502   2.695   4.847  12.329  0.1145  0.1666 -0.0068
  696TIP3    H123503   2.730   4.927  12.292 -0.4534  1.1895  1.5636
  696TIP3    H223504   2.601   4.861  12.334  0.1196 -0.0767  1.3742
  697TIP3   OH223505   3.486   4.653  15.263 -0.1947  0.1496 -0.1425
  697TIP3    H123506   3.532   4.690  15.187  2.2472 -1.6797  0.3248
  697TIP3    H223507   3.533   4.687  15.339 -1.0370 -0.0136  0.4656
  698TIP3   OH223508   4.183   0.807   0.847  0.8678 -0.4117  0.0810
  698TIP3    H123509   4.113   0.871   0.835  0.2153 -0.5337  2.6224
  698TIP3    H223510   4.140   0.722   0.839  1.1762 -0.5184 -0.5008
  699TIP3   OH223511   5.221   1.588   0.200  0.7961  0.3851 -0.4654
  699TIP3    H123512   5.131   1.619   0.195  0.4837 -0.6685 -4.1981
  699TIP3    H223513   5.248   1.605   0.291 -3.0220  0.9703  0.7077
  700TIP3   OH223514   2.967   6.527   6.144 -0.7345  0.2200 -0.3341
  700TIP3    H123515   2.993   6.602   6.199  0.3357 -0.9664  0.8687
  700TIP3    H223516   3.049   6.481   6.128 -1.1988 -0.0635 -2.0825
  701TIP3   OH223517   0.906   2.353  13.511 -0.4605  0.3079 -0.2614
  701TIP3    H123518   0.862   2.438  13.506 -0.2214  0.6269  2.0072
  701TIP3    H223519   0.992   2.368  13.472 -1.2553  0.4446 -2.0408
  702TIP3   OH223520   6.051   0.099  13.911 -0.7052 -0.2359  0.3786
  702TIP3    H123521   5.963   0.076  13.881 -0.8708 -1.9693  2.0421
  702TIP3    H223522   6.104   0.023  13.891  0.1497  0.3090  0.5330
  703TIP3   OH223523   5.145   6.218   1.269 -0.2156  0.1616  0.3709
  703TIP3    H123524   5.138   6.258   1.355 -1.0810  1.2329 -0.1632
  703TIP3    H223525   5.222   6.162   1.274  0.9904  1.8134  1.2208
  704TIP3   OH223526   4.110   4.007  14.437  0.4221  0.2554 -0.4093
  704TIP3    H123527   4.128   4.013  14.343  1.7184  3.4412 -0.0620
  704TIP3    H223528   4.191   3.974  14.475  0.6272  0.9859 -0.2111
  705TIP3   OH223529   1.127   4.439   1.917 -0.6682  0.0940 -1.0418
  705TIP3    H123530   1.218   4.445   1.889 -0.0385 -1.8317  0.3798
  705TIP3    H223531   1.090   4.369   1.863 -0.8899 -0.1088 -0.6326
  706TIP3   OH223532   0.088   1.948  13.966 -0.1720 -0.3776  0.2091
  706TIP3    H123533   0.162   1.932  13.908 -0.0760  1.3076 -0.2001
  706TIP3    H223534   0.104   2.036  14.001 -1.9916  0.0564  0.0731
  707TIP3   OH223535   1.140   2.432  13.393  0.0253 -0.9285 -0.5163
  707TIP3    H123536   1.197   2.359  13.368  0.9463 -0.3504 -0.1050
  707TIP3    H223537   1.198   2.507  13.403 -0.5557 -0.6880  1.5333
  708TIP3   OH223538   5.431   6.492   0.910  0.4092 -0.4861 -0.1656
  708TIP3    H123539   5.524   6.518   0.910  0.2246  0.2122  0.5633
  708TIP3    H223540   5.431   6.403   0.874  1.5590 -1.1602  1.4219
  709TIP3   OH223541   5.031   1.914   0.029 -0.1417  0.3047 -0.4065
  709TIP3    H123542   4.977   1.985   0.065 -0.2654  1.1031 -2.0676
  709TIP3    H223543   5.120   1.948   0.033 -0.0882  0.1531 -0.3093
  710TIP3   OH223544   0.107   4.580  11.842  0.0982  0.3775  0.1170
  710TIP3    H123545   0.129   4.663  11.884 -0.0021 -0.5104  1.9872
  710TIP3    H223546   0.092   4.519  11.914  1.5691 -1.6556 -1.1996
  711TIP3   OH223547   2.920   3.291   6.060 -0.3793 -0.3753 -0.0745
  711TIP3    H123548   2.994   3.238   6.031 -0.0695 -0.2323  0.4410
  711TIP3    H223549   2.854   3.278   5.992 -0.8169 -2.4611  0.6772
  712TIP3   OH223550   0.050   5.561   4.245  0.5102  0.0107  0.4246
  712TIP3    H123551   0.054   5.635   4.306  2.2956 -0.5326  1.0245
  712TIP3    H223552   0.046   5.601   4.159  1.4570  0.8124  0.7423
  713TIP3   OH223553   1.820   2.134  14.623  0.0853 -0.1648  0.6099
  713TIP3    H123554   1.801   2.097  14.709 -1.1417  1.2301  0.9699
  713TIP3    H223555   1.803   2.227  14.632 -2.1357 -0.2545 -1.6606
  714TIP3   OH223556   5.437   6.700  16.429 -0.7315 -0.6973 -0.2060
  714TIP3    H123557   5.485   6.619  16.412  2.7786  1.4542 -1.5426
  714TIP3    H223558   5.444   6.712  16.524 -1.5872 -2.0406  0.0589
  715TIP3   OH223559   5.257   3.521  10.625  1.1834  0.3969  0.5424
  715TIP3    H123560   5.284   3.468  10.701  0.5126  1.6228  1.6727
  715TIP3    H223561   5.303   3.481  10.551  1.3182 -1.2769  1.4673
  716TIP3   OH223562   6.318   0.796  11.113 -0.7650 -0.1775 -0.3127
  716TIP3    H123563   6.271   0.754  11.041 -0.8154  0.4686 -0.6620
  716TIP3    H223564   6.349   0.879  11.076 -1.0486  0.2962  0.5044
  717TIP3   OH223565   6.023   1.423  14.210 -0.3069  0.1969  0.7110
  717TIP3    H123566   6.043   1.410  14.117  1.5560  0.7813  0.9799
  717TIP3    H223567   5.963   1.352  14.231  1.6340 -1.8811 -0.2458
  718TIP3   OH223568   6.120   1.472   2.350 -0.3062  0.6810 -0.1064
  718TIP3    H123569   6.160   1.434   2.428 -2.6820 -0.3528  0.6862
  718TIP3    H223570   6.069   1.546   2.382 -0.6430  0.7622 -0.8050
  719TIP3   OH223571   0.706   3.826   5.333  0.2031 -0.0116  1.0323
  719TIP3    H123572   0.697   3.919   5.352  2.3186  0.0957  1.7450
  719TIP3    H223573   0.775   3.821   5.268 -0.3633 -1.0634  0.4715
  720TIP3   OH223574   1.151   0.155   0.169 -0.1065  0.5046  0.6340
  720TIP3    H123575   1.212   0.220   0.134  0.6162 -1.5784 -2.4432
  720TIP3    H223576   1.064   0.191   0.148  0.0148  2.4383  3.0344
  721TIP3   OH223577   6.657   3.522   2.729  0.1592  0.3196 -0.4026
  721TIP3    H123578   6.638   3.473   2.650  1.8273 -1.0212 -0.0492
  721TIP3    H223579   6.644   3.614   2.705 -0.0369 -0.0997 -2.0097
  722TIP3   OH223580   3.229   2.762   6.328  0.2814 -0.0113 -0.0758
  722TIP3    H123581   3.136   2.767   6.351  0.5036 -0.4412  0.9380
  722TIP3    H223582   3.255   2.854   6.316 -0.5079  0.0712 -1.4207
  723TIP3   OH223583   0.469   4.971   2.691 -0.3266  0.2083  0.3189
  723TIP3    H123584   0.525   5.012   2.625 -0.7321  0.7636  0.3152
  723TIP3    H223585   0.433   4.894   2.647 -0.6890  0.6425 -0.1484
  724TIP3   OH223586   5.425   3.238   0.127  0.2478 -0.3206 -0.7186
  724TIP3    H123587   5.423   3.288   0.046  3.3220  0.5812 -0.3823
  724TIP3    H223588   5.485   3.287   0.184 -2.7242 -0.2078  2.6494
  725TIP3   OH223589   4.455   3.783  16.826 -0.2346 -0.2697 -0.3152
  725TIP3    H123590   4.450   3.783  16.922  1.1176 -0.9311 -0.2147
  725TIP3    H223591   4.367   3.805  16.797 -1.0337 -1.4953  1.0628
  726TIP3   OH223592   2.052   3.280  11.615 -0.7989 -0.4108 -0.1529
  726TIP3    H123593   2.041   3.209  11.552 -0.3935 -0.0896 -0.5922
  726TIP3    H223594   2.119   3.336  11.576 -1.4795  0.4822 -0.0606
  727TIP3   OH223595   3.159   5.766   3.803 -0.2258  0.1949  0.1037
  727TIP3    H123596   3.215   5.839   3.832 -0.7684  0.6356  0.0586
  727TIP3    H223597   3.191   5.691   3.853  0.3536  0.4584  0.1405
  728TIP3   OH223598   0.482   5.194  14.759  0.1855 -0.2384  0.3282
  728TIP3    H123599   0.402   5.239  14.734  0.1476  0.3067  1.3645
  728TIP3    H223600   0.524   5.172  14.676  0.8811  2.9104 -0.3061
  729TIP3   OH223601   4.648   1.072   4.322 -0.0293 -0.0280  0.2545
  729TIP3    H123602   4.721   1.065   4.259  1.3140 -1.9016  1.9024
  729TIP3    H223603   4.665   1.154   4.368 -1.3030  1.6335 -2.0252
  730TIP3   OH223604   0.644   4.978  11.791  0.0910 -1.1209 -0.1216
  730TIP3    H123605   0.709   4.995  11.859 -0.2466  1.3602 -0.3247
  730TIP3    H223606   0.632   4.883  11.792  1.7456 -1.3672  1.7205
  731TIP3   OH223607   4.750   5.253  14.354 -0.0324  0.0522  0.2949
  731TIP3    H123608   4.776   5.211  14.272  0.3777  0.3383  0.2737
  731TIP3    H223609   4.832   5.286  14.391 -0.1886 -0.2160  0.9051
  732TIP3   OH223610   0.332   2.360  12.040  0.1361  0.3080  0.3061
  732TIP3    H123611   0.292   2.406  11.966  0.0615  0.2825  0.3304
  732TIP3    H223612   0.324   2.422  12.113 -1.6491 -0.4445  0.8128
  733TIP3   OH223613   0.570   6.551  17.204 -0.1013 -0.3602  0.8407
  733TIP3    H123614   0.530   6.618  17.259  0.6305 -1.3462  2.6729
  733TIP3    H223615   0.517   6.472  17.219  0.7478 -0.9163  0.9985
  734TIP3   OH223616   3.449   1.960   4.958  0.3043  0.2560 -0.1705
  734TIP3    H123617   3.496   1.960   5.041 -1.0420  0.2201  0.6317
  734TIP3    H223618   3.501   2.016   4.900  2.4567 -1.4689 -0.0574
  735TIP3   OH223619   5.605   5.131   4.016  0.1969 -0.2628  0.3627
  735TIP3    H123620   5.558   5.176   4.087 -0.5570  0.7275 -0.7197
  735TIP3    H223621   5.670   5.195   3.987  0.6874 -0.7700  0.3339
  736TIP3   OH223622   6.578   2.632  14.177 -0.0461  0.1164  0.5756
  736TIP3    H123623   6.501   2.615  14.231  0.0649  1.5458  1.2336
  736TIP3    H223624   6.646   2.657  14.239  0.0651  1.8679 -0.1824
  737TIP3   OH223625   3.396   6.575  15.538 -0.2167  0.8666 -0.3995
  737TIP3    H123626   3.408   6.596  15.630 -0.0167 -1.7089  0.2310
  737TIP3    H223627   3.445   6.494  15.525 -3.9193 -1.4159 -1.5832
  738TIP3   OH223628   0.193   0.001   1.066  0.3018 -0.8386 -0.9202
  738TIP3    H123629   0.231   0.045   1.142  0.0390 -2.0154 -0.0770
  738TIP3    H223630   0.265  -0.003   1.002  0.6724 -0.2826 -0.5469
  739TIP3   OH223631   2.478   5.078  15.949  0.5637 -0.3898 -0.4106
  739TIP3    H123632   2.413   5.136  15.909  1.6262  0.1927 -1.3583
  739TIP3    H223633   2.427   5.004  15.981 -0.8716  1.1640  1.0963
  740TIP3   OH223634   3.374   1.673  17.210  0.0623  0.3090  0.0012
  740TIP3    H123635   3.400   1.734  17.278 -0.5484  0.7893 -0.1905
  740TIP3    H223636   3.335   1.599  17.257 -0.2529  0.5894  0.1823
  741TIP3   OH223637   4.564   1.927   3.514 -0.4029 -0.3658  0.3058
  741TIP3    H123638   4.484   1.904   3.561 -1.2492  0.0328 -0.8918
  741TIP3    H223639   4.632   1.926   3.581 -1.6515  0.7569  1.6621
  742TIP3   OH223640   3.309   4.430   3.176  0.1904  0.7099 -0.0310
  742TIP3    H123641   3.308   4.518   3.140  0.1225  0.6187 -0.2539
  742TIP3    H223642   3.264   4.376   3.110 -2.3953  0.9828  1.3588
  743TIP3   OH223643   1.521   5.968   0.719  0.2431  0.0338  0.7908
  743TIP3    H123644   1.550   5.955   0.629  1.0766 -0.4234  1.1152
  743TIP3    H223645   1.506   6.062   0.726  1.3484  0.2500  0.5029
  744TIP3   OH223646   2.491   3.210  12.165 -0.1234 -0.1228  0.0485
  744TIP3    H123647   2.540   3.284  12.201  1.3819 -1.0639  0.0376
  744TIP3    H223648   2.496   3.142  12.233 -3.1369  0.3561  0.9067
  745TIP3   OH223649   6.566   2.805  13.509  0.0473 -0.1143  0.9954
  745TIP3    H123650   6.622   2.740  13.552 -0.4164 -2.4004 -1.5226
  745TIP3    H223651   6.487   2.756  13.487 -1.0053  1.7920  0.3907
  746TIP3   OH223652   4.639   5.811   4.144  0.1872  0.1451 -0.3361
  746TIP3    H123653   4.705   5.786   4.209 -0.3440  1.1209  0.6193
  746TIP3    H223654   4.586   5.876   4.189 -1.2633 -0.4132 -1.1862
  747TIP3   OH223655   1.713   6.226   0.981  0.2979  0.4845 -0.3073
  747TIP3    H123656   1.768   6.304   0.973 -0.3769  1.1671  1.2950
  747TIP3    H223657   1.744   6.182   1.060 -1.3816  0.8624  0.6175
  748TIP3   OH223658   4.576   3.549  12.476  0.4134 -0.0534 -0.8324
  748TIP3    H123659   4.583   3.584  12.565  2.0557  3.4230 -2.1488
  748TIP3    H223660   4.622   3.465  12.480  2.1013  0.8588  1.2339
  749TIP3   OH223661   3.645   1.060   3.731 -0.1588  0.2231  0.3318
  749TIP3    H123662   3.706   1.119   3.776 -0.2481  1.0581 -0.5990
  749TIP3    H223663   3.567   1.114   3.715 -2.0030 -1.3287  3.1923
  750TIP3   OH223664   6.049   5.652  11.412 -0.0169  0.0883 -0.1457
  750TIP3    H123665   5.982   5.700  11.462 -0.7768 -0.7362 -0.3570
  750TIP3    H223666   6.052   5.566  11.454 -1.1414 -0.8538 -1.8853
  751TIP3   OH223667   6.531   3.733   4.570  0.4428  0.0968  0.4264
  751TIP3    H123668   6.608   3.771   4.612  0.6857 -1.7309  1.7713
  751TIP3    H223669   6.457   3.765   4.620  0.5940 -0.6064  1.1195
  752TIP3   OH223670   2.938   4.488   2.461  0.1135  0.4663  0.0517
  752TIP3    H123671   2.931   4.401   2.499 -0.0878  0.0867 -0.8377
  752TIP3    H223672   3.027   4.517   2.483 -0.3953  0.7632  1.8445
  753TIP3   OH223673   2.156   0.417  15.992  0.4117 -0.6167  0.0109
  753TIP3    H123674   2.070   0.415  16.034  0.1677 -4.2585 -0.3289
  753TIP3    H223675   2.143   0.471  15.914 -1.0728  0.2665  0.8224
  754TIP3   OH223676   2.977   3.992  15.866  0.1868  0.0585  0.1675
  754TIP3    H123677   3.043   4.061  15.872  0.0655  0.3551 -1.4035
  754TIP3    H223678   3.027   3.915  15.837 -0.3515  0.7409 -2.8696
  755TIP3   OH223679   3.128   4.847   3.917 -0.1581  0.4618  0.1265
  755TIP3    H123680   3.052   4.811   3.872  1.3978 -1.8124 -0.8847
  755TIP3    H223681   3.162   4.773   3.968  1.5066  1.3334  0.3364
  756TIP3   OH223682   0.051   2.314   4.284  0.2550 -0.6958 -0.1342
  756TIP3    H123683   0.122   2.270   4.330  0.4215  0.9248  1.2874
  756TIP3    H223684   0.006   2.245   4.236  1.0836 -2.2169  1.1863
  757TIP3   OH223685   4.348   2.099  15.734  0.5262 -0.1478 -0.4071
  757TIP3    H123686   4.332   2.077  15.642  2.4202 -1.1679 -0.5322
  757TIP3    H223687   4.443   2.101  15.742  0.4617  2.9646  0.8579
  758TIP3   OH223688   3.854   3.689  14.843 -0.1078  0.0483  0.5767
  758TIP3    H123689   3.884   3.677  14.932  0.4004  0.4338  0.4622
  758TIP3    H223690   3.784   3.754  14.850  0.6845  0.9215  0.5695
  759TIP3   OH223691   4.852   4.870  11.741  0.4845  0.0367  0.8436
  759TIP3    H123692   4.865   4.789  11.791  2.0894 -1.1572 -1.3251
  759TIP3    H223693   4.923   4.927  11.769  2.0236 -1.0260 -0.6961
  760TIP3   OH223694   1.809   1.331  14.711  0.0455 -0.1458 -0.4845
  760TIP3    H123695   1.827   1.398  14.645 -0.7554 -0.7886 -1.3690
  760TIP3    H223696   1.801   1.381  14.793 -1.0481  0.9290 -1.2021
  761TIP3   OH223697   4.240   1.637  16.103  0.1167 -0.0061 -0.4534
  761TIP3    H123698   4.315   1.579  16.110 -0.9594 -1.4870 -0.5682
  761TIP3    H223699   4.255   1.705  16.168  0.7461 -1.2162  0.7066
  762TIP3   OH223700   3.336   1.235   0.592 -0.6069  0.0054 -0.6914
  762TIP3    H123701   3.423   1.196   0.585 -0.3743  0.8056 -3.2140
  762TIP3    H223702   3.278   1.161   0.613  0.5854 -0.6011  0.5850
  763TIP3   OH223703   1.817   0.179  14.493 -0.3376  0.2106  0.0586
  763TIP3    H123704   1.793   0.102  14.441  2.0120 -0.0690 -0.7103
  763TIP3    H223705   1.881   0.146  14.557 -0.1321  1.3222  0.4534
  764TIP3   OH223706   2.611   0.869   1.621  0.3872 -0.1402  0.0390
  764TIP3    H123707   2.641   0.830   1.703  2.2943  0.3546 -0.3821
  764TIP3    H223708   2.543   0.931   1.648  0.1381 -0.8509  1.1111
  765TIP3   OH223709   3.705   4.207   4.628  0.5158  0.1609 -0.7718
  765TIP3    H123710   3.618   4.186   4.594  0.0719  1.8146 -0.7505
  765TIP3    H223711   3.746   4.122   4.643 -1.0150 -0.6526 -0.9828
  766TIP3   OH223712   4.523   2.835  11.334 -0.2087  0.1233 -0.0913
  766TIP3    H123713   4.427   2.838  11.342 -0.0738 -0.4178  2.8553
  766TIP3    H223714   4.540   2.864  11.244 -3.1099  0.3754 -0.6744
  767TIP3   OH223715   2.962   6.551  13.228  0.0065 -0.3357  0.0091
  767TIP3    H123716   3.052   6.553  13.262 -0.1138  0.1955  0.3080
  767TIP3    H223717   2.927   6.638  13.247  0.0494  0.1271 -1.8314
  768TIP3   OH223718   3.076   1.129   4.644  0.0584 -0.2768  0.2878
  768TIP3    H123719   3.171   1.132   4.659  0.1280 -0.7751 -0.0505
  768TIP3    H223720   3.066   1.151   4.551 -0.2265  0.6785  0.5272
  769TIP3   OH223721   4.066   2.061  11.489 -0.2042 -0.4283 -0.2792
  769TIP3    H123722   4.123   2.094  11.420  0.2202 -1.9324 -0.6969
  769TIP3    H223723   3.993   2.122  11.492  1.7151  1.9982  0.7618
  770TIP3   OH223724   0.984   0.371   0.465 -0.6564 -0.1887  0.3373
  770TIP3    H123725   0.952   0.454   0.433  0.3767 -0.1293 -0.5904
  770TIP3    H223726   0.966   0.308   0.395  2.2617  0.0808 -0.8094
  771TIP3   OH223727   5.330   1.711   1.858  0.4070  0.3690  0.2523
  771TIP3    H123728   5.372   1.757   1.931  0.6288 -0.6862  0.8206
  771TIP3    H223729   5.238   1.707   1.883  0.4958 -0.0611  0.5260
  772TIP3   OH223730   3.683   0.614  10.947  1.2832 -0.2290 -0.2064
  772TIP3    H123731   3.640   0.530  10.962  0.6737 -0.0935 -1.0768
  772TIP3    H223732   3.740   0.599  10.871 -0.4908  0.6590 -1.8072
  773TIP3   OH223733   3.562   5.155  14.767  0.4145  0.4845 -0.0135
  773TIP3    H123734   3.480   5.114  14.738  0.8173  0.6160 -1.4356
  773TIP3    H223735   3.623   5.082  14.777  0.3731  0.4714  0.1331
  774TIP3   OH223736   2.182   6.663   0.472  0.0457  0.1865  0.0808
  774TIP3    H123737   2.145   6.731   0.416  0.7792 -1.1158 -2.1341
  774TIP3    H223738   2.276   6.662   0.450  0.5670  0.2772  2.0998
  775TIP3   OH223739   3.279   1.197  16.591  0.1237 -0.0661 -0.3107
  775TIP3    H123740   3.208   1.200  16.655 -0.2332  0.1976 -0.7069
  775TIP3    H223741   3.260   1.119  16.538 -2.2480  2.1132 -3.0267
  776TIP3   OH223742   3.677   3.910   2.027 -1.1218  0.2496  0.6736
  776TIP3    H123743   3.743   3.851   1.992 -0.7049  0.2130  1.5150
  776TIP3    H223744   3.609   3.852   2.061 -0.6661  0.2478  1.5896
  777TIP3   OH223745   2.611   5.324   4.285 -0.0553 -0.1522  0.5766
  777TIP3    H123746   2.690   5.276   4.307  1.3627  2.6937  2.3217
  777TIP3    H223747   2.634   5.374   4.207 -1.2132 -1.5310 -0.7081
  778TIP3   OH223748   3.395   6.720   1.012 -0.0747 -0.0891  0.0654
  778TIP3    H123749   3.389   6.654   0.944  0.6714 -0.7298  0.6037
  778TIP3    H223750   3.323   6.700   1.072 -0.2632  0.0052 -0.1296
  779TIP3   OH223751   3.663   4.013   3.479 -0.0116 -0.2741 -0.6578
  779TIP3    H123752   3.616   4.004   3.397  3.4837  0.1038 -2.8975
  779TIP3    H223753   3.686   3.923   3.503  0.8497 -0.2484 -1.3424
  780TIP3   OH223754   0.623   6.657   4.425  0.5942  0.4428  0.2798
  780TIP3    H123755   0.566   6.688   4.495 -1.1586 -0.4529 -0.6868
  780TIP3    H223756   0.608   6.562   4.421  0.1177  0.5531 -1.7229
  781TIP3   OH223757   0.708   1.376   0.506 -0.7890 -0.2320  0.2768
  781TIP3    H123758   0.777   1.335   0.453 -1.3740 -0.7993 -0.0555
  781TIP3    H223759   0.700   1.319   0.583 -1.2456 -0.4654  0.0616
  782TIP3   OH223760   4.736   0.115  13.275  0.1919  0.1333  0.7257
  782TIP3    H123761   4.665   0.073  13.226  0.8280  1.5437 -1.5898
  782TIP3    H223762   4.693   0.151  13.352 -1.1118 -1.2167  0.6888
  783TIP3   OH223763   1.414   0.764   0.789  0.1708  0.3214  0.5720
  783TIP3    H123764   1.478   0.692   0.791  1.7635  1.5770 -1.3415
  783TIP3    H223765   1.332   0.722   0.763  0.6636 -1.0390  1.0817
  784TIP3   OH223766   4.883   6.350   5.509  0.0132  0.3202 -0.3085
  784TIP3    H123767   4.891   6.262   5.546 -1.0030  0.4638  0.2802
  784TIP3    H223768   4.873   6.407   5.584 -0.3409  0.8232 -0.7290
  785TIP3   OH223769   3.749   5.652  16.351 -0.1367 -0.4335  0.1594
  785TIP3    H123770   3.803   5.674  16.427 -0.3363  0.4613  0.0611
  785TIP3    H223771   3.760   5.727  16.292 -0.2364 -0.9769 -0.5531
  786TIP3   OH223772   0.991   0.043   3.305  0.2527  0.3915  0.2896
  786TIP3    H123773   0.916   0.101   3.316 -0.7574 -0.2608 -2.5123
  786TIP3    H223774   1.014   0.017   3.394 -2.0555  1.5489  1.3048
  787TIP3   OH223775   2.158   0.489  16.664  0.3057 -0.4950  0.6076
  787TIP3    H123776   2.064   0.472  16.662  0.3290 -0.7103  1.1146
  787TIP3    H223777   2.180   0.490  16.757  0.9748 -1.4285  0.4733
  788TIP3   OH223778   1.622   0.499  16.674  0.1795  0.0002 -0.5573
  788TIP3    H123779   1.594   0.482  16.764 -2.6710 -0.8874 -1.4980
  788TIP3    H223780   1.615   0.593  16.663  1.3310  0.2120  0.3350
  789TIP3   OH223781   3.671   0.770  13.376  0.1866  0.1434 -0.2542
  789TIP3    H123782   3.583   0.800  13.351  0.9824 -0.6289 -4.6071
  789TIP3    H223783   3.662   0.675  13.384  0.4901  0.1478  0.1776
  790TIP3   OH223784   3.873   5.813  15.158  0.1386  0.6865 -0.5126
  790TIP3    H123785   3.894   5.807  15.065 -1.6226  1.1169 -0.9684
  790TIP3    H223786   3.803   5.877  15.163 -0.1447  0.2994  1.0580
  791TIP3   OH223787   2.512   1.464  10.731 -0.3375  0.4760 -0.0267
  791TIP3    H123788   2.542   1.555  10.725  1.3091 -0.1076 -1.3996
  791TIP3    H223789   2.426   1.464  10.690 -1.3495  1.7683  1.9127
  792TIP3   OH223790   0.937   3.269  14.172  0.5418 -0.1829 -0.3621
  792TIP3    H123791   0.939   3.364  14.154  0.8896 -0.1444 -0.1056
  792TIP3    H223792   0.959   3.261  14.264 -0.3556 -0.4592 -0.1570
  793TIP3   OH223793   4.240   5.969   2.201 -0.1868 -0.2895  0.4038
  793TIP3    H123794   4.221   6.042   2.143 -0.2030 -0.3644  0.3137
  793TIP3    H223795   4.322   5.993   2.244 -1.6118  1.0686  2.4867
  794TIP3   OH223796   3.414   4.928  10.613 -0.3410  0.0592  0.2785
  794TIP3    H123797   3.464   5.004  10.642 -1.9380  0.6124  1.7295
  794TIP3    H223798   3.396   4.879  10.693 -0.8662 -0.9036 -0.4082
  795TIP3   OH223799   4.169   3.519   6.009  0.9142  0.2136 -0.0122
  795TIP3    H123800   4.226   3.441   6.008  1.5180  0.6368 -1.3541
  795TIP3    H223801   4.174   3.553   5.919 -0.1156  1.2475  0.3026
  796TIP3   OH223802   3.702   3.661  11.555  0.4636  0.5306  0.8975
  796TIP3    H123803   3.679   3.642  11.464 -1.0138  2.0383  0.9015
  796TIP3    H223804   3.779   3.606  11.572 -0.2301 -1.0705 -0.7097
  797TIP3   OH223805   5.871   3.030  13.630  0.6468  1.0416  0.6010
  797TIP3    H123806   5.847   3.033  13.538 -0.3780  1.4742  0.8759
  797TIP3    H223807   5.949   3.085  13.637  3.5189 -2.4270 -0.7714
  798TIP3   OH223808   1.242   0.256   5.774 -0.2049  0.1619 -0.4859
  798TIP3    H123809   1.310   0.276   5.839 -1.6326 -0.2232  1.2224
  798TIP3    H223810   1.287   0.201   5.709  0.8978 -0.9802  1.1446
  799TIP3   OH223811   1.447   1.184   5.977  0.0327 -0.5648 -0.1435
  799TIP3    H123812   1.358   1.220   5.977  0.6817  1.2312  0.9339
  799TIP3    H223813   1.496   1.243   5.919  0.3260 -2.2090 -1.6377
  800TIP3   OH223814   1.651   2.843   2.012 -0.0256 -0.2298  0.0024
  800TIP3    H123815   1.690   2.930   2.022  0.9407 -0.7670  1.0490
  800TIP3    H223816   1.659   2.803   2.098  0.8049 -1.8620 -0.7891
  801TIP3   OH223817   6.752   4.988  11.341 -0.2781  0.4735 -0.0409
  801TIP3    H123818   6.792   4.901  11.340 -0.1064  0.5506  0.0989
  801TIP3    H223819   6.814   5.044  11.294  0.5814  0.9400  1.5524
  802TIP3   OH223820   3.230   4.448  13.120  0.1217  0.0937 -0.0694
  802TIP3    H123821   3.169   4.374  13.131  1.8264 -1.3001  0.4623
  802TIP3    H223822   3.189   4.519  13.169 -1.4929 -0.5233 -0.4438
  803TIP3   OH223823   1.710   3.274  11.717  0.3611  0.2635  0.1182
  803TIP3    H123824   1.789   3.301  11.764  0.2708 -0.5274  0.7542
  803TIP3    H223825   1.643   3.335  11.747  0.6314  0.6774 -0.1057
  804TIP3   OH223826   2.348   4.138   6.412 -0.1753  0.5172  0.1678
  804TIP3    H123827   2.438   4.168   6.426 -0.2956  0.8681  0.1887
  804TIP3    H223828   2.354   4.043   6.416  0.2236  0.5334  0.0041
  805TIP3   OH223829   4.916   6.408  14.792 -0.5091 -0.2690  0.1151
  805TIP3    H123830   4.849   6.340  14.792 -0.2002 -0.5787  0.3566
  805TIP3    H223831   4.962   6.396  14.875  1.1067 -1.3126 -0.8794
  806TIP3   OH223832   3.667   6.534   1.047 -0.3915 -0.6235 -0.2938
  806TIP3    H123833   3.739   6.584   1.009 -1.1187  0.5244 -0.1945
  806TIP3    H223834   3.699   6.444   1.049  2.4373  0.2613  2.9250
  807TIP3   OH223835   4.644   4.937  17.112 -0.1092  0.2081  0.1517
  807TIP3    H123836   4.620   4.890  17.191 -0.7765 -0.0154 -0.1781
  807TIP3    H223837   4.577   5.004  17.102 -1.8647 -1.7066 -1.8803
  808TIP3   OH223838   4.613   1.722   1.903 -0.0371 -0.5242 -0.3333
  808TIP3    H123839   4.615   1.801   1.849  3.2117  0.7646  1.3596
  808TIP3    H223840   4.539   1.734   1.961 -0.1773  0.8273 -0.7645
  809TIP3   OH223841   4.598   2.679   0.540  0.1303 -0.5100  0.1042
  809TIP3    H123842   4.633   2.639   0.460 -0.3885  0.2397 -0.5115
  809TIP3    H223843   4.509   2.644   0.547  0.7060 -1.8189  1.2470
  810TIP3   OH223844   2.902   5.993  17.050 -0.6385 -0.2278 -0.5567
  810TIP3    H123845   2.943   5.910  17.073  0.3321  0.1496 -0.8701
  810TIP3    H223846   2.812   5.985  17.081 -0.0377 -0.6425  1.1633
  811TIP3   OH223847   2.598   1.037  15.848 -0.3089 -0.2802  0.5060
  811TIP3    H123848   2.585   1.099  15.776  0.8855 -0.8344 -0.2172
  811TIP3    H223849   2.520   1.047  15.902 -1.0702  0.4091 -0.6707
  812TIP3   OH223850   1.764   2.387  14.211  0.0381 -1.0910 -0.1133
  812TIP3    H123851   1.669   2.388  14.225 -0.0250 -4.2385  0.3602
  812TIP3    H223852   1.774   2.362  14.119  0.4373 -0.6971 -0.1816
  813TIP3   OH223853   5.632   1.885   1.514 -0.2934 -0.2117  0.3746
  813TIP3    H123854   5.709   1.930   1.479 -0.9175  1.2254  0.8020
  813TIP3    H223855   5.579   1.865   1.437 -0.1114 -0.0459  0.2053
  814TIP3   OH223856   1.265   1.107   2.907 -0.1444  0.0674  0.0422
  814TIP3    H123857   1.267   1.083   2.814 -0.3575 -0.3028  0.1287
  814TIP3    H223858   1.267   1.023   2.953  4.4197  0.2156  0.5041
  815TIP3   OH223859   4.648   0.683  11.133 -0.1858  0.1509  0.2123
  815TIP3    H123860   4.742   0.676  11.119 -0.1478 -1.9026  1.1964
  815TIP3    H223861   4.628   0.775  11.113  1.5253  0.0331 -2.6758
  816TIP3   OH223862   0.849   5.011   3.057 -0.9276  1.0114 -0.3826
  816TIP3    H123863   0.779   5.072   3.079 -2.3200 -0.9089  0.7984
  816TIP3    H223864   0.866   4.962   3.138 -1.1469 -1.3786 -1.6805
  817TIP3   OH223865   4.227   5.927   2.979 -0.5133  0.1274 -0.5726
  817TIP3    H123866   4.273   5.861   3.031 -1.2591  1.6821  2.2955
  817TIP3    H223867   4.135   5.907   2.991 -0.7162  0.7992 -0.9388
  818TIP3   OH223868   5.395   3.673   3.341  0.6077  0.2431 -0.3261
  818TIP3    H123869   5.451   3.619   3.285  0.2128  0.1068 -0.6004
  818TIP3    H223870   5.454   3.712   3.405  1.0748  0.4329 -0.8703
  819TIP3   OH223871   2.876   5.745  13.177  0.5391 -0.0086 -0.5945
  819TIP3    H123872   2.921   5.729  13.260  0.0430  2.2967  0.2049
  819TIP3    H223873   2.942   5.787  13.122 -0.1381  2.0071  0.0539
  820TIP3   OH223874   1.110   5.521   1.015  0.0385  0.0562  0.2172
  820TIP3    H123875   1.136   5.496   1.103  1.3014  0.0287 -0.1350
  820TIP3    H223876   1.161   5.600   0.996 -0.7086  0.4431 -0.2511
  821TIP3   OH223877   2.204   4.043   0.319  0.6329 -0.1429 -0.0942
  821TIP3    H123878   2.277   4.051   0.257  0.8835 -0.5070  0.1517
  821TIP3    H223879   2.233   3.977   0.382 -0.2436 -0.9229 -0.4799
  822TIP3   OH223880   6.125   5.353  11.027  0.3182 -0.2222  0.1989
  822TIP3    H123881   6.080   5.418  11.082  0.6400 -0.9683  1.3923
  822TIP3    H223882   6.217   5.380  11.029  0.1869  0.3946 -0.9445
  823TIP3   OH223883   4.500   5.269   2.439  0.0252  0.4346  0.0383
  823TIP3    H123884   4.472   5.224   2.360 -0.8176  1.5736 -0.3369
  823TIP3    H223885   4.593   5.249   2.447 -0.1937 -0.8259 -0.4580
  824TIP3   OH223886   2.322   2.982   2.172  0.2654  0.2335 -0.2109
  824TIP3    H123887   2.372   2.927   2.232  0.4850  0.8444  0.1849
  824TIP3    H223888   2.260   3.029   2.229  1.4157  1.8673 -0.2396
  825TIP3   OH223889   1.023   6.745  11.888 -0.3029 -0.6020  0.8112
  825TIP3    H123890   1.048   6.794  11.966  0.4268 -0.5619  0.5598
  825TIP3    H223891   0.928   6.739  11.892 -0.2172 -1.4597  2.2226
  826TIP3   OH223892   1.505   2.142   1.948  0.6955  0.0520 -0.2545
  826TIP3    H123893   1.483   2.228   1.985 -0.2303 -0.5276  0.6026
  826TIP3    H223894   1.430   2.120   1.893 -0.6565 -1.6048  2.0873
  827TIP3   OH223895   1.765   2.406   3.192 -0.7100  1.0434  0.2183
  827TIP3    H123896   1.721   2.470   3.136 -2.2732  0.3753  0.6311
  827TIP3    H223897   1.702   2.388   3.262  0.5416  0.6269  1.2826
  828TIP3   OH223898   6.094   2.867  16.737  0.1244  0.2150 -0.0065
  828TIP3    H123899   6.189   2.863  16.750  0.2418 -2.5906 -0.9917
  828TIP3    H223900   6.083   2.864  16.642 -0.9003 -1.6153  0.1101
  829TIP3   OH223901   2.896   1.033  12.363 -0.4028 -1.1345 -0.5561
  829TIP3    H123902   2.854   1.083  12.293  2.7627 -1.8489 -3.2476
  829TIP3    H223903   2.825   0.988  12.407 -2.7349  0.6386 -2.2619
  830TIP3   OH223904   6.075   3.338   5.747  0.1343 -0.2662  0.1174
  830TIP3    H123905   6.029   3.421   5.757 -0.3646 -0.6397  1.0196
  830TIP3    H223906   6.010   3.279   5.709  0.6034 -0.1618 -0.9082
  831TIP3   OH223907   6.479   0.383   3.805  0.0128 -0.4224 -0.0793
  831TIP3    H123908   6.516   0.315   3.748 -0.9652 -0.5967 -0.5334
  831TIP3    H223909   6.548   0.448   3.813  1.1236 -1.6588  0.6975
  832TIP3   OH223910   0.913   0.992   5.644 -0.0365  0.2750  0.4000
  832TIP3    H123911   0.848   1.049   5.604 -0.9033  0.3718  1.8699
  832TIP3    H223912   0.980   1.052   5.678  0.1543  0.2619  0.0522
  833TIP3   OH223913   1.530   2.802   1.210 -0.5714 -0.5541 -0.1298
  833TIP3    H123914   1.505   2.861   1.281  0.2584  0.3435 -0.5608
  833TIP3    H223915   1.468   2.822   1.139 -0.7238 -0.6876 -0.0336
  834TIP3   OH223916   2.423   5.863  14.681 -0.6676  0.2787  0.6954
  834TIP3    H123917   2.355   5.915  14.638 -0.8050 -0.8319 -0.5053
  834TIP3    H223918   2.376   5.791  14.723 -0.3397  0.1421  0.8381
  835TIP3   OH223919   3.590   2.273  13.903 -0.2608  0.2109 -0.1884
  835TIP3    H123920   3.585   2.318  13.819  2.6798 -0.2400 -0.7258
  835TIP3    H223921   3.640   2.332  13.959  0.1142 -0.6381  0.3861
  836TIP3   OH223922   0.186   3.626  12.295  0.1071  0.1242  0.4152
  836TIP3    H123923   0.154   3.537  12.283 -1.2376  0.4028  1.6534
  836TIP3    H223924   0.192   3.637  12.390  0.6209  1.2233  0.2704
  837TIP3   OH223925   5.209   2.608  12.573  0.5992 -0.3102 -0.1411
  837TIP3    H123926   5.270   2.535  12.570 -0.1090 -0.9130 -0.1210
  837TIP3    H223927   5.123   2.568  12.559 -0.1003  0.1305  2.3905
  838TIP3   OH223928   4.467   2.697   5.186 -0.3742  0.6630 -0.7499
  838TIP3    H123929   4.406   2.710   5.114 -1.2214  0.0029 -0.1860
  838TIP3    H223930   4.532   2.636   5.152 -1.2354 -0.3074 -0.7242
  839TIP3   OH223931   1.619   2.295  13.325 -0.0901 -0.3099  0.2864
  839TIP3    H123932   1.598   2.237  13.398  0.8083 -2.3022 -0.9490
  839TIP3    H223933   1.715   2.298  13.323 -0.1147  0.6638 -0.1140
  840TIP3   OH223934   4.533   3.383   3.426  0.4292 -0.0704 -0.2797
  840TIP3    H123935   4.508   3.465   3.468  1.1273  0.8801 -1.6626
  840TIP3    H223936   4.471   3.373   3.353  1.2360 -0.0075 -0.9919
  841TIP3   OH223937   1.957   1.764  11.009 -0.5334  0.4929 -0.1840
  841TIP3    H123938   1.988   1.855  11.015 -0.2520  0.4338 -0.6479
  841TIP3    H223939   1.862   1.770  11.017 -0.3890  0.5214  3.0878
  842TIP3   OH223940   2.838   6.370  14.172 -0.4686 -0.0923  0.5654
  842TIP3    H123941   2.881   6.296  14.128 -0.0831  1.0771 -1.1507
  842TIP3    H223942   2.752   6.337  14.197 -0.7951 -0.8069 -1.3133
  843TIP3   OH223943   2.578   3.480  16.472 -0.5924 -0.6719  0.5885
  843TIP3    H123944   2.642   3.513  16.409 -0.4421  0.6644  1.4115
  843TIP3    H223945   2.502   3.455  16.419  0.1063 -1.0623 -0.2617
  844TIP3   OH223946   0.173   1.988  11.526  0.5049 -0.6875  0.1448
  844TIP3    H123947   0.221   2.011  11.445  0.7834 -1.1967  0.1614
  844TIP3    H223948   0.166   2.071  11.573  0.8400 -0.4895 -0.1420
  845TIP3   OH223949   5.600   1.252  13.738 -0.3980 -0.4267  0.0139
  845TIP3    H123950   5.587   1.347  13.737  1.2415 -0.1565  0.8962
  845TIP3    H223951   5.512   1.216  13.751 -0.7863  1.0574  1.8605
  846TIP3   OH223952   6.523   3.184  10.827 -0.2749 -0.4322 -0.0810
  846TIP3    H123953   6.563   3.097  10.827 -1.7792 -1.3133  3.4968
  846TIP3    H223954   6.429   3.167  10.821 -0.6324  0.8563  1.2828
  847TIP3   OH223955   5.180   2.145   4.183  0.6291  0.3047 -0.1894
  847TIP3    H123956   5.264   2.188   4.194  0.2109  1.3191 -0.7914
  847TIP3    H223957   5.123   2.213   4.147 -0.7221 -0.0823  1.1348
  848TIP3   OH223958   5.370   3.606  16.679  0.1702 -0.6313  0.2917
  848TIP3    H123959   5.388   3.618  16.772 -0.6873 -0.4801  0.4438
  848TIP3    H223960   5.399   3.687  16.637  0.2718 -0.5782  0.4678
  849TIP3   OH223961   2.034   4.703   0.584  0.8398  0.1662 -0.2447
  849TIP3    H123962   2.049   4.699   0.679  0.4053  0.0018 -0.1821
  849TIP3    H223963   2.122   4.706   0.546  1.0126  0.7507  0.1858
  850TIP3   OH223964   4.005   4.070   4.867 -0.4961  0.1544  0.3322
  850TIP3    H123965   3.946   4.143   4.846  1.1760  1.2206 -0.9161
  850TIP3    H223966   4.040   4.091   4.954 -0.3477  0.6373  0.1599
  851TIP3   OH223967   0.566   0.784  15.179 -0.0081 -0.2924  0.2400
  851TIP3    H123968   0.537   0.727  15.250 -1.4749  0.9276  0.6822
  851TIP3    H223969   0.590   0.724  15.108 -0.7716 -1.4673  0.9370
  852TIP3   OH223970   2.942   3.852   1.116 -0.1017 -0.5250  0.3030
  852TIP3    H123971   2.994   3.796   1.175  0.8302 -1.8937 -1.6999
  852TIP3    H223972   2.991   3.934   1.112  1.7433 -1.6222 -1.1595
  853TIP3   OH223973   6.472   0.255  16.999 -0.2299  0.1540 -0.2525
  853TIP3    H123974   6.445   0.164  17.014 -1.4985  0.5696  0.0648
  853TIP3    H223975   6.528   0.276  17.074 -0.8047 -0.0242  0.2276
  854TIP3   OH223976   0.742   5.241  15.796  0.2583 -0.0870  0.4612
  854TIP3    H123977   0.679   5.210  15.861 -0.9616 -0.9089 -1.0317
  854TIP3    H223978   0.816   5.181  15.803 -0.2825 -0.7695  0.4453
  855TIP3   OH223979   5.568   2.530   2.762 -0.4236  0.1074  0.0853
  855TIP3    H123980   5.663   2.540   2.752 -0.4090  0.2878  0.3882
  855TIP3    H223981   5.533   2.616   2.740 -0.6283 -0.3102 -1.3275
  856TIP3   OH223982   6.325   5.566  13.410  0.0132 -0.0432 -0.1411
  856TIP3    H123983   6.339   5.614  13.328 -0.5857  1.1112  0.4115
  856TIP3    H223984   6.408   5.521  13.426  1.3577  2.4812  0.3969
  857TIP3   OH223985   1.372   4.585  15.343  0.3363  0.1232  0.7924
  857TIP3    H123986   1.322   4.663  15.320 -0.4140  0.2498  2.6843
  857TIP3    H223987   1.392   4.544  15.259  1.6211  2.8237 -0.3579
  858TIP3   OH223988   1.502   0.455   2.776  0.0550 -0.2914  0.0954
  858TIP3    H123989   1.529   0.465   2.684 -0.3371 -1.9794 -0.2282
  858TIP3    H223990   1.563   0.392   2.812 -0.0419  0.0670  0.8978
  859TIP3   OH223991   2.275   6.434  11.135 -0.1657  0.0478  0.1514
  859TIP3    H123992   2.200   6.397  11.088 -0.1674  0.2325  0.0078
  859TIP3    H223993   2.307   6.362  11.190 -1.9759  0.6534  2.1104
  860TIP3   OH223994   2.578   5.590   2.588 -0.1875 -0.2197 -0.0841
  860TIP3    H123995   2.550   5.653   2.522  1.4717 -0.1676 -0.7845
  860TIP3    H223996   2.648   5.635   2.636 -0.3302 -0.8131  0.6966
  861TIP3   OH223997   6.290   0.862   4.970  0.0299  0.1843 -0.7073
  861TIP3    H123998   6.328   0.933   4.918  1.6757  0.3997  0.7018
  861TIP3    H223999   6.233   0.816   4.909  1.7695  0.5077 -2.7063
  862TIP3   OH224000   3.846   3.282   0.257  0.4817 -0.2198 -0.1630
  862TIP3    H124001   3.876   3.270   0.167 -0.0225 -0.5403 -0.2907
  862TIP3    H224002   3.877   3.370   0.281  0.0244  0.1475 -0.8886
  863TIP3   OH224003   5.478   2.477   1.762 -0.5126 -0.2426 -0.2129
  863TIP3    H124004   5.390   2.515   1.766 -0.9866 -1.3752  0.2599
  863TIP3    H224005   5.474   2.414   1.691 -0.4177 -1.1096  0.5337
  864TIP3   OH224006   0.784   3.993   5.716 -0.1075  0.0608  0.1923
  864TIP3    H124007   0.774   3.898   5.705  1.2027 -0.1545  0.7187
  864TIP3    H224008   0.757   4.029   5.632 -0.5913 -0.7775 -0.0284
  865TIP3   OH224009   6.708   1.690  11.709 -0.4789  0.4380 -0.4918
  865TIP3    H124010   6.753   1.764  11.750 -0.3921  0.5457 -0.7804
  865TIP3    H224011   6.735   1.693  11.617 -1.1861  0.5873 -0.7018
  866TIP3   OH224012   2.876   1.053  14.057 -0.1033 -0.5918  0.3471
  866TIP3    H124013   2.856   0.965  14.025 -0.6663 -0.5834  0.6684
  866TIP3    H224014   2.959   1.075  14.015 -0.5685 -0.7832 -0.6952
  867TIP3   OH224015   3.476   1.270  15.820 -0.0701 -0.5665 -0.5537
  867TIP3    H124016   3.488   1.284  15.914  0.1148  2.0397 -0.8831
  867TIP3    H224017   3.492   1.177  15.807  1.6663 -0.6729  1.7260
  868TIP3   OH224018   0.975   6.632   1.926  0.2179 -0.3768  0.4616
  868TIP3    H124019   0.923   6.666   2.000 -0.7723 -0.6506 -0.0967
  868TIP3    H224020   0.993   6.541   1.949 -0.7671 -0.6977  0.0263
  869TIP3   OH224021   2.787   0.628  14.525 -0.1296  0.1629 -0.5349
  869TIP3    H124022   2.704   0.593  14.494  0.2417 -2.2438  0.9195
  869TIP3    H224023   2.770   0.658  14.614  0.6538 -0.9881  0.0335
  870TIP3   OH224024   6.257   3.562  11.926 -0.2314 -0.0742 -0.2869
  870TIP3    H124025   6.271   3.472  11.898  0.1852  0.0992 -0.6527
  870TIP3    H224026   6.335   3.584  11.977 -0.4584 -0.0137  0.0336
  871TIP3   OH224027   5.568   6.356   3.716  0.0001 -0.3108 -0.4044
  871TIP3    H124028   5.479   6.336   3.687  0.0607 -1.0480 -0.0969
  871TIP3    H224029   5.596   6.278   3.764  0.5478  0.2050  0.1261
  872TIP3   OH224030   2.509   4.893  15.751  0.1112  0.2729  0.1853
  872TIP3    H124031   2.570   4.820  15.760 -0.6423 -0.3342  0.5298
  872TIP3    H224032   2.538   4.957  15.815 -0.2382 -0.4716  1.1129
  873TIP3   OH224033   1.782   1.451  11.780 -0.7036  0.0672  0.3102
  873TIP3    H124034   1.819   1.539  11.779 -0.5403  0.0008 -0.0718
  873TIP3    H224035   1.858   1.394  11.765 -0.8305 -0.1259  0.4062
  874TIP3   OH224036   6.377   2.751   2.549 -0.0534 -0.6303 -0.2878
  874TIP3    H124037   6.445   2.692   2.582 -0.8552 -1.0965  0.5830
  874TIP3    H224038   6.320   2.695   2.495 -1.6983 -1.0819  1.7704
  875TIP3   OH224039   2.596   5.445  11.541  0.0243  0.6514 -0.2777
  875TIP3    H124040   2.640   5.465  11.458 -0.7587  0.4306 -0.7612
  875TIP3    H224041   2.508   5.417  11.515 -0.1184  0.2422  0.6098
  876TIP3   OH224042   2.787   3.810  13.749  0.0534 -0.2854  0.1536
  876TIP3    H124043   2.708   3.838  13.703 -0.3352  0.1961  1.0815
  876TIP3    H224044   2.774   3.717  13.765 -0.2102 -0.2635  0.0665
  877TIP3   OH224045   4.447   6.199  15.485  0.3066 -0.0328  0.2703
  877TIP3    H124046   4.441   6.106  15.462  0.3544  0.3216 -1.3215
  877TIP3    H224047   4.519   6.205  15.548 -0.6134 -1.2431  1.4909
  878TIP3   OH224048   3.780   2.395  15.144 -0.4025 -0.3140 -0.0098
  878TIP3    H124049   3.828   2.321  15.181 -1.8727 -1.5077 -0.3669
  878TIP3    H224050   3.773   2.458  15.216 -1.6669 -1.8178  1.2422
  879TIP3   OH224051   0.537   2.188   2.549 -0.3724 -0.3185 -0.7861
  879TIP3    H124052   0.522   2.201   2.456  1.3605  0.5978 -0.9578
  879TIP3    H224053   0.609   2.247   2.571  1.2844 -2.6592  0.4821
  880TIP3   OH224054   0.316   1.146   1.852  0.3573  0.6816  0.9029
  880TIP3    H124055   0.366   1.189   1.783  0.0143  0.3730  0.4537
  880TIP3    H224056   0.225   1.147   1.820  0.2759  0.0439  1.0933
  881TIP3   OH224057   0.140   1.673   4.690  0.1987 -0.4303 -0.8851
  881TIP3    H124058   0.167   1.631   4.772 -2.2612  0.5069  0.5362
  881TIP3    H224059   0.120   1.600   4.631  1.2457 -1.1310 -0.3962
  882TIP3   OH224060   3.085   1.405   4.156  0.1143 -0.1673 -0.1745
  882TIP3    H124061   2.990   1.413   4.155  0.0699 -0.5488 -1.5387
  882TIP3    H224062   3.104   1.330   4.099  1.1283 -1.7946  2.1762
  883TIP3   OH224063   2.838   0.420  11.524  0.5036  0.2071  0.1509
  883TIP3    H124064   2.886   0.432  11.606 -0.6405 -1.7287  1.1804
  883TIP3    H224065   2.822   0.326  11.519 -1.4916  0.5473 -1.1180
  884TIP3   OH224066   3.968   1.518   3.496 -0.0777 -0.3433  0.1250
  884TIP3    H124067   4.051   1.557   3.469 -0.0848 -0.7177 -0.4462
  884TIP3    H224068   3.931   1.582   3.557 -0.8123  1.3238 -1.9266
  885TIP3   OH224069   5.022   3.305  15.985  0.2778  0.1932  0.2737
  885TIP3    H124070   5.074   3.385  15.978  0.6149 -0.0473 -0.0194
  885TIP3    H224071   5.086   3.234  15.975  0.2195 -0.1466  1.9868
  886TIP3   OH224072   1.371   1.744  15.595 -0.2452  0.7522 -0.2067
  886TIP3    H124073   1.443   1.797  15.562  1.1896 -2.9948 -4.0370
  886TIP3    H224074   1.412   1.685  15.658 -0.5024  0.2687 -0.4871
  887TIP3   OH224075   6.522   1.655  14.010  0.3785  0.0158 -0.5012
  887TIP3    H124076   6.540   1.583  13.949  0.7035 -0.6522  0.3610
  887TIP3    H224077   6.608   1.678  14.044  0.3048  0.9897 -0.9440
  888TIP3   OH224078   4.138   3.515   5.030 -0.6337 -0.5334 -0.2619
  888TIP3    H124079   4.123   3.439   4.975  0.3049 -2.3006  1.7742
  888TIP3    H224080   4.170   3.479   5.113  0.2484  2.1093  0.6580
  889TIP3   OH224081   5.208   0.311  13.096 -0.4276  0.4943 -0.0647
  889TIP3    H124082   5.229   0.218  13.104  0.0864  0.5855 -0.2948
  889TIP3    H224083   5.207   0.344  13.186  2.3642  0.8841 -0.0783
  890TIP3   OH224084   3.848   2.298   2.555  0.5981 -0.0918 -0.0575
  890TIP3    H124085   3.908   2.230   2.524  1.5726 -0.0149  1.5292
  890TIP3    H224086   3.761   2.264   2.535  1.0953 -1.3019 -0.2779
  891TIP3   OH224087   3.656   0.190   3.756  0.1581  0.0721  0.3175
  891TIP3    H124088   3.600   0.120   3.723 -0.4243 -0.1570  1.7261
  891TIP3    H224089   3.743   0.170   3.721 -0.1676 -0.8810  0.0280
  892TIP3   OH224090   2.886   4.897   1.858  0.2788 -0.2184  0.5130
  892TIP3    H124091   2.922   4.863   1.776  0.1836 -1.3704  0.9322
  892TIP3    H224092   2.791   4.889   1.848 -0.1327  4.1293 -1.1692
  893TIP3   OH224093   5.167   5.249  13.258 -0.1790 -0.1620  0.3226
  893TIP3    H124094   5.178   5.247  13.163 -1.3267  0.9633  0.1299
  893TIP3    H224095   5.154   5.158  13.283 -1.0485 -0.3688 -0.7773
  894TIP3   OH224096   3.653   1.395  15.665 -0.0127 -0.2090 -0.0669
  894TIP3    H124097   3.711   1.371  15.737  0.2669 -0.1046 -0.2540
  894TIP3    H224098   3.567   1.359  15.689 -0.0275  0.2036  0.5299
  895TIP3   OH224099   4.671   0.476   3.379  0.5328 -0.0378 -0.5256
  895TIP3    H124100   4.666   0.565   3.343 -1.3667  0.5360  0.9435
  895TIP3    H224101   4.738   0.482   3.447  0.9977  0.0302 -0.9800
  896TIP3   OH224102   0.895   3.425  13.717  0.8053  0.0751  0.3022
  896TIP3    H124103   0.809   3.413  13.676 -0.2157  2.3015  1.6333
  896TIP3    H224104   0.954   3.371  13.664 -1.2670 -1.0237 -1.0483
  897TIP3   OH224105   4.975   4.145  13.272  0.3394  0.1806  0.4246
  897TIP3    H124106   4.972   4.133  13.177  2.0860 -0.8190  0.4370
  897TIP3    H224107   4.938   4.064  13.308 -1.3732  1.0245  0.6298
  898TIP3   OH224108   2.790   3.377  11.390  0.6303  0.2028  0.2250
  898TIP3    H124109   2.847   3.441  11.432  1.8355 -1.2577  0.9034
  898TIP3    H224110   2.838   3.295  11.396 -1.1492 -0.9079 -0.0216
  899TIP3   OH224111   2.703   3.317  13.276 -0.2603 -1.0890 -0.1013
  899TIP3    H124112   2.713   3.396  13.328  0.1595 -0.4291 -1.1420
  899TIP3    H224113   2.786   3.270  13.285 -0.6202 -1.5753  0.7592
  900TIP3   OH224114   0.671   5.895   2.413  0.0227 -0.4371 -0.0296
  900TIP3    H124115   0.591   5.862   2.372  0.2312  0.2515 -1.0341
  900TIP3    H224116   0.707   5.819   2.460  0.5353 -1.7222 -2.3306
  901TIP3   OH224117   2.531   3.815  13.249 -0.3935 -0.2083  0.1398
  901TIP3    H124118   2.545   3.900  13.291 -0.2913 -0.5760  0.8727
  901TIP3    H224119   2.454   3.779  13.294  0.3134 -1.0387  0.7091
  902TIP3   OH224120   5.838   4.647   0.363  0.4307 -0.1012  0.1119
  902TIP3    H124121   5.760   4.668   0.414 -0.7986  0.8092 -2.0257
  902TIP3    H224122   5.814   4.567   0.316  1.3265 -0.5881  0.4536
  903TIP3   OH224123   3.234   2.551   6.145 -0.1926 -0.1314 -0.8011
  903TIP3    H124124   3.244   2.607   6.222 -0.8321  1.9747 -2.1669
  903TIP3    H224125   3.157   2.496   6.164  0.6775 -0.8742  0.7206
  904TIP3   OH224126   3.986   5.415  15.580 -0.0863 -0.1870  0.1377
  904TIP3    H124127   3.940   5.449  15.656 -0.3771  0.9778 -0.5400
  904TIP3    H224128   3.918   5.373  15.528  0.0311 -0.5638  0.2863
  905TIP3   OH224129   0.996   5.947   2.888 -0.0611  0.1035 -0.1458
  905TIP3    H124130   0.971   6.030   2.928  0.3315 -0.5540  1.5507
  905TIP3    H224131   1.091   5.950   2.882 -0.1323  0.3091 -1.3362
  906TIP3   OH224132   4.026   2.381  16.087 -0.5613  0.4898  0.3679
  906TIP3    H124133   4.104   2.364  16.033 -1.0184  0.0279 -0.1548
  906TIP3    H224134   4.037   2.472  16.115  1.3458 -0.2390  2.2490
  907TIP3   OH224135   0.801   3.740  14.069  0.1165 -0.3278 -0.0538
  907TIP3    H124136   0.715   3.762  14.032  0.2024 -0.9825 -0.6425
  907TIP3    H224137   0.806   3.645  14.064  0.6845 -0.3270  0.4205
  908TIP3   OH224138   0.914   1.847  10.321  0.2519  0.1236 -0.5089
  908TIP3    H124139   0.906   1.790  10.398 -1.5596  0.6348 -0.2769
  908TIP3    H224140   1.000   1.887  10.330  0.7174 -1.0280  0.4031
  909TIP3   OH224141   1.912   2.908  14.331  0.0641 -0.3851  0.0695
  909TIP3    H124142   1.951   2.977  14.385 -1.2410  0.7138 -0.3312
  909TIP3    H224143   1.975   2.837  14.333  0.8256  0.2945  1.6324
  910TIP3   OH224144   0.200   1.383   0.196 -0.3364 -0.6780 -0.3808
  910TIP3    H124145   0.215   1.344   0.283 -1.0445 -1.8045 -0.7421
  910TIP3    H224146   0.115   1.427   0.204  0.5423  0.9825  0.0758
  911TIP3   OH224147   2.580   5.432   5.219  0.1023 -0.7144 -0.2732
  911TIP3    H124148   2.518   5.479   5.275  2.6865  0.4919  1.7934
  911TIP3    H224149   2.553   5.453   5.130 -2.3760 -0.2190  0.5183
  912TIP3   OH224150   1.481   6.686  14.828 -0.3970  0.1628 -0.5169
  912TIP3    H124151   1.439   6.602  14.814 -0.9158  0.4680 -0.8307
  912TIP3    H224152   1.448   6.742  14.758 -0.5067  0.7895  0.0180
  913TIP3   OH224153   6.208   4.869  13.779  0.1394  0.4916  0.0389
  913TIP3    H124154   6.113   4.875  13.786  0.1494  0.3149  0.3038
  913TIP3    H224155   6.223   4.807  13.708  0.0477  1.8716 -1.2390
  914TIP3   OH224156   4.697   2.589  13.791 -0.1042 -0.7381 -0.3470
  914TIP3    H124157   4.718   2.536  13.714  0.0280 -0.3105 -0.6098
  914TIP3    H224158   4.606   2.615  13.778  0.2105  0.1469 -0.8537
  915TIP3   OH224159   0.238   2.875  12.931 -0.3184  0.1011  0.2232
  915TIP3    H124160   0.297   2.806  12.900  1.0092  0.9169  0.8315
  915TIP3    H224161   0.176   2.887  12.860 -0.9819 -2.1302  0.3372
  916TIP3   OH224162   2.310   5.599   0.983 -0.0526  0.6521  0.4806
  916TIP3    H124163   2.358   5.534   1.035 -0.6624  0.3574  0.6919
  916TIP3    H224164   2.232   5.618   1.036 -0.6889  0.3412 -0.3272
  917TIP3   OH224165   2.039   1.556  16.010  0.4396  0.8035  0.4284
  917TIP3    H124166   2.063   1.474  15.967  0.2209  0.5133  0.8506
  917TIP3    H224167   2.040   1.622  15.940 -3.6647 -0.2767 -0.9401
  918TIP3   OH224168   3.444   2.578   6.428 -0.4215  0.6511 -0.0480
  918TIP3    H124169   3.408   2.523   6.498  0.0933  1.6464  1.0547
  918TIP3    H224170   3.369   2.631   6.399 -0.4056  1.0378  0.5753
  919TIP3   OH224171   5.070   1.535   3.427 -0.4303 -0.1749  0.3834
  919TIP3    H124172   5.086   1.567   3.339  1.4239  0.4428  0.9029
  919TIP3    H224173   4.975   1.540   3.438 -0.4586  2.8790 -0.4330
  920TIP3   OH224174   4.816   1.945   4.074  0.1032 -0.2313  0.0010
  920TIP3    H124175   4.805   1.963   4.168 -0.9037 -0.5729 -0.0369
  920TIP3    H224176   4.766   2.014   4.031  0.7158  0.0295 -0.2902
  921TIP3   OH224177   5.517   1.290   4.565  0.4782 -0.3307  0.1253
  921TIP3    H124178   5.568   1.328   4.637 -2.1288 -0.4404  2.1580
  921TIP3    H224179   5.457   1.230   4.608  0.3379 -2.1691 -2.4300
  922TIP3   OH224180   1.867   3.053  11.576  0.0500  0.1598  0.0002
  922TIP3    H124181   1.804   3.116  11.612  0.4758  1.1652 -0.9765
  922TIP3    H224182   1.868   3.071  11.482 -0.2853 -1.7354 -0.4241
  923TIP3   OH224183   4.310   3.213   6.263 -0.0661 -0.5362  0.6050
  923TIP3    H124184   4.315   3.308   6.262  0.1990 -0.5454  0.8892
  923TIP3    H224185   4.386   3.184   6.212 -0.2915 -0.5912  0.3003
  924TIP3   OH224186   0.137   4.680   4.073 -0.2503  0.2206  0.0575
  924TIP3    H124187   0.119   4.589   4.052 -1.0820  0.1668  0.9865
  924TIP3    H224188   0.209   4.677   4.136 -1.5280  0.0965  1.5441
  925TIP3   OH224189   6.434   2.268   1.271 -0.1917  0.5842 -0.0398
  925TIP3    H124190   6.411   2.290   1.181 -1.3699 -1.2723 -0.2279
  925TIP3    H224191   6.415   2.347   1.321 -0.1370  1.4202 -1.3062
  926TIP3   OH224192   6.110   3.770  12.606 -0.3639  0.2043  0.2138
  926TIP3    H124193   6.130   3.845  12.549  0.8773 -1.0667 -1.1571
  926TIP3    H224194   6.129   3.694  12.551 -2.6031 -1.1457  1.2023
  927TIP3   OH224195   0.242   4.439  16.857  0.3286  0.2873  0.3366
  927TIP3    H124196   0.281   4.377  16.918  0.3983  0.1133  0.1150
  927TIP3    H224197   0.233   4.520  16.907 -3.0485 -0.8286  1.8132
  928TIP3   OH224198   3.719   0.415   3.050  0.0603  0.0200  0.1706
  928TIP3    H124199   3.797   0.437   3.101 -0.4706  1.1685  0.5070
  928TIP3    H224200   3.646   0.436   3.108 -0.5153 -0.5470 -0.3410
  929TIP3   OH224201   0.640   2.560  11.969  0.0516  0.2296 -0.6099
  929TIP3    H124202   0.697   2.485  11.987  0.9837  1.1512  0.4211
  929TIP3    H224203   0.697   2.625  11.928 -0.2283  1.1719  0.4440
  930TIP3   OH224204   1.086   6.158  12.513 -0.0692 -0.2503  0.2237
  930TIP3    H124205   1.126   6.242  12.536 -1.1558  0.1137  0.8701
  930TIP3    H224206   1.100   6.103  12.591  0.1984 -0.5083 -0.0037
  931TIP3   OH224207   5.357   6.579   3.599  0.1675  0.2714  0.1369
  931TIP3    H124208   5.418   6.506   3.600 -0.1280  0.0316  0.9077
  931TIP3    H224209   5.389   6.636   3.528  1.3206  0.1797  0.5613
  932TIP3   OH224210   2.779   3.343   3.038 -0.2289 -0.7369 -0.5982
  932TIP3    H124211   2.838   3.402   2.991 -2.4311  1.7124 -0.5645
  932TIP3    H224212   2.720   3.310   2.970 -1.6757  0.5996 -0.0588
  933TIP3   OH224213   1.900   1.453   0.153 -0.2375 -0.3155  0.4444
  933TIP3    H124214   1.825   1.502   0.120  1.8196  2.3937 -0.5596
  933TIP3    H224215   1.915   1.487   0.241 -0.2778 -1.0115  0.7335
  934TIP3   OH224216   1.947   4.130  16.945 -0.4833 -0.1375 -0.5202
  934TIP3    H124217   1.958   4.107  16.853 -0.5671  0.3486 -0.6578
  934TIP3    H224218   1.884   4.066  16.979  0.5646 -1.1623 -0.4436
  935TIP3   OH224219   3.460   1.413   3.516 -0.5861 -0.6720  0.3277
  935TIP3    H124220   3.508   1.453   3.444 -1.0182 -1.5305 -0.4628
  935TIP3    H224221   3.396   1.356   3.473  0.2506 -2.4991  1.3860
  936TIP3   OH224222   2.929   6.617   1.783  0.1314  0.5656 -0.2331
  936TIP3    H124223   2.855   6.674   1.762 -0.7192 -0.1862  0.6914
  936TIP3    H224224   2.894   6.528   1.776  1.2722  0.1488 -0.9975
  937TIP3   OH224225   4.557   3.269  15.290 -0.0401  0.4737  0.2151
  937TIP3    H124226   4.528   3.209  15.358 -2.4432  0.7895 -0.4108
  937TIP3    H224227   4.652   3.266  15.293 -0.0785 -2.3614  1.0658
  938TIP3   OH224228   5.070   4.817   3.626  0.4571  0.0853  0.1098
  938TIP3    H124229   5.056   4.756   3.699  1.3331  0.1585  0.3542
  938TIP3    H224230   5.125   4.886   3.664  0.7632  0.2212 -0.5800
  939TIP3   OH224231   4.442   3.187  12.351  0.2368 -0.6154 -1.1319
  939TIP3    H124232   4.434   3.226  12.264 -0.5350 -1.0082 -1.2441
  939TIP3    H224233   4.506   3.242  12.396 -0.9977  0.9548 -1.2120
  940TIP3   OH224234   6.781   3.479   6.665 -0.2756 -0.7070 -0.0113
  940TIP3    H124235   6.737   3.498   6.582  1.8454  0.5599 -0.9513
  940TIP3    H224236   6.739   3.399   6.696 -2.1143 -0.4429 -1.5691
  941TIP3   OH224237   1.996   1.247   0.597  0.5670 -0.0639  0.2135
  941TIP3    H124238   1.990   1.162   0.641  2.8048 -1.0906 -1.2755
  941TIP3    H224239   1.936   1.240   0.523  2.3388 -1.2624 -1.1780
  942TIP3   OH224240   2.387   3.593   1.575  0.0638 -0.0672 -0.0562
  942TIP3    H124241   2.469   3.633   1.545  1.7692 -0.8359  3.0986
  942TIP3    H224242   2.322   3.663   1.569  1.7409  1.6228  0.3580
  943TIP3   OH224243   6.318   1.489   3.611  0.0608 -0.5019  0.0925
  943TIP3    H124244   6.271   1.459   3.689 -0.5436  0.5496  0.1634
  943TIP3    H224245   6.251   1.493   3.543  0.4703 -0.8905 -0.3297
  944TIP3   OH224246   0.463   5.774  15.077  0.5008  0.2292 -0.0537
  944TIP3    H124247   0.483   5.794  15.169 -0.8964 -0.1663  0.3644
  944TIP3    H224248   0.519   5.700  15.055 -0.0654 -0.4954  0.8909
  945TIP3   OH224249   0.486   6.289  17.228  0.5733 -0.6603 -0.1632
  945TIP3    H124250   0.442   6.230  17.289 -1.3886  2.0627  1.2163
  945TIP3    H224251   0.429   6.291  17.151 -0.9200  1.4744  0.9099
  946TIP3   OH224252   2.574   5.546  12.095  0.1391 -0.4084  0.4543
  946TIP3    H124253   2.517   5.478  12.132 -0.9019  0.7731  1.0969
  946TIP3    H224254   2.526   5.579  12.019 -0.2246  0.7965  1.1698
  947TIP3   OH224255   1.990   5.367  16.970 -0.4914  0.1961  0.4052
  947TIP3    H124256   1.958   5.455  16.991 -2.1698 -0.3411  0.2285
  947TIP3    H224257   2.045   5.343  17.045  3.1360  2.8023 -1.1706
  948TIP3   OH224258   4.137   0.629  11.511 -0.0550  0.5154  0.7458
  948TIP3    H124259   4.135   0.704  11.570  2.0717 -0.1729  1.8112
  948TIP3    H224260   4.194   0.565  11.555  0.8184 -0.4237 -1.5731
  949TIP3   OH224261   1.091   6.042   5.579  0.2168  0.3478 -0.2731
  949TIP3    H124262   1.026   5.981   5.613 -0.4216  0.4028 -1.3448
  949TIP3    H224263   1.174   5.995   5.584 -0.3779 -0.9696 -1.8843
  950TIP3   OH224264   6.135   3.156   0.788  0.4887  0.5806 -0.2688
  950TIP3    H124265   6.176   3.214   0.852 -0.1613  1.5822 -0.7318
  950TIP3    H224266   6.130   3.208   0.708 -0.2159 -0.0766 -0.6698
  951TIP3   OH224267   6.399   4.957   3.447  0.2374 -0.0947 -0.4649
  951TIP3    H124268   6.391   4.928   3.356  3.3883 -2.5373 -0.1507
  951TIP3    H224269   6.493   4.976   3.458 -0.1432  0.6692  2.1214
  952TIP3   OH224270   1.443   2.617  13.826 -0.5237  0.0178 -0.1621
  952TIP3    H124271   1.409   2.588  13.910  1.3488  0.4885  0.8035
  952TIP3    H224272   1.397   2.700  13.810 -1.8168 -0.6889 -0.2572
  953TIP3   OH224273   3.116   3.071   4.584  0.3430 -0.5027  0.0080
  953TIP3    H124274   3.207   3.057   4.561  0.2129  0.7157 -1.3912
  953TIP3    H224275   3.114   3.157   4.626  0.0962 -1.3725  1.9272
  954TIP3   OH224276   3.785   6.141   5.721 -0.1179  0.4119 -0.2448
  954TIP3    H124277   3.835   6.195   5.782 -0.9416 -0.3378  1.1257
  954TIP3    H224278   3.716   6.200   5.689 -1.5535  0.0002  1.9166
  955TIP3   OH224279   4.339   5.874   0.872  0.0192  0.3075  0.7113
  955TIP3    H124280   4.367   5.908   0.787 -0.0108  0.4528  0.7594
  955TIP3    H224281   4.257   5.828   0.855  0.9864 -1.3662  0.3014
  956TIP3   OH224282   5.918   3.871   3.614 -0.2584  0.4394 -0.2278
  956TIP3    H124283   5.893   3.962   3.598  0.2100  0.5919 -0.1223
  956TIP3    H224284   5.958   3.843   3.532 -0.7120  0.2160 -0.3763
  957TIP3   OH224285   2.899   2.069  10.331  0.0283 -0.1439 -0.3017
  957TIP3    H124286   2.951   2.014  10.390 -0.4676 -0.0062  0.2780
  957TIP3    H224287   2.862   2.008  10.267  0.2454 -0.3540 -0.2250
  958TIP3   OH224288   6.133   3.886  12.963  0.0645  0.4434 -0.4457
  958TIP3    H124289   6.138   3.893  13.059 -0.1613 -0.4810 -0.3544
  958TIP3    H224290   6.143   3.792  12.946  0.6850  0.6621 -1.3723
  959TIP3   OH224291   3.719   0.930  10.388 -0.3935  0.0580  0.6558
  959TIP3    H124292   3.721   0.994  10.459  1.2609 -0.2187  0.9001
  959TIP3    H224293   3.811   0.914  10.368 -0.8102 -0.3223 -1.1577
  960TIP3   OH224294   4.001   4.409   2.209 -0.2272 -0.0084 -0.3024
  960TIP3    H124295   3.907   4.405   2.192 -0.0614  0.6617 -1.4695
  960TIP3    H224296   4.020   4.327   2.255 -1.3482 -0.2365 -0.2175
  961TIP3   OH224297   2.278   2.837  13.371  0.0952  0.1554 -0.0680
  961TIP3    H124298   2.299   2.906  13.308  0.0792  0.9216  0.7317
  961TIP3    H224299   2.362   2.795  13.389  0.4989  1.3437  0.9813
  962TIP3   OH224300   1.006   2.329   5.988 -0.5902 -0.2900  0.1776
  962TIP3    H124301   1.033   2.270   6.058 -0.0973  0.0458  0.2733
  962TIP3    H224302   1.027   2.282   5.908 -3.0509 -1.5937  0.1762
  963TIP3   OH224303   6.685   1.599  16.801  0.3836 -0.3158 -0.0823
  963TIP3    H124304   6.655   1.648  16.878  0.1746 -1.6083  0.6850
  963TIP3    H224305   6.688   1.664  16.731  3.0689  1.5166  1.5729
  964TIP3   OH224306   4.925   4.180   3.652  0.3785  0.4362 -0.2926
  964TIP3    H124307   5.007   4.199   3.607  0.6794 -0.6043 -0.2051
  964TIP3    H224308   4.922   4.242   3.725  0.1524  1.7675 -1.3893
  965TIP3   OH224309   5.296   4.937  15.439 -0.0208 -0.2848  0.0164
  965TIP3    H124310   5.233   5.009  15.435 -0.4632 -0.5596  1.3516
  965TIP3    H224311   5.379   4.976  15.412 -0.2548  0.7364  0.7153
  966TIP3   OH224312   2.202   4.400  13.021 -0.5754  0.2732 -0.2514
  966TIP3    H124313   2.280   4.349  13.044 -0.8450  0.4350  1.1272
  966TIP3    H224314   2.237   4.479  12.980 -0.1270 -0.6519 -1.7421
  967TIP3   OH224315   3.397   1.006  10.424  0.0709 -0.1646 -0.3320
  967TIP3    H124316   3.307   1.026  10.400 -1.3793 -1.8192  2.9646
  967TIP3    H224317   3.414   0.920  10.387 -0.6484 -0.8947  0.9557
  968TIP3   OH224318   4.326   2.480  14.082  0.0228  0.0671  0.1448
  968TIP3    H124319   4.415   2.457  14.055 -0.6186  0.6862 -2.7828
  968TIP3    H224320   4.285   2.395  14.100  0.5612 -0.3758 -0.6600
  969TIP3   OH224321   4.907   0.516  15.111 -0.2431  0.7779  0.2247
  969TIP3    H124322   4.971   0.448  15.087 -1.7179 -0.5579 -0.0891
  969TIP3    H224323   4.949   0.563  15.183  0.1894 -1.5376  1.6040
  970TIP3   OH224324   3.921   4.338  11.478  0.4021  0.0033  0.3464
  970TIP3    H124325   3.905   4.245  11.492 -0.4937  0.0847 -0.0446
  970TIP3    H224326   3.848   4.382  11.522  0.5981  0.5013  0.1904
  971TIP3   OH224327   3.467   3.263   2.775  0.0181  0.1729 -0.1666
  971TIP3    H124328   3.450   3.224   2.860 -0.4627 -1.0800 -0.8112
  971TIP3    H224329   3.525   3.201   2.731 -1.3191 -0.2076 -1.4777
  972TIP3   OH224330   1.077   0.650  12.340  0.0429  0.0358  0.0750
  972TIP3    H124331   0.982   0.662  12.344  0.3087  2.2044  1.3730
  972TIP3    H224332   1.102   0.626  12.429  0.8504  0.8350  0.0783
  973TIP3   OH224333   6.076   1.402  13.911 -0.3440  0.5012 -0.1453
  973TIP3    H124334   6.170   1.416  13.924  0.0055  0.1818 -2.0466
  973TIP3    H224335   6.069   1.308  13.894 -1.4788 -0.1733  3.1956
  974TIP3   OH224336   0.213   6.164   1.835  0.1550 -0.1535 -0.3358
  974TIP3    H124337   0.243   6.136   1.749  0.7141  0.4074 -0.3257
  974TIP3    H224338   0.292   6.187   1.883 -0.1242 -0.7311  0.4379
  975TIP3   OH224339   2.511   5.654   1.453  0.3340  0.2093  0.4201
  975TIP3    H124340   2.563   5.642   1.374  0.5481  0.0966  0.5771
  975TIP3    H224341   2.523   5.573   1.502 -1.7329 -0.7602 -0.5423
  976TIP3   OH224342   0.737   0.966   3.347 -0.8185  0.0662  0.8604
  976TIP3    H124343   0.789   1.040   3.379 -0.8057  0.1891  0.5682
  976TIP3    H224344   0.759   0.961   3.254 -1.5668  0.3254  0.6616
  977TIP3   OH224345   5.539   6.090  13.167 -0.1589  0.0758  0.6641
  977TIP3    H124346   5.545   6.024  13.235  0.5728 -1.1799 -0.5615
  977TIP3    H224347   5.596   6.161  13.197  0.4287 -0.6106  1.1943
  978TIP3   OH224348   6.222   4.312  11.180 -0.1236 -0.2441 -0.0887
  978TIP3    H124349   6.264   4.398  11.187  2.0722 -1.1668 -0.9719
  978TIP3    H224350   6.295   4.250  11.182 -1.4550 -1.9745 -1.6521
  979TIP3   OH224351   0.537   3.112  15.884 -0.6168  0.8002  0.2515
  979TIP3    H124352   0.444   3.134  15.898 -0.4560  0.8223  1.3670
  979TIP3    H224353   0.578   3.129  15.968  0.5001  1.2094 -0.3635
  980TIP3   OH224354   3.255   2.122  17.066 -0.2466 -0.3666  0.2909
  980TIP3    H124355   3.192   2.171  17.120 -1.0297  1.1902 -1.8881
  980TIP3    H224356   3.306   2.190  17.022  1.8725 -1.6033  0.7338
  981TIP3   OH224357   0.700   1.108  11.367 -0.1956  0.0462 -0.3330
  981TIP3    H124358   0.639   1.172  11.403  0.1647 -0.4482  1.2153
  981TIP3    H224359   0.673   1.099  11.275 -1.6418  0.7663 -0.0149
  982TIP3   OH224360   1.183   0.547   0.714  0.0702  0.3760  0.0610
  982TIP3    H124361   1.173   0.568   0.807  1.8754  0.3730  0.3034
  982TIP3    H224362   1.242   0.472   0.713  1.5200  1.4587 -1.1137
  983TIP3   OH224363   0.420   6.011  12.216  0.6695  0.1102  0.4148
  983TIP3    H124364   0.383   5.946  12.156  1.4413  0.1520 -0.1323
  983TIP3    H224365   0.490   5.965  12.261  1.0609  0.4848  0.1989
  984TIP3   OH224366   1.591   5.585  13.197  0.3859  0.7129 -0.5191
  984TIP3    H124367   1.532   5.539  13.137  0.3030  0.0495  0.0544
  984TIP3    H224368   1.560   5.561  13.284  2.1078 -0.4745 -0.1849
  985TIP3   OH224369   1.362   3.454   3.073 -0.1929  0.0327  0.8955
  985TIP3    H124370   1.361   3.428   3.166 -1.2435 -0.0469  0.8779
  985TIP3    H224371   1.286   3.409   3.035 -1.9053  2.8084  0.7747
  986TIP3   OH224372   0.117   4.400  14.425  0.1665  0.6702  0.1949
  986TIP3    H124373   0.145   4.308  14.434 -0.4536  0.5545  1.0366
  986TIP3    H224374   0.023   4.395  14.409  0.5506  1.0525 -2.7286
  987TIP3   OH224375   4.056   3.681   1.103 -1.0035 -0.3368  0.0494
  987TIP3    H124376   4.013   3.631   1.033  1.1102 -0.2038 -1.4645
  987TIP3    H224377   3.993   3.682   1.175 -2.2750 -2.7096 -0.9118
  988TIP3   OH224378   3.473   2.175  14.143 -0.2171  0.0333 -0.0686
  988TIP3    H124379   3.400   2.222  14.104  0.0199 -0.8687 -1.7216
  988TIP3    H224380   3.545   2.238  14.142  0.1581 -0.3409 -2.4560
  989TIP3   OH224381   1.392   0.479  15.566 -0.1624  0.0757  0.2748
  989TIP3    H124382   1.479   0.498  15.530 -0.4277  0.0391 -0.3925
  989TIP3    H224383   1.405   0.480  15.661  0.6398 -0.2739  0.1766
  990TIP3   OH224384   4.468   1.986   2.109  0.2167  0.1345  0.1796
  990TIP3    H124385   4.535   1.932   2.152 -0.7733 -0.7966  0.6055
  990TIP3    H224386   4.517   2.038   2.045  1.1277 -1.8908 -0.8609
  991TIP3   OH224387   4.994   4.680   3.241 -0.0786 -0.3024 -0.4455
  991TIP3    H124388   4.983   4.679   3.145  0.7702 -1.7963 -0.5466
  991TIP3    H224389   4.924   4.624   3.274 -0.4443  0.3086 -0.1665
  992TIP3   OH224390   3.538   0.420  14.780  1.0499  0.6065 -0.0236
  992TIP3    H124391   3.632   0.410  14.799  0.7215  0.8818  2.0357
  992TIP3    H224392   3.495   0.395  14.862 -0.6452  1.1858 -0.7047
  993TIP3   OH224393   0.290   3.268   2.521 -0.0479 -0.0118  0.3546
  993TIP3    H124394   0.305   3.179   2.490  1.8347  0.2058  0.4900
  993TIP3    H224395   0.241   3.258   2.603 -2.7834 -0.7125 -1.2312
  994TIP3   OH224396   5.523   4.768  13.661  0.2969 -0.9400 -0.4441
  994TIP3    H124397   5.599   4.816  13.628  1.0754 -1.8265  0.0295
  994TIP3    H224398   5.483   4.828  13.724 -1.0155  0.6453 -2.6136
  995TIP3   OH224399   2.468   1.617   3.815 -0.2126 -0.6577  0.9953
  995TIP3    H124400   2.525   1.694   3.808 -0.1670 -0.6151  1.7421
  995TIP3    H224401   2.384   1.646   3.781 -0.9475  0.5417  3.5364
  996TIP3   OH224402   2.500   2.168  11.776 -0.0601  0.0958 -0.2678
  996TIP3    H124403   2.547   2.249  11.755  2.5056 -1.3485 -0.5090
  996TIP3    H224404   2.466   2.138  11.692 -2.2561  1.5271  0.0117
  997TIP3   OH224405   1.432   4.068  16.372 -0.1057  0.2627  0.1015
  997TIP3    H124406   1.363   4.056  16.307 -1.1902 -0.5199  1.3507
  997TIP3    H224407   1.510   4.028  16.333 -1.1975 -1.9338  0.0338
  998TIP3   OH224408   0.469   3.880  14.665  0.4237  0.3980  0.6878
  998TIP3    H124409   0.462   3.786  14.648 -1.6716  0.3994  1.1907
  998TIP3    H224410   0.448   3.890  14.758  1.9568  1.2610  0.9731
  999TIP3   OH224411   6.656   1.588   2.977  0.0582 -0.0779  0.0848
  999TIP3    H124412   6.660   1.678   3.011 -1.2990  0.6834 -1.5847
  999TIP3    H224413   6.700   1.593   2.892  0.5677 -1.1738  0.2700
 1000TIP3   OH224414   0.043   3.199   5.629 -0.0306  0.1202  0.3512
 1000TIP3    H124415   0.063   3.195   5.723 -2.5387  0.3739  0.9632
 1000TIP3    H224416   0.032   3.107   5.604 -2.8162  0.1403  1.2080
 1001TIP3   OH224417   0.085   2.692  15.229  0.2704  0.1226  0.3031
 1001TIP3    H124418  -0.010   2.705  15.237  0.3484  0.1291  1.4598
 1001TIP3    H224419   0.109   2.644  15.309  1.5697  2.0306  1.1165
 1002TIP3   OH224420   3.059   2.515   1.515  0.3183 -1.1259  0.0515
 1002TIP3    H124421   3.097   2.482   1.434 -0.9370 -2.4329 -0.0433
 1002TIP3    H224422   3.132   2.560   1.559  1.3165 -1.4351 -1.2267
 1003TIP3   OH224423   1.913   6.333  11.703  0.3461  0.1764  0.0735
 1003TIP3    H124424   1.866   6.410  11.671 -1.7878 -2.3163 -3.5775
 1003TIP3    H224425   1.844   6.274  11.735  1.6507 -1.1151  0.6335
 1004TIP3   OH224426   5.352   5.093   3.128  0.1624 -0.0431  0.2724
 1004TIP3    H124427   5.382   5.121   3.214 -2.3769  1.3766  0.8023
 1004TIP3    H224428   5.356   5.172   3.074  0.3145 -0.5590 -0.4858
 1005TIP3   OH224429   0.080   4.705   1.880 -0.1033 -0.4844 -0.0545
 1005TIP3    H124430  -0.011   4.730   1.867 -0.3919 -0.3984  1.7539
 1005TIP3    H224431   0.129   4.758   1.818 -1.3369 -1.2875 -1.7969
 1006TIP3   OH224432   5.463   6.055  15.352  0.1645  0.1878  0.5758
 1006TIP3    H124433   5.551   6.070  15.317  0.4267 -1.8215  0.2313
 1006TIP3    H224434   5.432   5.977  15.306 -2.5445  1.8043 -0.5717
 1007TIP3   OH224435   0.827   4.981  13.265 -0.4603  0.0851  0.1365
 1007TIP3    H124436   0.903   4.939  13.306  0.1639 -0.7020 -1.7224
 1007TIP3    H224437   0.840   5.074  13.280 -1.4355 -0.2047  3.6170
 1008TIP3   OH224438   6.430   4.937  15.711 -0.0046  0.0063  0.2182
 1008TIP3    H124439   6.467   4.960  15.625 -1.3688 -1.4258 -0.8041
 1008TIP3    H224440   6.336   4.951  15.701 -0.4248 -2.0449  0.8231
 1009TIP3   OH224441   5.249   2.662  15.224 -0.5478 -0.0706  0.6502
 1009TIP3    H124442   5.157   2.655  15.248 -0.3320 -0.3328  1.4393
 1009TIP3    H224443   5.277   2.572  15.209 -0.3476 -0.0147  0.6873
 1010TIP3   OH224444   2.633   6.294   2.087 -0.1499 -0.0010  0.1851
 1010TIP3    H124445   2.681   6.214   2.066 -0.8481 -0.1826 -0.7961
 1010TIP3    H224446   2.542   6.266   2.097 -0.4834  0.7278 -0.6806
 1011TIP3   OH224447   4.670   6.295  11.124 -0.3397 -0.1689 -0.1546
 1011TIP3    H124448   4.585   6.339  11.123 -1.0916 -1.1980  3.3201
 1011TIP3    H224449   4.675   6.249  11.040 -2.7902  0.6471 -0.8313
 1012TIP3   OH224450   4.952   1.067   0.394 -0.7276  0.5672 -0.2761
 1012TIP3    H124451   4.939   1.022   0.477 -2.1808 -0.5914 -1.0785
 1012TIP3    H224452   4.870   1.115   0.380 -1.0575 -0.3192 -1.6259
 1013TIP3   OH224453   1.425   4.980   3.688  0.2686  0.1620  0.2771
 1013TIP3    H124454   1.508   5.028   3.677  1.1643 -1.1077  1.2067
 1013TIP3    H224455   1.415   4.930   3.607  0.9243 -0.4169  0.5448
 1014TIP3   OH224456   6.394   1.046  11.710 -0.4281 -0.1336  0.0583
 1014TIP3    H124457   6.471   1.095  11.740  0.0173  1.4036 -3.2054
 1014TIP3    H224458   6.342   1.033  11.790  0.9935  2.8854  1.6503
 1015TIP3   OH224459   4.688   3.690  12.040  0.8538  0.2943  0.2861
 1015TIP3    H124460   4.756   3.655  11.982 -0.5385  0.0121 -1.2665
 1015TIP3    H224461   4.637   3.749  11.984 -1.6408 -1.3306  0.6416
 1016TIP3   OH224462   1.901   6.710   3.670 -0.3731 -0.4881  0.0242
 1016TIP3    H124463   1.990   6.728   3.639 -0.7481  0.3560 -0.6312
 1016TIP3    H224464   1.859   6.665   3.597 -0.6905 -0.2269  0.0410
 1017TIP3   OH224465   1.677   5.550   1.546 -0.4562  0.5792  0.1289
 1017TIP3    H124466   1.720   5.636   1.545 -0.8271  0.7631 -0.7785
 1017TIP3    H224467   1.648   5.539   1.636  0.6214  0.8862  0.5386
 1018TIP3   OH224468   6.017   3.513  13.309 -0.3998  0.2184  0.8086
 1018TIP3    H124469   5.980   3.586  13.260 -1.8330 -0.5090  0.7524
 1018TIP3    H224470   6.099   3.492  13.263  0.1510  1.8958  0.9715
 1019TIP3   OH224471   0.297   6.292   4.033  0.4074 -0.1159  0.1580
 1019TIP3    H124472   0.224   6.244   3.994  0.2747 -0.6132  1.0090
 1019TIP3    H224473   0.358   6.224   4.061  1.6785  0.2995 -1.4009
 1020TIP3   OH224474   0.258   6.129   3.566 -0.2554  0.1478 -0.0893
 1020TIP3    H124475   0.220   6.162   3.485 -1.3878 -0.7716  0.0328
 1020TIP3    H224476   0.348   6.161   3.565 -0.4609  0.7648 -1.3486
 1021TIP3   OH224477   2.805   3.411   3.372 -0.9269 -0.2336 -0.8219
 1021TIP3    H124478   2.783   3.321   3.349 -0.5437 -0.6587  0.4239
 1021TIP3    H224479   2.895   3.407   3.405 -1.3779  0.3500  0.5583
 1022TIP3   OH224480   1.427   1.661  16.932  0.3627  0.4180 -0.2260
 1022TIP3    H124481   1.397   1.699  16.850 -2.8886  3.2552  1.9935
 1022TIP3    H224482   1.352   1.612  16.965  0.3036  2.0566  2.4303
 1023TIP3   OH224483   3.124   3.147   0.321 -0.6662  0.2250  0.1552
 1023TIP3    H124484   3.150   3.166   0.411  1.5508  1.3581 -0.6432
 1023TIP3    H224485   3.030   3.164   0.318 -0.5418  1.4283  1.9484
 1024TIP3   OH224486   6.504   3.488   0.630 -0.0951  0.4145 -0.3903
 1024TIP3    H124487   6.465   3.417   0.580 -0.1628 -0.2633  0.5827
 1024TIP3    H224488   6.551   3.541   0.566  0.3682 -0.7871 -1.0690
 1025TIP3   OH224489   1.275   2.536   0.526 -0.1737  0.0732 -0.4737
 1025TIP3    H124490   1.281   2.632   0.521 -0.3897  0.0810 -0.5631
 1025TIP3    H224491   1.321   2.514   0.607  0.3151  0.2111 -0.7079
 1026TIP3   OH224492   6.527   2.574   1.374 -0.2877 -0.2313 -0.3162
 1026TIP3    H124493   6.587   2.606   1.307 -0.0524 -1.2938 -0.6355
 1026TIP3    H224494   6.584   2.535   1.440 -0.5864 -0.4378 -0.1774
 1027TIP3   OH224495   0.140   3.238   1.572 -0.0898 -0.0279 -0.2932
 1027TIP3    H124496   0.158   3.320   1.619 -1.4637 -0.0116  0.2377
 1027TIP3    H224497   0.186   3.248   1.489  1.3892  0.4516  0.5332
 1028TIP3   OH224498   5.928   3.878  12.776 -0.1041  0.4477 -0.4152
 1028TIP3    H124499   5.981   3.887  12.855  0.4393 -1.5623 -0.4949
 1028TIP3    H224500   5.984   3.830  12.715 -1.7324 -1.2113 -0.7135
 1029TIP3   OH224501   5.424   6.387  11.640 -0.3627 -0.3879  0.2376
 1029TIP3    H124502   5.505   6.410  11.595  0.4204 -2.0545  0.7471
 1029TIP3    H224503   5.427   6.292  11.649 -1.9986 -0.4030  0.9800
 1030TIP3   OH224504   2.837   6.479   0.017 -0.1066 -0.0524  0.0958
 1030TIP3    H124505   2.908   6.520  -0.032 -1.2209  0.1762 -1.4043
 1030TIP3    H224506   2.757   6.512  -0.025 -1.0785 -1.1565  1.0212
 1031TIP3   OH224507   0.801   5.412   5.583  0.3888 -0.0538 -0.2755
 1031TIP3    H124508   0.878   5.355   5.572  0.7888  0.8844 -3.0256
 1031TIP3    H224509   0.742   5.361   5.639  3.2360 -0.4835  2.6935
 1032TIP3   OH224510   3.730   5.398  16.447  0.2027 -0.2528 -0.5394
 1032TIP3    H124511   3.728   5.464  16.378  2.0634  0.6892  0.2295
 1032TIP3    H224512   3.813   5.413  16.493  0.0120 -2.1985  0.5869
 1033TIP3   OH224513   6.699   4.488  11.565 -0.6085 -0.3989 -0.0519
 1033TIP3    H124514   6.604   4.478  11.557 -0.6435 -0.4154  0.3480
 1033TIP3    H224515   6.734   4.450  11.484 -0.9484 -0.2831 -0.2556
 1034TIP3   OH224516   0.873   3.646   6.233  0.6968  0.7677 -0.0183
 1034TIP3    H124517   0.778   3.631   6.238  1.0059 -1.4713  0.3785
 1034TIP3    H224518   0.892   3.649   6.140  0.1566  2.0403 -0.1076
 1035TIP3   OH224519   2.934   2.187  16.507  0.0430  0.0349 -0.8254
 1035TIP3    H124520   2.988   2.152  16.577  0.0766  1.7781  0.0760
 1035TIP3    H224521   2.996   2.236  16.451  0.0443 -1.4429 -2.1849
 1036TIP3   OH224522   2.233   1.380   1.089 -0.7029 -0.0513 -0.6279
 1036TIP3    H124523   2.253   1.374   1.182 -2.5585 -1.1142 -0.2454
 1036TIP3    H224524   2.197   1.468   1.078 -1.3809 -0.2608 -0.1308
 1037TIP3   OH224525   0.242   5.585   5.465  0.0632 -0.4369 -0.5061
 1037TIP3    H124526   0.233   5.565   5.372  0.5385 -2.6328 -0.1522
 1037TIP3    H224527   0.185   5.521   5.508 -0.1094  0.5054  0.7322
 1038TIP3   OH224528   3.993   1.529  10.890 -0.1791  0.2993 -0.0380
 1038TIP3    H124529   3.927   1.557  10.826 -1.6266 -3.0075 -0.2042
 1038TIP3    H224530   4.069   1.506  10.837 -0.1325  0.8058 -0.2002
 1039TIP3   OH224531   1.877   1.919  15.948 -0.2776 -0.4569 -0.0224
 1039TIP3    H124532   1.814   1.847  15.956 -2.1355  1.2430  1.9782
 1039TIP3    H224533   1.871   1.965  16.032  1.0281  1.8574 -1.1079
 1040TIP3   OH224534   0.453   4.393  11.381  0.1059 -0.1997 -0.3529
 1040TIP3    H124535   0.444   4.487  11.368  0.3679 -0.2844 -1.2245
 1040TIP3    H224536   0.512   4.365  11.311 -0.5709 -1.1284 -0.5778
 1041TIP3   OH224537   1.083   4.218   0.760  0.5330 -0.1226  0.2677
 1041TIP3    H124538   0.998   4.199   0.720 -0.2313 -0.0177  1.7648
 1041TIP3    H224539   1.141   4.236   0.686 -0.2023 -2.2306 -0.9081
 1042TIP3   OH224540   5.796   1.272   2.323  0.1226  0.0963 -0.3348
 1042TIP3    H124541   5.741   1.270   2.245  1.6707  0.2262 -1.4589
 1042TIP3    H224542   5.840   1.188   2.325  0.2541  0.1725  0.2875
 1043TIP3   OH224543   2.777   2.919  15.554  0.1228 -1.1168  0.2288
 1043TIP3    H124544   2.713   2.969  15.605  1.5146 -1.0167  1.9795
 1043TIP3    H224545   2.808   2.981  15.488 -0.3962 -0.6519  0.4116
 1044TIP3   OH224546   0.641   2.027  12.511  0.1454  0.0295 -0.1605
 1044TIP3    H124547   0.596   2.111  12.500  0.0059 -0.2038 -1.5526
 1044TIP3    H224548   0.726   2.051  12.549 -0.8188  0.5351  1.8291
 1045TIP3   OH224549   4.907   1.102   6.474  0.3023  0.4328 -0.6494
 1045TIP3    H124550   4.870   1.190   6.475 -0.5106  0.1503  2.3559
 1045TIP3    H224551   4.959   1.096   6.554 -0.3727 -2.0893 -0.3008
 1046TIP3   OH224552   6.556   4.522  16.272 -0.0626  0.8291  0.0361
 1046TIP3    H124553   6.514   4.436  16.271  1.0094  0.2597  0.9570
 1046TIP3    H224554   6.627   4.514  16.208  1.1273  0.3970  1.3337
 1047TIP3   OH224555   2.361   6.609   2.354  0.0684  0.2260  0.3097
 1047TIP3    H124556   2.448   6.637   2.324 -0.8405  1.6085 -1.2310
 1047TIP3    H224557   2.300   6.667   2.308 -1.6291  0.2904  2.4874
 1048TIP3   OH224558   4.129   6.761  11.198  0.3021 -0.3047  0.3249
 1048TIP3    H124559   4.170   6.721  11.121  1.6091 -1.4974  1.5821
 1048TIP3    H224560   4.146   6.855  11.188 -0.0278 -0.3750 -1.0873
 1049TIP3   OH224561   5.602   2.391   5.813  0.3194  0.0317  0.1859
 1049TIP3    H124562   5.687   2.433   5.826  0.6828 -0.5263 -0.2820
 1049TIP3    H224563   5.624   2.304   5.779 -0.4485  0.0013 -0.2575
 1050TIP3   OH224564   3.437   3.042  11.313 -0.1307  0.1878 -0.7731
 1050TIP3    H124565   3.366   2.989  11.278 -0.5981  0.7920 -0.7600
 1050TIP3    H224566   3.437   3.121  11.258 -0.9570  1.2050  0.6148
 1051TIP3   OH224567   2.061   3.002   0.099 -0.1965  0.4545 -0.2456
 1051TIP3    H124568   2.031   3.034   0.014  2.0253  0.2091 -1.1994
 1051TIP3    H224569   2.066   2.907   0.088  0.6520  0.4708 -0.0512
 1052TIP3   OH224570   2.385   1.121  10.361 -0.2825 -0.2700  0.0743
 1052TIP3    H124571   2.405   1.213  10.382 -0.6084  0.5351 -2.7102
 1052TIP3    H224572   2.420   1.109  10.273 -0.9531 -2.6113  0.0794
 1053TIP3   OH224573   2.614   5.254   2.836 -0.3850 -0.0514  0.2982
 1053TIP3    H124574   2.547   5.240   2.904 -1.0649  2.2994  0.2020
 1053TIP3    H224575   2.644   5.166   2.814 -1.9372 -1.0480  1.8557
 1054TIP3   OH224576   2.131   6.527  13.388 -0.0493 -0.3004 -0.0734
 1054TIP3    H124577   2.191   6.580  13.335 -1.1601  1.7964  0.6727
 1054TIP3    H224578   2.101   6.459  13.328  1.4722 -0.1663 -1.0568
 1055TIP3   OH224579   4.708   5.927   2.616  0.2531 -0.3251 -0.0533
 1055TIP3    H124580   4.771   5.879   2.563  0.1760 -0.2251 -0.2353
 1055TIP3    H224581   4.725   6.019   2.597 -0.3862 -0.3101 -0.6196
 1056TIP3   OH224582   0.156   1.246  15.826  0.5968  0.0722  0.2141
 1056TIP3    H124583   0.205   1.278  15.901  0.3934 -0.8854  0.7785
 1056TIP3    H224584   0.214   1.262  15.751  1.2429  0.0880  0.7097
 1057TIP3   OH224585   2.872   0.817   5.631 -0.3029 -0.7198  0.3900
 1057TIP3    H124586   2.886   0.722   5.626 -0.5137 -0.8270  1.4289
 1057TIP3    H224587   2.791   0.826   5.682 -0.0086  0.0290  0.7373
 1058TIP3   OH224588   4.547   2.534   1.923 -0.0340 -0.0556  0.4887
 1058TIP3    H124589   4.586   2.592   1.988  1.0809 -0.3395  0.1002
 1058TIP3    H224590   4.462   2.510   1.959 -0.3660  1.5294  0.8160
 1059TIP3   OH224591   0.458   6.606   3.541  0.2441  0.0433 -0.7788
 1059TIP3    H124592   0.420   6.619   3.454 -0.2954  1.8277 -0.3254
 1059TIP3    H224593   0.400   6.655   3.600  0.6200 -1.0899  0.5981
 1060TIP3   OH224594   0.717   5.753   3.615  0.0516  0.4076 -0.0715
 1060TIP3    H124595   0.673   5.788   3.693 -0.8846  1.7036 -1.1339
 1060TIP3    H224596   0.662   5.681   3.586  2.1709 -2.4086  2.3295
 1061TIP3   OH224597   2.167   4.421   3.929 -0.4037 -0.6608  0.2296
 1061TIP3    H124598   2.155   4.505   3.886 -2.4162 -1.2262 -0.4096
 1061TIP3    H224599   2.160   4.440   4.022 -0.9473 -0.1256  0.0870
 1062TIP3   OH224600   4.332   0.892  13.956  0.5379 -0.1558 -0.0504
 1062TIP3    H124601   4.273   0.967  13.956 -0.2011 -0.7131 -1.1140
 1062TIP3    H224602   4.325   0.856  14.044  2.4435  2.1421  1.1872
 1063TIP3   OH224603   4.049   1.824  12.006 -0.5050  0.4133  0.3367
 1063TIP3    H124604   3.977   1.872  12.046 -0.6545 -0.3190  0.9778
 1063TIP3    H224605   4.041   1.736  12.043  1.2080  0.5249  1.0303
 1064TIP3   OH224606   3.017   2.130   4.253 -0.5312 -0.1563 -0.2095
 1064TIP3    H124607   3.076   2.081   4.196 -1.2525  0.2440 -1.3387
 1064TIP3    H224608   3.025   2.088   4.338 -1.8070 -2.8837 -1.3293
 1065TIP3   OH224609   2.422   4.628   5.310 -0.0022  0.4322 -0.0672
 1065TIP3    H124610   2.440   4.721   5.320  0.1785  0.2833  1.2594
 1065TIP3    H224611   2.350   4.611   5.372  0.4161 -0.4228  0.2049
 1066TIP3   OH224612   0.234   0.620  14.561  0.0298 -0.5277  0.3537
 1066TIP3    H124613   0.196   0.620  14.473 -0.9185  0.2027  0.7436
 1066TIP3    H224614   0.283   0.538  14.566 -0.9047 -1.1589 -0.4372
 1067TIP3   OH224615   0.999   4.211  15.531  0.1458 -0.4566  0.3904
 1067TIP3    H124616   1.004   4.265  15.451  0.8793 -1.3244 -0.1630
 1067TIP3    H224617   0.923   4.246  15.578 -0.4312 -0.0544 -0.7889
 1068TIP3   OH224618   5.854   3.379   5.181 -0.2882 -0.3768 -0.0824
 1068TIP3    H124619   5.850   3.328   5.261 -0.0243 -0.8960 -0.3976
 1068TIP3    H224620   5.945   3.411   5.177 -0.1900 -0.6905 -0.3806
 1069TIP3   OH224621   1.063   2.977   0.844 -0.1286  0.5685  0.6872
 1069TIP3    H124622   0.973   2.967   0.878 -0.5352 -1.7581 -0.8171
 1069TIP3    H224623   1.117   2.933   0.910 -0.2572  0.8259  0.9662
 1070TIP3   OH224624   1.928   1.787  13.136 -0.0062  0.5584 -0.6777
 1070TIP3    H124625   2.019   1.761  13.119  0.3745  1.2877  0.1552
 1070TIP3    H224626   1.887   1.789  13.049 -0.1145 -2.8529 -0.8148
 1071TIP3   OH224627   2.671   4.297  13.599  0.6110  0.9843 -0.2651
 1071TIP3    H124628   2.689   4.370  13.540  1.1972  0.4544 -0.7613
 1071TIP3    H224629   2.628   4.232  13.543 -0.1654  1.0487  0.2330
 1072TIP3   OH224630   4.739   5.791   2.850 -1.1406  0.2593 -0.2707
 1072TIP3    H124631   4.724   5.804   2.757  0.1411 -0.2653 -0.5836
 1072TIP3    H224632   4.752   5.879   2.885 -2.5049  0.5318 -0.3939
 1073TIP3   OH224633   4.202   5.765   2.028  0.2014 -0.0523 -0.0470
 1073TIP3    H124634   4.264   5.776   1.955  1.4588 -0.3474  0.9311
 1073TIP3    H224635   4.225   5.835   2.089  0.4375 -0.9406  0.9074
 1074TIP3   OH224636   5.721   1.226   4.104 -0.0044 -0.0709 -0.3380
 1074TIP3    H124637   5.713   1.321   4.104  0.5773  0.0384 -2.9456
 1074TIP3    H224638   5.759   1.205   4.190  1.3673  2.1901 -0.3215
 1075TIP3   OH224639   2.683   2.927  13.204 -0.1357 -0.1891  0.5390
 1075TIP3    H124640   2.643   3.009  13.231 -2.2540 -0.9328 -0.0962
 1075TIP3    H224641   2.634   2.860  13.250  0.9929 -1.1532  0.3926
 1076TIP3   OH224642   6.505   5.276  13.804  0.1345  0.8148  0.1377
 1076TIP3    H124643   6.435   5.228  13.759  0.4443  1.7629 -1.4213
 1076TIP3    H224644   6.476   5.280  13.896 -1.7569  1.0024 -0.4240
 1077TIP3   OH224645   5.058   1.418   6.750  0.4463  0.0159  0.0372
 1077TIP3    H124646   5.134   1.370   6.716 -1.6770 -1.1190 -3.6260
 1077TIP3    H224647   5.070   1.508   6.717  0.4977 -0.0288 -0.0675
 1078TIP3   OH224648   3.180   1.890  16.911 -0.6710  0.3762  0.1485
 1078TIP3    H124649   3.207   1.952  16.979 -0.3066  1.2650 -0.7685
 1078TIP3    H224650   3.090   1.869  16.933 -0.6844  0.9476  0.6950
 1079TIP3   OH224651   3.372   6.619   3.808 -0.5696 -0.5051 -0.1215
 1079TIP3    H124652   3.366   6.659   3.895  1.1722 -1.0249  0.2828
 1079TIP3    H224653   3.306   6.550   3.809 -0.2843 -0.7837  0.9732
 1080TIP3   OH224654   2.567   2.993  11.622  0.6840 -0.8783 -0.8099
 1080TIP3    H124655   2.529   2.925  11.567 -1.4246 -0.0450 -0.4804
 1080TIP3    H224656   2.536   3.075  11.584  1.1987 -0.1855  0.1946
 1081TIP3   OH224657   0.035   2.459  15.788  0.5289 -0.0837 -0.0549
 1081TIP3    H124658   0.017   2.372  15.753  2.1047 -0.5558  0.2543
 1081TIP3    H224659  -0.052   2.495  15.808 -0.2888 -0.7268 -2.1532
 1082TIP3   OH224660   6.268   2.368   2.267 -0.0080 -0.5622 -0.4746
 1082TIP3    H124661   6.358   2.393   2.248 -0.9887  4.2651 -0.0176
 1082TIP3    H224662   6.225   2.365   2.182  0.0707 -0.5105 -0.5165
 1083TIP3   OH224663   4.239   0.989   1.895 -0.1872 -0.0184  0.2286
 1083TIP3    H124664   4.327   1.026   1.886 -0.7833  1.4799  0.3999
 1083TIP3    H224665   4.195   1.045   1.958 -1.6264 -0.1080 -0.6505
 1084TIP3   OH224666   4.052   3.368   4.565 -0.1275  0.0428 -0.5904
 1084TIP3    H124667   4.095   3.283   4.572 -0.3970  0.0343  1.8497
 1084TIP3    H224668   4.078   3.415   4.644 -1.8674  1.3263 -0.7163
 1085TIP3   OH224669   0.681   4.958   1.896 -0.3773  0.7411 -0.3298
 1085TIP3    H124670   0.634   5.039   1.913 -3.3267 -0.7420 -0.6356
 1085TIP3    H224671   0.674   4.945   1.801 -0.4842 -0.1314 -0.2168
 1086TIP3   OH224672   0.318   3.042   4.650 -0.2964  0.1626  0.2311
 1086TIP3    H124673   0.406   3.071   4.623 -0.1376  1.7428  2.2399
 1086TIP3    H224674   0.286   2.991   4.575  2.5697 -1.0390 -0.3275
 1087TIP3   OH224675   0.088   4.406  15.443 -0.0611 -0.2512 -0.3313
 1087TIP3    H124676   0.133   4.486  15.415 -0.5829  0.2229  0.1622
 1087TIP3    H224677   0.150   4.363  15.502  0.7350 -0.8701 -1.5641
 1088TIP3   OH224678   4.945   5.784  11.291  0.3001 -0.0560 -0.7977
 1088TIP3    H124679   4.975   5.788  11.200 -1.5887  1.4943 -1.4090
 1088TIP3    H224680   4.926   5.874  11.314  1.5347 -0.3148  1.4673
 1089TIP3   OH224681   4.814   5.078   4.976  0.4017 -0.0962  0.0294
 1089TIP3    H124682   4.822   5.166   4.938  2.1876  0.0986  0.7236
 1089TIP3    H224683   4.887   5.029   4.938 -0.4408 -1.2449 -0.1735
 1090TIP3   OH224684   4.692   5.925  17.033 -0.0515  0.3535 -0.0101
 1090TIP3    H124685   4.778   5.912  16.992  0.6091  1.3165  1.0261
 1090TIP3    H224686   4.631   5.928  16.959  0.8839  0.3626 -0.8112
 1091TIP3   OH224687   3.119   1.270  15.708  0.0955  0.7390 -0.0928
 1091TIP3    H124688   3.180   1.338  15.680 -2.2700  2.6861 -0.7908
 1091TIP3    H224689   3.124   1.271  15.804  0.6109  1.3468 -0.1208
 1092TIP3   OH224690   0.180   0.284  13.062 -0.2302  0.1901  0.0904
 1092TIP3    H124691   0.110   0.219  13.066 -2.8306  2.8256  1.0988
 1092TIP3    H224692   0.170   0.324  12.975  0.8855 -0.2464 -0.2507
 1093TIP3   OH224693   2.413   5.083   2.316 -0.3908  0.4601  0.6350
 1093TIP3    H124694   2.350   5.110   2.383 -1.3118  1.1535 -0.4810
 1093TIP3    H224695   2.389   5.133   2.238  1.4653  0.6526  0.1254
 1094TIP3   OH224696   4.086   2.972  13.081 -0.0377  0.3888  0.0356
 1094TIP3    H124697   4.091   3.068  13.085 -0.6301  0.4566 -0.5455
 1094TIP3    H224698   4.122   2.942  13.164  2.2224  1.0250 -0.6481
 1095TIP3   OH224699   5.787   3.943  13.431  0.2207 -0.4111  0.2976
 1095TIP3    H124700   5.823   3.855  13.444  0.6907 -0.3262 -0.3353
 1095TIP3    H224701   5.829   3.996  13.498  0.4120 -0.5485  0.2898
 1096TIP3   OH224702   5.982   3.913  14.323  0.4552 -0.0645  0.5640
 1096TIP3    H124703   5.900   3.918  14.274  0.9437 -3.3932 -0.8898
 1096TIP3    H224704   5.956   3.877  14.408  0.3433 -0.9069  0.1850
 1097TIP3   OH224705   0.399   3.563  14.413 -0.5318  0.1055  0.0145
 1097TIP3    H124706   0.476   3.564  14.356 -0.7046  0.2554 -0.2177
 1097TIP3    H224707   0.331   3.520  14.361 -0.9716  1.1120 -0.2684
 1098TIP3   OH224708   5.378   2.391  14.781 -0.8059 -0.4249  0.7273
 1098TIP3    H124709   5.385   2.486  14.788 -1.9803 -0.1910 -0.7260
 1098TIP3    H224710   5.297   2.369  14.827 -2.3604 -0.2485 -1.7131
 1099TIP3   OH224711   5.398   4.664  16.417  0.0792  0.7309 -0.1648
 1099TIP3    H124712   5.338   4.683  16.489  0.1860  0.0494  0.1127
 1099TIP3    H224713   5.481   4.704  16.443  0.1287  0.4535  0.1116
 1100TIP3   OH224714   1.904   5.407   1.447 -0.2834 -0.4240  0.0724
 1100TIP3    H124715   1.820   5.442   1.478  0.2141 -0.4645  1.5406
 1100TIP3    H224716   1.950   5.483   1.413 -1.5156 -0.6462 -2.2705
 1101TIP3   OH224717   4.893   5.956   4.230 -0.0158  0.1148 -0.0049
 1101TIP3    H124718   4.988   5.972   4.235 -0.1902  1.0074  0.6823
 1101TIP3    H224719   4.866   5.942   4.320 -0.7175  1.0176 -0.0578
 1102TIP3   OH224720   5.516   2.003  15.246 -0.4321  0.0665  0.4006
 1102TIP3    H124721   5.496   2.089  15.210 -1.0128  0.1210  0.8385
 1102TIP3    H224722   5.540   2.020  15.337  1.1524 -0.0542  0.0268
 1103TIP3   OH224723   6.350   5.964   1.098 -0.0276 -0.1309 -0.1675
 1103TIP3    H124724   6.435   5.955   1.140 -0.2348  1.5671  0.7014
 1103TIP3    H224725   6.320   5.874   1.086  1.4858 -0.7391  0.3292
 1104TIP3   OH224726   5.891   1.327   5.956 -0.0690  0.4715 -0.5576
 1104TIP3    H124727   5.976   1.283   5.957 -0.0568  0.3341  2.5486
 1104TIP3    H224728   5.841   1.279   5.890  0.4603 -3.3708  1.5203
 1105TIP3   OH224729   5.071   2.539  14.522 -0.5418  0.0114  0.7761
 1105TIP3    H124730   5.079   2.598  14.448 -0.7680 -1.0825 -0.1448
 1105TIP3    H224731   5.159   2.501  14.532 -0.6555 -0.2803  0.6858
 1106TIP3   OH224732   2.079   4.318  11.495  0.5678  0.1170  0.1083
 1106TIP3    H124733   2.106   4.408  11.480  0.4448  0.0886 -0.3026
 1106TIP3    H224734   2.154   4.266  11.468  0.5245  0.0843  0.0501
 1107TIP3   OH224735   5.370   3.290  15.319 -0.3714 -0.6170  0.2643
 1107TIP3    H124736   5.422   3.316  15.243  1.9561 -1.0797  1.5986
 1107TIP3    H224737   5.298   3.353  15.322  1.6420  1.8647 -0.1434
 1108TIP3   OH224738   4.348   4.229   5.873  0.5192  0.5382  0.3442
 1108TIP3    H124739   4.256   4.222   5.898  0.2368  1.5335 -0.3754
 1108TIP3    H224740   4.396   4.223   5.956 -0.3003  1.9659  0.9455
 1109TIP3   OH224741   3.069   2.639   1.127  0.6272  0.0328 -0.5946
 1109TIP3    H124742   3.118   2.721   1.120  0.0835  0.2853 -1.8280
 1109TIP3    H224743   3.000   2.657   1.191  1.1663  0.1777 -0.0432
 1110TIP3   OH224744   1.071   1.888  12.625 -0.4801 -0.1281  0.0500
 1110TIP3    H124745   1.023   1.867  12.705  0.0923  0.8062  0.6756
 1110TIP3    H224746   1.015   1.858  12.554 -0.7534 -1.4925  0.8032
 1111TIP3   OH224747   1.856   5.271  14.929 -0.1673  0.0977  0.0194
 1111TIP3    H124748   1.788   5.209  14.902  0.5579 -0.1405 -1.3457
 1111TIP3    H224749   1.935   5.241  14.885  1.1055 -0.2418  2.3821
 1112TIP3   OH224750   3.527   2.200  12.722  0.4593 -0.1228  0.2602
 1112TIP3    H124751   3.523   2.182  12.628 -0.4379  1.6023 -0.0632
 1112TIP3    H224752   3.615   2.234  12.737  0.0905  1.1109 -0.2730
 1113TIP3   OH224753   3.176   1.029  12.323 -0.6311 -0.0240  0.4335
 1113TIP3    H124754   3.081   1.034  12.317 -0.5784 -0.5750 -1.8298
 1113TIP3    H224755   3.208   1.082  12.251  0.7600 -0.5391  0.6319
 1114TIP3   OH224756   2.696   4.754   1.721  0.2611 -0.4674 -0.2728
 1114TIP3    H124757   2.758   4.693   1.682  0.4319  0.2958 -1.2244
 1114TIP3    H224758   2.612   4.709   1.715 -0.0636  0.3664 -3.3283
 1115TIP3   OH224759   2.236   1.860  11.545 -0.1283 -0.3866  0.1343
 1115TIP3    H124760   2.148   1.884  11.515  0.0836 -0.3791 -0.4874
 1115TIP3    H224761   2.228   1.769  11.573 -0.0053 -0.8484 -1.2863
 1116TIP3   OH224762   0.601   2.623   4.545 -0.5042  0.1476  0.4860
 1116TIP3    H124763   0.644   2.665   4.470 -0.7907  1.6463  1.1216
 1116TIP3    H224764   0.637   2.535   4.547  1.0387  0.7276 -0.2079
 1117TIP3   OH224765   0.156   0.578   3.775 -0.4363  0.6221  0.4621
 1117TIP3    H124766   0.113   0.576   3.860  0.7140  1.5015  1.1039
 1117TIP3    H224767   0.102   0.636   3.721 -1.0868  0.1822  0.6336
 1118TIP3   OH224768   2.431   0.449  15.011 -0.1608 -0.0544 -0.4156
 1118TIP3    H124769   2.498   0.395  15.053  0.3231 -0.2604 -1.4381
 1118TIP3    H224770   2.396   0.502  15.083  0.7765 -0.2618  0.2194
 1119TIP3   OH224771   1.197   4.024   4.848 -0.2893 -0.2255  0.1534
 1119TIP3    H124772   1.168   3.984   4.930 -0.0008  1.7067  1.2698
 1119TIP3    H224773   1.136   3.991   4.782 -1.8921 -0.1510  1.5314
 1120TIP3   OH224774   3.544   2.100   5.216  0.0821 -0.0436 -0.0947
 1120TIP3    H124775   3.575   2.116   5.305  1.2396 -2.9090  0.1456
 1120TIP3    H224776   3.569   2.178   5.167 -0.2067  1.4180  1.9838
 1121TIP3   OH224777   0.616   5.367  10.670 -0.2020  0.2805 -0.1208
 1121TIP3    H124778   0.695   5.313  10.670 -0.5650 -0.2495  0.3500
 1121TIP3    H224779   0.647   5.453  10.701  0.1212 -0.0246  0.4150
 1122TIP3   OH224780   1.664   4.236   4.488  0.2611 -0.5780  1.2738
 1122TIP3    H124781   1.748   4.191   4.503  0.8135 -0.4402 -0.9682
 1122TIP3    H224782   1.669   4.265   4.397 -1.5526  0.9435  1.6022
 1123TIP3   OH224783   2.627   6.348  13.439 -0.2992  0.6768  0.4491
 1123TIP3    H124784   2.594   6.307  13.518 -0.3008  0.4331  0.3227
 1123TIP3    H224785   2.703   6.296  13.414 -0.8423  0.1772 -0.2285
 1124TIP3   OH224786   5.197   1.516   4.045 -0.0401 -0.1990  0.3944
 1124TIP3    H124787   5.132   1.448   4.026 -0.1599  0.2384 -0.8289
 1124TIP3    H224788   5.279   1.467   4.054 -0.5199 -0.7613  2.0062
 1125TIP3   OH224789   4.396   2.887  15.166 -0.2420  0.0405 -0.0109
 1125TIP3    H124790   4.443   2.971  15.168 -1.5802  0.8384 -0.9022
 1125TIP3    H224791   4.380   2.867  15.258 -0.6698  1.2148  0.1914
 1126TIP3   OH224792   6.030   3.910  15.294  0.2476 -0.0628  0.1896
 1126TIP3    H124793   6.059   3.907  15.203 -1.7709 -1.7411 -0.4845
 1126TIP3    H224794   5.934   3.907  15.289  0.0675  0.2474  2.3715
 1127TIP3   OH224795   3.053   0.576   5.127  0.0600  0.0496  0.2783
 1127TIP3    H124796   2.963   0.550   5.110  0.4555 -0.5656 -0.9192
 1127TIP3    H224797   3.103   0.543   5.053  1.0760  1.5287  0.2558
 1128TIP3   OH224798   1.926   1.693  11.734  0.0375 -0.2533  0.7131
 1128TIP3    H124799   1.903   1.785  11.717 -0.6608 -0.4345  0.6475
 1128TIP3    H224800   2.012   1.682  11.692  1.0997  0.9066  2.4282
 1129TIP3   OH224801   5.670   1.878  12.370 -0.1874 -0.3336  0.0526
 1129TIP3    H124802   5.720   1.895  12.290  0.4779  0.4722  0.6172
 1129TIP3    H224803   5.686   1.785  12.389 -0.5106 -0.5806 -0.8470
 1130TIP3   OH224804   5.756   1.874   6.627 -0.3974 -0.4843  0.4398
 1130TIP3    H124805   5.662   1.870   6.646 -1.0731  3.6952 -0.9662
 1130TIP3    H224806   5.793   1.921   6.702  0.3033 -0.7088  0.2362
 1131TIP3   OH224807   6.332   1.415  13.806 -0.2321  0.2449 -0.4500
 1131TIP3    H124808   6.307   1.490  13.752  0.0800 -0.4399 -1.5864
 1131TIP3    H224809   6.403   1.373  13.757  0.1902 -0.3002  0.5941
 1132TIP3   OH224810   4.010   6.763   2.971  0.1602 -0.3460  0.1214
 1132TIP3    H124811   3.972   6.844   2.938  0.3829 -0.0525  0.5729
 1132TIP3    H224812   3.979   6.695   2.911 -1.3254 -0.1602  0.6337
 1133TIP3   OH224813   3.917   1.873   2.272  0.1668  0.2700  0.7536
 1133TIP3    H124814   3.929   1.898   2.364 -0.8086  1.0268  0.6940
 1133TIP3    H224815   3.994   1.907   2.228  0.0873  0.9345  1.1116
 1134TIP3   OH224816   2.253   5.479  12.027  0.3984  0.4628 -0.2905
 1134TIP3    H124817   2.177   5.424  12.045  2.0900 -1.9291  0.0021
 1134TIP3    H224818   2.279   5.514  12.112 -0.6629  1.8194 -0.4736
 1135TIP3   OH224819   5.152   3.789  12.136  0.3784  0.1154  0.0957
 1135TIP3    H124820   5.083   3.853  12.118 -1.5652 -2.1385 -1.0730
 1135TIP3    H224821   5.106   3.705  12.142  2.9602 -1.4318 -0.1015
 1136TIP3   OH224822   0.665   6.031  11.252  0.4244  0.4462 -0.6300
 1136TIP3    H124823   0.698   6.088  11.322 -0.2352 -0.5636  0.5529
 1136TIP3    H224824   0.744   5.997  11.209  1.1088 -1.9336  2.1472
 1137TIP3   OH224825   5.784   3.660   5.084  0.1885  0.1297  0.0400
 1137TIP3    H124826   5.724   3.722   5.044  1.3915  0.4367 -1.3819
 1137TIP3    H224827   5.733   3.619   5.154 -1.2261  1.3301 -0.2356
 1138TIP3   OH224828   5.756   4.047  14.775 -0.4187 -0.2196 -0.2295
 1138TIP3    H124829   5.807   4.079  14.850  1.3355 -0.5294 -1.2448
 1138TIP3    H224830   5.665   4.071  14.796  0.1621  0.6477  1.4855
 1139TIP3   OH224831   5.465   2.740  14.296  0.0819 -0.2991 -0.1493
 1139TIP3    H124832   5.467   2.789  14.214 -1.0390 -0.4741 -0.3094
 1139TIP3    H224833   5.383   2.767  14.338  0.3147 -0.7100  0.5993
 1140TIP3   OH224834   6.175   3.969  11.563 -0.1513 -0.1888  0.4788
 1140TIP3    H124835   6.216   3.969  11.649 -0.1850  1.1091  0.5113
 1140TIP3    H224836   6.171   3.876  11.538  1.6840 -0.4480  1.0066
 1141TIP3   OH224837   2.428   4.038   2.199  0.0779 -0.0069  0.6515
 1141TIP3    H124838   2.505   4.086   2.230 -1.5241  1.8421  2.0306
 1141TIP3    H224839   2.390   4.094   2.132 -1.2366  0.1984  1.5244
 1142TIP3   OH224840   2.279   5.072   0.238  0.2491 -0.9174 -0.4094
 1142TIP3    H124841   2.254   5.047   0.327 -0.2740  1.2070  0.0924
 1142TIP3    H224842   2.196   5.090   0.194  0.5969  0.5536 -0.5064
 1143TIP3   OH224843   3.415   1.582   6.422 -0.3865 -0.4594  0.8294
 1143TIP3    H124844   3.509   1.596   6.414 -0.5270  0.6399  0.9578
 1143TIP3    H224845   3.403   1.545   6.509  0.2256 -3.7277 -0.3416
 1144TIP3   OH224846   1.905   4.925  11.559  0.2804 -0.3841  0.3236
 1144TIP3    H124847   1.855   4.856  11.515  0.8777 -0.6654  0.0760
 1144TIP3    H224848   1.936   4.982  11.489 -0.0717  0.0493  0.5144
 1145TIP3   OH224849   3.671   0.401   4.519 -0.0656  0.1312  0.4301
 1145TIP3    H124850   3.731   0.464   4.560  1.3228 -1.1327  0.4219
 1145TIP3    H224851   3.728   0.330   4.490 -1.0524  0.5439 -2.9423
 1146TIP3   OH224852   5.111   0.842   4.638  0.1290 -0.4507 -0.3220
 1146TIP3    H124853   5.163   0.774   4.595 -0.3934 -0.4372 -0.9809
 1146TIP3    H224854   5.138   0.838   4.730 -0.3513 -1.9719 -0.2262
 1147TIP3   OH224855   3.453   2.987  16.674  0.2729 -0.9020 -0.1528
 1147TIP3    H124856   3.531   3.029  16.638 -1.5225  2.6773 -0.3557
 1147TIP3    H224857   3.422   3.048  16.742 -1.5957 -2.8528  0.8720
 1148TIP3   OH224858   0.656   1.804   0.790  0.1901 -0.1616  0.3086
 1148TIP3    H124859   0.687   1.808   0.700  0.9149 -0.7816  0.5166
 1148TIP3    H224860   0.564   1.829   0.785  0.4005  0.4974 -0.5004
 1149TIP3   OH224861   1.688   2.249  11.012 -0.3838 -0.1556 -0.3932
 1149TIP3    H124862   1.774   2.221  11.044 -0.9321  0.2959  1.6157
 1149TIP3    H224863   1.703   2.337  10.978 -0.3994  0.9225  2.1224
 1150TIP3   OH224864   0.508   1.963  17.151 -0.1883  0.5320 -0.3171
 1150TIP3    H124865   0.422   2.000  17.130 -0.6282 -0.6056 -0.6080
 1150TIP3    H224866   0.497   1.868  17.138  0.8848  0.2866  0.4221
 1151TIP3   OH224867   3.154   1.307  15.962 -0.0624 -0.6145  0.6102
 1151TIP3    H124868   3.226   1.290  16.022  1.5792  0.6778 -0.8826
 1151TIP3    H224869   3.132   1.399  15.976  1.0687  0.0212 -1.4241
 1152TIP3   OH224870   2.471   1.572   4.795  0.4145 -0.7072  0.0166
 1152TIP3    H124871   2.434   1.499   4.744 -0.2440  0.0739 -0.6438
 1152TIP3    H224872   2.414   1.579   4.871  1.9489 -2.4892  1.4072
 1153TIP3   OH224873   4.301   2.724  14.971  0.2710  0.2250 -0.1832
 1153TIP3    H124874   4.292   2.783  14.896 -2.6482  0.5523  0.3135
 1153TIP3    H224875   4.335   2.780  15.041 -1.2230  1.0605 -0.0825
 1154TIP3   OH224876   6.084   1.670  14.613 -0.1984  0.5810  0.0746
 1154TIP3    H124877   6.081   1.671  14.517  0.2896 -0.3098  0.0360
 1154TIP3    H224878   5.994   1.656  14.641 -0.3746  1.0710 -0.2500
 1155TIP3   OH224879   2.525   3.380  13.904 -0.0148  0.0130  0.3940
 1155TIP3    H124880   2.464   3.352  13.835  0.5048 -0.1365 -0.0100
 1155TIP3    H224881   2.468   3.419  13.971 -0.5536 -0.0974  0.0134
 1156TIP3   OH224882   1.094   1.987  11.345  0.1469 -0.3146 -0.0951
 1156TIP3    H124883   1.182   2.018  11.368 -0.6331  1.4236  0.7541
 1156TIP3    H224884   1.070   2.036  11.266 -0.3589 -0.1956  0.1258
 1157TIP3   OH224885   1.076   6.736  15.567  0.5896 -0.1241  0.2390
 1157TIP3    H124886   1.064   6.830  15.577  0.8920  0.2508 -2.3187
 1157TIP3    H224887   1.067   6.701  15.656 -1.3079  2.0811  1.0082
 1158TIP3   OH224888   5.795   5.630   4.990  0.1395  0.3589 -0.3083
 1158TIP3    H124889   5.784   5.612   4.897  1.4523  1.0679 -0.6217
 1158TIP3    H224890   5.707   5.647   5.022 -0.7574 -2.8977 -0.7467
 1159TIP3   OH224891   1.681   1.739  15.965 -0.0884 -0.0902  0.2296
 1159TIP3    H124892   1.665   1.651  15.998  0.4173  0.3807  1.8494
 1159TIP3    H224893   1.603   1.789  15.990  0.7282  0.5183  1.7864
 1160TIP3   OH224894   2.637   1.782   0.313 -0.1719 -0.2948  0.0599
 1160TIP3    H124895   2.559   1.783   0.370 -0.4004 -0.1048 -0.2558
 1160TIP3    H224896   2.602   1.766   0.225 -0.3935  4.0765 -0.8492
 1161TIP3   OH224897   3.034   2.663  12.326 -0.1951 -0.0583 -0.3097
 1161TIP3    H124898   3.016   2.753  12.300  1.7698 -0.1109 -2.1015
 1161TIP3    H224899   3.112   2.669  12.382 -0.7863 -0.5669  0.6074
 1162TIP3   OH224900   2.694   3.610   3.843 -0.4317 -0.1912 -0.1604
 1162TIP3    H124901   2.615   3.663   3.840  0.6998  1.6233  0.4452
 1162TIP3    H224902   2.717   3.595   3.751  0.0099  1.6263 -0.3694
 1163TIP3   OH224903   0.930   6.307  12.911 -0.3135  0.2102  0.0511
 1163TIP3    H124904   0.976   6.380  12.870  0.6594 -0.8668 -0.8278
 1163TIP3    H224905   0.908   6.248  12.839 -1.1656 -0.3387  0.7342
 1164TIP3   OH224906   2.099   6.431   0.585 -0.2892  0.2267 -0.7436
 1164TIP3    H124907   2.009   6.450   0.609 -1.0355 -0.4006 -2.8227
 1164TIP3    H224908   2.134   6.515   0.555 -0.1880  0.4523 -0.0144
 1165TIP3   OH224909   1.072   6.520   2.585 -0.5446 -0.1851  0.4037
 1165TIP3    H124910   1.111   6.585   2.644 -0.6237  0.4585 -0.2383
 1165TIP3    H224911   1.000   6.566   2.542 -1.8979 -1.3055  1.4161
 1166TIP3   OH224912   3.145   0.993  11.104  0.0414 -0.0700 -0.1591
 1166TIP3    H124913   3.220   0.975  11.160 -0.6699 -2.6556  0.1028
 1166TIP3    H224914   3.084   1.042  11.159  0.7011  0.2837  0.2609
 1167TIP3   OH224915   5.982   6.471  14.108  0.3356 -0.2011  0.4834
 1167TIP3    H124916   5.915   6.533  14.080  0.1284 -0.3328  0.6855
 1167TIP3    H224917   6.021   6.511  14.186  1.4325  0.5316 -0.4015
 1168TIP3   OH224918   6.422   1.172   2.232  0.5162  0.0373  0.3943
 1168TIP3    H124919   6.349   1.126   2.273  1.3833  0.5985  2.7025
 1168TIP3    H224920   6.434   1.128   2.148 -0.8044 -1.7418  1.0756
 1169TIP3   OH224921   0.229   1.554  14.357  0.0548 -0.0049 -0.3528
 1169TIP3    H124922   0.296   1.515  14.413  0.1154 -1.4439 -1.3750
 1169TIP3    H224923   0.147   1.541  14.405  0.4075  1.3691  0.6982
 1170TIP3   OH224924   3.298   0.288   3.187 -0.3484  0.1914 -0.2672
 1170TIP3    H124925   3.221   0.258   3.139 -0.7402  1.4325 -0.4422
 1170TIP3    H224926   3.273   0.374   3.222  0.0673 -0.4905  1.8466
 1171TIP3   OH224927   6.269   5.927   5.101  0.3615  0.5935  0.3327
 1171TIP3    H124928   6.256   5.865   5.173  0.3494  0.2995  0.0799
 1171TIP3    H224929   6.288   6.010   5.144  0.8386  0.3133  0.6746
 1172TIP3   OH224930   2.917   4.228   2.540  0.2550 -0.0777 -0.6307
 1172TIP3    H124931   2.841   4.171   2.526  0.6499 -1.1930  1.4140
 1172TIP3    H224932   2.992   4.168   2.542  1.1939  0.9694 -2.2637
 1173TIP3   OH224933   5.751   6.580   2.706 -0.2435 -0.2883 -0.3290
 1173TIP3    H124934   5.709   6.505   2.749 -0.5514 -1.8256 -3.0575
 1173TIP3    H224935   5.803   6.541   2.636  1.8427  1.9308 -0.1358
 1174TIP3   OH224936   6.178   2.527   0.158  0.4663  0.1861  0.1318
 1174TIP3    H124937   6.158   2.562   0.245 -0.1574 -1.8885  0.8921
 1174TIP3    H224938   6.268   2.495   0.165  0.5686  0.4119 -0.1299
 1175TIP3   OH224939   6.170   5.627   0.312 -0.6072  0.0264  0.1856
 1175TIP3    H124940   6.135   5.550   0.357 -0.2080 -0.7259 -0.7733
 1175TIP3    H224941   6.099   5.657   0.256 -0.9125  0.6372  0.8734
 1176TIP3   OH224942   0.009   0.277  12.034 -0.0732 -0.6818  0.3491
 1176TIP3    H124943   0.093   0.313  12.065  0.1074 -0.3090 -0.5460
 1176TIP3    H224944  -0.057   0.330  12.079  0.1886  0.4366 -0.5416
 1177TIP3   OH224945   4.475   0.774   2.143 -0.4054 -0.1251  0.2525
 1177TIP3    H124946   4.442   0.743   2.058 -0.4243  0.2033  0.1404
 1177TIP3    H224947   4.542   0.839   2.121 -0.3381 -0.1109  0.4907
 1178TIP3   OH224948   4.005   6.472   0.605  0.6658  0.1524 -0.0940
 1178TIP3    H124949   4.020   6.378   0.609  0.4772  0.1092 -0.3522
 1178TIP3    H224950   4.083   6.511   0.645  0.8413 -0.1070 -0.1840
 1179TIP3   OH224951   0.563   1.942  13.039  0.5889  0.1503 -0.6436
 1179TIP3    H124952   0.606   1.970  13.120  0.9235  0.5461 -0.9517
 1179TIP3    H224953   0.601   1.998  12.971 -0.5462  0.6342 -0.9029
 1180TIP3   OH224954   2.111   5.626  13.179  0.1016 -0.0536 -0.1177
 1180TIP3    H124955   2.106   5.551  13.120  0.5922 -0.1542 -0.0365
 1180TIP3    H224956   2.021   5.658  13.186 -0.2720 -1.2087  0.6016
 1181TIP3   OH224957   1.881   5.339  11.243 -0.2563 -0.0709  0.1193
 1181TIP3    H124958   1.822   5.352  11.168  1.3470 -0.1119 -1.2012
 1181TIP3    H224959   1.874   5.420  11.294  0.7238  1.1572 -1.6099
 1182TIP3   OH224960   0.833   0.019   4.377  0.3892  0.3783 -0.3751
 1182TIP3    H124961   0.848   0.025   4.472  0.2531  0.8473 -0.3819
 1182TIP3    H224962   0.759  -0.041   4.369  0.3885  0.3510 -0.1857
 1183TIP3   OH224963   4.425   3.124   3.689  0.1916 -0.3392 -0.2265
 1183TIP3    H124964   4.501   3.074   3.661  1.2202  1.0189  0.0515
 1183TIP3    H224965   4.372   3.062   3.738  2.1827 -0.8181  1.4367
 1184TIP3   OH224966   3.308   5.215  12.171  0.0943  0.4451  0.0307
 1184TIP3    H124967   3.333   5.298  12.129 -0.1068  0.5792  0.1747
 1184TIP3    H224968   3.329   5.228  12.263 -2.3580  1.3111  0.5263
 1185TIP3   OH224969   1.888   0.656  15.118 -0.3579 -0.1882  0.4512
 1185TIP3    H124970   1.870   0.648  15.212  0.1380  0.6184  0.6184
 1185TIP3    H224971   1.852   0.575  15.080 -0.0739 -0.7713  1.4013
 1186TIP3   OH224972   1.985   0.923   1.552 -0.4679  0.5319 -0.4061
 1186TIP3    H124973   1.981   0.828   1.551 -0.2643  0.5022 -2.4545
 1186TIP3    H224974   2.030   0.945   1.634 -3.8196 -0.9112  2.0677
 1187TIP3   OH224975   5.058   2.251   4.787  0.6215 -0.3189  0.0846
 1187TIP3    H124976   5.030   2.266   4.878  2.1833  1.5562  0.3274
 1187TIP3    H224977   5.031   2.330   4.741 -0.6708 -1.4984 -1.2709
 1188TIP3   OH224978   2.950   6.488   0.732  0.2395  0.6266 -0.2615
 1188TIP3    H124979   2.999   6.567   0.754  2.8775 -1.0021  0.2302
 1188TIP3    H224980   2.966   6.429   0.806 -0.1931 -0.9651 -1.3948
 1189TIP3   OH224981   2.114   4.503   4.881  0.4972 -0.2204  0.4221
 1189TIP3    H124982   2.179   4.520   4.813  0.3718  1.9432  0.7635
 1189TIP3    H224983   2.032   4.488   4.833  0.2612  1.9974  0.0455
 1190TIP3   OH224984   1.174   3.067  14.148 -0.0811  0.2009  1.1585
 1190TIP3    H124985   1.175   3.126  14.224 -0.2807  1.1188  0.4714
 1190TIP3    H224986   1.199   2.982  14.184  0.6512  0.7890  2.1095
 1191TIP3   OH224987   5.216   1.683   2.388  0.2031  0.5750  0.0919
 1191TIP3    H124988   5.244   1.607   2.439 -0.6619 -0.0144 -0.2965
 1191TIP3    H224989   5.133   1.657   2.349 -0.9298  2.2715  1.2095
 1192TIP3   OH224990   0.257   1.851   2.391  0.5533 -0.1810 -0.7188
 1192TIP3    H124991   0.206   1.928   2.417 -0.0020 -0.6945 -0.2757
 1192TIP3    H224992   0.333   1.888   2.345  0.9929  0.6953  0.6459
 1193TIP3   OH224993   1.258   5.324   5.398 -0.1352  0.2604  0.2535
 1193TIP3    H124994   1.326   5.299   5.461 -1.0048 -0.9488  0.7511
 1193TIP3    H224995   1.204   5.245   5.389 -1.2205  1.0608 -0.4682
 1194TIP3   OH224996   4.495   2.757   6.115 -0.1893 -0.6535 -0.3507
 1194TIP3    H124997   4.554   2.811   6.062 -1.5133  2.0526  0.6894
 1194TIP3    H224998   4.548   2.683   6.144  1.7292 -0.0201 -2.0116
 1195TIP3   OH224999   0.886   0.316  11.720  0.3938 -0.1322 -0.7344
 1195TIP3    H125000   0.834   0.371  11.662 -1.1964 -2.2679 -1.4464
 1195TIP3    H225001   0.913   0.375  11.791 -1.4774  1.4693 -1.2733
 1196TIP3   OH225002   0.405   1.371  13.717 -0.4405 -0.3930  0.2143
 1196TIP3    H125003   0.474   1.359  13.782 -2.1825  0.4507  2.3632
 1196TIP3    H225004   0.331   1.407  13.767 -1.9501  0.1395 -2.2275
 1197TIP3   OH225005   3.596   4.330  11.595  0.5766 -0.0927 -0.6372
 1197TIP3    H125006   3.578   4.408  11.649  0.5419 -1.1418  0.9397
 1197TIP3    H225007   3.581   4.359  11.505 -1.0172  1.2911  0.0117
 1198TIP3   OH225008   2.749   4.958  11.931  0.7856 -1.1455 -0.2329
 1198TIP3    H125009   2.697   4.879  11.918 -2.3144  0.5267  0.9710
 1198TIP3    H225010   2.768   4.990  11.842 -1.6836 -1.0268 -0.7784
 1199TIP3   OH225011   2.548   0.093   0.744 -0.1465 -0.4243  0.2673
 1199TIP3    H125012   2.615   0.032   0.775  0.0048 -1.6191 -2.1426
 1199TIP3    H225013   2.469   0.041   0.737  0.0373 -0.4940 -2.0304
 1200TIP3   OH225014   6.259   6.124  11.641  0.1071 -0.4283  0.7681
 1200TIP3    H125015   6.309   6.078  11.708 -1.5203 -1.1539  1.5473
 1200TIP3    H225016   6.257   6.063  11.567 -0.6507 -0.9385  1.1945
 1201TIP3   OH225017   2.124   6.025  15.347 -0.3986 -0.3620 -0.0909
 1201TIP3    H125018   2.103   5.968  15.421 -2.6471  0.2756 -0.1747
 1201TIP3    H225019   2.087   5.981  15.271 -1.1190  0.6108 -0.3254
 1202TIP3   OH225020   4.406   4.539  13.975  0.1110  0.0102 -0.4322
 1202TIP3    H125021   4.360   4.505  13.898  0.5605 -1.3134 -0.1397
 1202TIP3    H225022   4.378   4.481  14.046  1.6109 -0.3341 -0.1005
 1203TIP3   OH225023   5.743   5.099   1.841 -0.4758  0.2276 -0.0213
 1203TIP3    H125024   5.795   5.028   1.878 -0.5291 -0.4372 -1.1860
 1203TIP3    H225025   5.663   5.101   1.894  1.1742  2.0797  2.6226
 1204TIP3   OH225026   3.012   4.205   5.108 -0.4482  0.3644  0.5698
 1204TIP3    H125027   2.917   4.214   5.117 -0.5426  0.4779 -0.3957
 1204TIP3    H225028   3.025   4.190   5.014  0.5090  0.6054  0.6586
 1205TIP3   OH225029   5.446   6.136  12.912 -0.4980  0.3354 -0.4488
 1205TIP3    H125030   5.473   6.227  12.905 -1.5641  0.8869  1.6497
 1205TIP3    H225031   5.488   6.105  12.993 -3.0021  0.1246  0.8723
 1206TIP3   OH225032   2.789   1.670  14.226 -0.2541  0.3830 -0.2437
 1206TIP3    H125033   2.878   1.670  14.262  0.2463 -1.9961 -1.3084
 1206TIP3    H225034   2.777   1.760  14.195  1.5186  0.9358  0.5126
 1207TIP3   OH225035   1.662   5.138  12.806 -0.2231 -0.1359  0.2938
 1207TIP3    H125036   1.579   5.096  12.827  0.1775 -0.4549  1.2941
 1207TIP3    H225037   1.696   5.168  12.891  0.9631 -0.5348 -0.0160
 1208TIP3   OH225038   5.206   2.756   4.528 -0.3511 -0.0061  0.0903
 1208TIP3    H125039   5.283   2.756   4.586 -0.5191 -0.3984  0.3195
 1208TIP3    H225040   5.191   2.663   4.509 -1.1124  0.0271  0.5054
 1209TIP3   OH225041   5.305   2.923  11.081  0.0465  0.7728 -0.4155
 1209TIP3    H125042   5.218   2.890  11.061  0.5035 -1.0816  0.4016
 1209TIP3    H225043   5.324   2.987  11.012 -1.6919  0.7615 -0.9413
 1210TIP3   OH225044   4.197   6.561  16.759  0.0925 -0.1700 -0.3757
 1210TIP3    H125045   4.238   6.634  16.807  0.1533 -0.0382 -0.6279
 1210TIP3    H225046   4.268   6.498  16.748 -0.1471 -0.5935  0.4936
 1211TIP3   OH225047   5.984   1.570   6.108 -0.6372 -0.2067  0.4891
 1211TIP3    H125048   6.070   1.568   6.150 -0.6689  0.2639  0.5807
 1211TIP3    H225049   5.976   1.484   6.067 -0.2067 -0.3279  0.6469
 1212TIP3   OH225050   4.395   4.695  11.826 -0.0492 -0.0017 -0.2698
 1212TIP3    H125051   4.359   4.769  11.875  1.5151  0.0104  0.9312
 1212TIP3    H225052   4.483   4.724  11.800  0.0975 -0.9576 -0.9083
 1213TIP3   OH225053   6.789   3.389   5.427  0.4669  0.6860 -0.5422
 1213TIP3    H125054   6.823   3.312   5.473 -0.6913  0.5004  0.0564
 1213TIP3    H225055   6.841   3.394   5.347  1.0306 -0.3111 -0.2604
 1214TIP3   OH225056   3.788   6.497   4.883 -0.1782  0.1482 -0.0677
 1214TIP3    H125057   3.878   6.506   4.917 -1.1658 -0.1603  2.9768
 1214TIP3    H225058   3.733   6.520   4.958 -2.6674  0.3525 -1.8708
 1215TIP3   OH225059   3.548   0.332  16.739  0.0067  0.0129  0.2093
 1215TIP3    H125060   3.470   0.368  16.780 -0.7628  0.5252 -1.5825
 1215TIP3    H225061   3.515   0.269  16.675  1.2358 -2.1914  1.5951
 1216TIP3   OH225062   3.637   5.029  13.980 -0.0119 -0.1203  0.4307
 1216TIP3    H125063   3.647   4.944  14.022  1.1535 -0.3528 -0.2834
 1216TIP3    H225064   3.700   5.029  13.908  1.3104  2.0280  1.4834
 1217TIP3   OH225065   5.792   5.443   2.307  0.3149 -0.4553  0.4630
 1217TIP3    H125066   5.867   5.429   2.250  0.2222  0.5810  0.0601
 1217TIP3    H225067   5.716   5.421   2.253  0.3468 -2.7578  1.2699
 1218TIP3   OH225068   6.648   2.283  14.913 -0.1550 -0.4533  0.1601
 1218TIP3    H125069   6.559   2.263  14.883 -0.0628 -0.7740  0.0881
 1218TIP3    H225070   6.669   2.212  14.974 -0.5366  0.4820  1.4194
 1219TIP3   OH225071   3.515   6.347  15.475  0.2365 -0.0201  0.1788
 1219TIP3    H125072   3.547   6.316  15.391 -1.8622  0.8417 -1.0023
 1219TIP3    H225073   3.468   6.273  15.512 -1.2130  0.4272 -0.7180
 1220TIP3   OH225074   5.748   1.396   2.921 -0.1552  0.1784 -0.2699
 1220TIP3    H125075   5.678   1.461   2.925 -0.4219 -0.1064 -0.1963
 1220TIP3    H225076   5.711   1.324   2.869  0.9755  1.0649 -2.3893
 1221TIP3   OH225077   5.402   1.845  17.071  0.3863  0.0299 -0.3545
 1221TIP3    H125078   5.379   1.765  17.118  1.4740 -1.0540 -1.6027
 1221TIP3    H225079   5.470   1.819  17.010 -0.1897  1.6173 -1.7683
 1222TIP3   OH225080   3.966   3.051  16.993  0.2850  0.1406  0.2484
 1222TIP3    H125081   3.920   2.977  16.954 -0.1789  0.6932 -0.2751
 1222TIP3    H225082   3.897   3.110  17.023  0.6418  0.6853  0.0255
 1223TIP3   OH225083   2.599   6.582  13.276 -0.2615 -0.0765  0.1565
 1223TIP3    H125084   2.587   6.512  13.342 -2.4184 -0.6562 -0.7633
 1223TIP3    H225085   2.607   6.535  13.193  1.9435  0.6736 -0.1055
 1224TIP3   OH225086   3.430   3.728  11.993  0.0448 -0.4324  0.1038
 1224TIP3    H125087   3.399   3.637  11.993 -2.0232  0.2223  0.4191
 1224TIP3    H225088   3.354   3.779  12.022  0.4804  1.6257 -2.0637
 1225TIP3   OH225089   1.323   3.134   1.676 -0.0350  0.0547 -0.4840
 1225TIP3    H125090   1.256   3.122   1.609 -0.4457 -0.1932 -0.0361
 1225TIP3    H225091   1.397   3.173   1.629 -0.3064 -0.1344 -1.0819
 1226TIP3   OH225092   5.658   0.447   6.402  0.3087  0.2894 -0.3675
 1226TIP3    H125093   5.594   0.517   6.390 -0.1037 -0.0809 -0.3355
 1226TIP3    H225094   5.670   0.442   6.497  0.2105  0.2011 -0.3600
 1227TIP3   OH225095   4.031   0.189   3.891  0.8566 -0.1278  0.3589
 1227TIP3    H125096   4.109   0.166   3.941  1.7897  3.5183  0.8516
 1227TIP3    H225097   3.961   0.196   3.956  0.5858 -1.2152  0.2162
 1228TIP3   OH225098   6.279   5.555   4.196  0.1146  0.0126 -0.5430
 1228TIP3    H125099   6.242   5.614   4.131 -0.3277 -1.4745 -1.7182
 1228TIP3    H225100   6.373   5.555   4.178  0.3741  1.6701  0.6296
 1229TIP3   OH225101   2.788   5.045  15.644 -0.5266 -0.2927  0.4806
 1229TIP3    H125102   2.755   5.072  15.558 -0.2041  2.5260  1.1600
 1229TIP3    H225103   2.792   5.126  15.695 -0.6695 -1.8625  3.1713
 1230TIP3   OH225104   0.579   5.882   3.905  0.2469  0.0612 -0.0623
 1230TIP3    H125105   0.522   5.805   3.895 -0.6969  0.6017  0.9912
 1230TIP3    H225106   0.660   5.847   3.942 -0.1705 -0.4363  0.4039
 1231TIP3   OH225107   4.826   4.112  16.479  0.3491  0.0694 -0.0472
 1231TIP3    H125108   4.787   4.166  16.547  1.8894  2.8420 -1.1766
 1231TIP3    H225109   4.884   4.052  16.525 -2.2303 -1.5274  1.3406
 1232TIP3   OH225110   6.270   2.006  12.472 -0.2383  0.2289  0.2146
 1232TIP3    H125111   6.229   1.935  12.522 -0.5016 -0.6410 -1.1844
 1232TIP3    H225112   6.209   2.024  12.400 -0.3951  2.2189  0.7867
 1233TIP3   OH225113   3.408   2.741  11.419 -0.1006 -0.0863  0.4746
 1233TIP3    H125114   3.376   2.651  11.407 -3.1763  0.9333  0.2782
 1233TIP3    H225115   3.439   2.743  11.509 -1.4032 -0.9842  0.9721
 1234TIP3   OH225116   1.334   0.994  12.044  0.4638 -0.3967 -0.4137
 1234TIP3    H125117   1.252   1.019  12.000  0.1812  0.8377  0.7650
 1234TIP3    H225118   1.318   0.904  12.074 -0.5519 -0.1037 -0.0247
 1235TIP3   OH225119   1.714   5.897   2.720  0.0661 -0.0980  0.8011
 1235TIP3    H125120   1.693   5.971   2.664  0.7191 -0.9972 -0.7098
 1235TIP3    H225121   1.780   5.848   2.671 -0.6052 -1.8734  1.5912
 1236TIP3   OH225122   1.368   2.099   1.691  0.1759 -0.0268 -0.4108
 1236TIP3    H125123   1.457   2.108   1.657 -0.1087  0.3342 -1.0901
 1236TIP3    H225124   1.344   2.008   1.675  1.0505 -0.6253  1.3950
 1237TIP3   OH225125   6.069   3.293   6.556  0.4381  0.2971  0.4691
 1237TIP3    H125126   6.018   3.371   6.578  0.0426 -0.2225  1.4666
 1237TIP3    H225127   6.100   3.260   6.641 -1.7367 -2.2185  0.4141
 1238TIP3   OH225128   0.817   3.719  15.430  0.2610 -0.4103 -0.1581
 1238TIP3    H125129   0.752   3.731  15.499 -0.4149 -1.7951 -0.5050
 1238TIP3    H225130   0.877   3.793  15.439 -1.9552  1.5459 -0.5069
 1239TIP3   OH225131   3.683   5.908   1.749  0.1197  1.1492 -0.3501
 1239TIP3    H125132   3.749   5.954   1.697  1.2295  0.9851  0.8609
 1239TIP3    H225133   3.602   5.919   1.700  0.9411  1.8032 -1.6183
 1240TIP3   OH225134   4.139   5.699  14.277 -0.5710  0.4171  1.3082
 1240TIP3    H125135   4.158   5.758  14.204 -0.8858 -1.9754 -0.8477
 1240TIP3    H225136   4.043   5.692  14.277 -0.4817 -1.0515  0.6667
 1241TIP3   OH225137   4.650   6.240  15.666 -0.0379  0.0291  0.1685
 1241TIP3    H125138   4.671   6.229  15.759 -0.3391  0.5138  0.2989
 1241TIP3    H225139   4.734   6.233  15.621  0.3254  1.3411  0.6213
 1242TIP3   OH225140   4.945   6.069   3.261 -0.2232 -0.1380 -0.5281
 1242TIP3    H125141   4.896   5.990   3.240 -0.3592 -0.6512  1.5342
 1242TIP3    H225142   5.036   6.040   3.270  0.0746  0.3374 -1.7187
 1243TIP3   OH225143   5.307   5.795   3.134 -0.2559 -0.0593  0.4445
 1243TIP3    H125144   5.362   5.781   3.211 -0.5386  1.9473  1.0840
 1243TIP3    H225145   5.267   5.710   3.117  2.2933 -1.3564  0.4902
 1244TIP3   OH225146   2.705   1.658  14.787 -0.3067 -0.1378 -0.1950
 1244TIP3    H125147   2.659   1.719  14.844  2.7890  2.8503 -0.5474
 1244TIP3    H225148   2.756   1.604  14.847 -0.7821 -0.3540  0.0192
 1245TIP3   OH225149   1.438   2.166  16.093 -0.3203  0.1156  0.5511
 1245TIP3    H125150   1.488   2.186  16.015 -0.8309 -0.5128  0.0544
 1245TIP3    H225151   1.448   2.244  16.148  0.6735  0.2462  0.2030
 1246TIP3   OH225152   1.799   0.830  14.703 -0.1541  0.3736 -0.3483
 1246TIP3    H125153   1.819   0.913  14.746 -0.6448  0.6766 -0.7033
 1246TIP3    H225154   1.714   0.843  14.662 -0.4891 -0.4880  0.0497
 1247TIP3   OH225155   6.120   0.841  14.626 -0.4530 -0.3637  0.1126
 1247TIP3    H125156   6.099   0.801  14.710 -1.9129  0.4867  0.1843
 1247TIP3    H225157   6.069   0.791  14.562 -0.2963 -0.2400 -0.1109
 1248TIP3   OH225158   3.808   1.864   3.250  0.5190  0.1577 -0.1773
 1248TIP3    H125159   3.829   1.866   3.343  0.4588  0.1852 -0.1647
 1248TIP3    H225160   3.715   1.887   3.245 -0.0138 -1.8117 -0.0851
 1249TIP3   OH225161   6.150   4.751  16.002  0.3655 -0.0044  0.4561
 1249TIP3    H125162   6.061   4.750  16.036  0.2696  0.8161  0.2544
 1249TIP3    H225163   6.177   4.843  16.009  0.2847  0.2452 -1.8363
 1250TIP3   OH225164   3.625   4.701   4.185  0.1946  0.0465  0.3116
 1250TIP3    H125165   3.553   4.758   4.158  1.2190  1.0699 -0.3795
 1250TIP3    H225166   3.582   4.623   4.220 -1.2399  0.6347 -0.0517
 1251TIP3   OH225167   6.267   4.054  15.379  0.0520  0.0035  0.0413
 1251TIP3    H125168   6.235   3.975  15.334 -1.7524  1.5839 -1.6520
 1251TIP3    H225169   6.346   4.079  15.330 -0.6005  0.4273 -0.8129
 1252TIP3   OH225170   4.939   6.540   2.526 -0.0388 -0.2406 -0.1790
 1252TIP3    H125171   4.913   6.632   2.527 -0.2394 -0.2871 -0.7133
 1252TIP3    H225172   4.946   6.515   2.618 -1.6879 -0.1668 -0.0062
 1253TIP3   OH225173   3.376   4.920   3.304 -0.0682  0.1866 -0.1128
 1253TIP3    H125174   3.323   4.880   3.236 -1.4767  0.7009  0.6447
 1253TIP3    H225175   3.325   4.910   3.385  0.1768  2.1678  0.3501
 1254TIP3   OH225176   6.119   1.645  12.452  0.6786 -0.1589  0.0322
 1254TIP3    H125177   6.077   1.633  12.367  1.6728 -1.2927 -0.3201
 1254TIP3    H225178   6.129   1.557  12.487  1.2521  0.2166  0.8588
 1255TIP3   OH225179   2.699   0.230  14.347 -0.2926 -0.0526 -0.2070
 1255TIP3    H125180   2.764   0.209  14.280 -0.1731 -0.7427  0.1141
 1255TIP3    H225181   2.630   0.165  14.334  0.0920 -0.6942  0.8269
 1256TIP3   OH225182   5.788   0.022  13.778  0.0806 -0.2685  0.2281
 1256TIP3    H125183   5.749  -0.040  13.716 -1.1945  0.2722  0.4556
 1256TIP3    H225184   5.721   0.034  13.846  1.4997 -0.9614  1.8130
 1257TIP3   OH225185   5.589   5.316   5.906  0.3167 -0.5099  0.6989
 1257TIP3    H125186   5.587   5.270   5.822 -1.3806  0.3013  0.2603
 1257TIP3    H225187   5.622   5.251   5.968 -0.2747 -1.7328 -0.2297
 1258TIP3   OH225188   2.264   5.951   4.997  0.2172  0.9233  0.4674
 1258TIP3    H125189   2.179   5.913   5.021  0.7618  0.1954  1.3412
 1258TIP3    H225190   2.262   5.956   4.902  0.5047 -2.3861  0.1726
 1259TIP3   OH225191   5.920   1.741   1.543 -0.2618 -0.2789 -0.0091
 1259TIP3    H125192   6.004   1.729   1.497  0.0457  1.3399  0.0756
 1259TIP3    H225193   5.854   1.724   1.476  0.1753  0.6361 -0.7051
 1260TIP3   OH225194   3.605   3.937   3.195 -0.5181  0.3362  0.0183
 1260TIP3    H125195   3.512   3.914   3.193 -0.2357 -0.8308 -0.2650
 1260TIP3    H225196   3.650   3.857   3.168  0.6394  0.5118  1.3347
 1261TIP3   OH225197   5.833   1.921  14.794  0.4134 -0.2802 -0.1491
 1261TIP3    H125198   5.774   1.924  14.869 -0.3139 -1.6610 -0.6358
 1261TIP3    H225199   5.804   1.846  14.743  0.5311  0.9300 -2.1218
 1262TIP3   OH225200   2.565   0.952   2.539  0.8101  0.2978 -0.4484
 1262TIP3    H125201   2.569   1.007   2.618  0.5321 -1.4300  0.8285
 1262TIP3    H225202   2.633   0.886   2.553  0.1950 -0.5250 -1.2842
 1263TIP3   OH225203   3.276   4.629   1.638 -0.3072 -0.2782  0.3945
 1263TIP3    H125204   3.298   4.596   1.725 -0.5246 -0.9404  0.2079
 1263TIP3    H225205   3.229   4.710   1.655  1.2780  0.5909  0.8276
 1264TIP3   OH225206   2.706   6.701   2.050 -0.0909 -0.0902 -0.2275
 1264TIP3    H125207   2.642   6.700   1.978 -1.4077  0.6399  0.8783
 1264TIP3    H225208   2.729   6.794   2.059  0.6021 -0.2651 -0.1520
 1265TIP3   OH225209   4.044   1.443  15.903 -0.1098 -0.3081 -0.0805
 1265TIP3    H125210   4.053   1.392  15.983 -0.6556 -2.5486 -1.3663
 1265TIP3    H225211   4.102   1.518  15.915  2.2596 -2.2079  1.1358
 1266TIP3   OH225212   1.739   0.363   2.131 -0.4853 -0.1200 -0.4145
 1266TIP3    H125213   1.745   0.385   2.224  1.4786  2.3905 -1.0208
 1266TIP3    H225214   1.721   0.269   2.130  0.4660 -0.4408  2.5089
 1267TIP3   OH225215   2.572   2.854  11.237 -0.4516  0.2980  0.3989
 1267TIP3    H125216   2.566   2.833  11.331  1.6284 -0.2995  0.4592
 1267TIP3    H225217   2.540   2.944  11.230 -2.6509 -0.3553  1.3150
 1268TIP3   OH225218   4.302   4.035  11.638 -0.7917  0.3713 -0.1069
 1268TIP3    H125219   4.384   3.986  11.629 -0.9867  0.0063  0.0858
 1268TIP3    H225220   4.235   3.978  11.599 -0.6372  1.6191 -2.3266
 1269TIP3   OH225221   3.016   2.440  13.126 -0.0105  0.2298  0.1630
 1269TIP3    H125222   2.996   2.371  13.189 -0.9143 -1.5894 -1.9796
 1269TIP3    H225223   3.104   2.469  13.150 -0.5711  0.0859  2.6201
 1270TIP3   OH225224   3.649   1.222  15.172 -0.0383  0.2670 -0.5000
 1270TIP3    H125225   3.699   1.260  15.244 -1.4560 -0.6512  1.0450
 1270TIP3    H225226   3.558   1.241  15.193 -0.5066 -0.3689 -1.8479
 1271TIP3   OH225227   1.505   1.525   3.903  0.4264 -0.1387 -0.4737
 1271TIP3    H125228   1.591   1.524   3.861 -0.1342 -0.0718 -1.6633
 1271TIP3    H225229   1.449   1.474   3.844 -0.5976  0.7109 -0.2607
 1272TIP3   OH225230   3.487   0.181  15.835 -0.0951  0.0315  0.3292
 1272TIP3    H125231   3.551   0.247  15.863 -1.3860  1.4619  0.0469
 1272TIP3    H225232   3.514   0.158  15.746 -1.2754  2.4459 -0.7386
 1273TIP3   OH225233   6.296   0.749   0.095 -0.1943 -0.4963 -0.5605
 1273TIP3    H125234   6.361   0.679   0.087 -0.0256 -0.4685  0.4532
 1273TIP3    H225235   6.213   0.708   0.070  0.2181 -0.4868 -2.0411
 1274TIP3   OH225236   4.576   3.016   0.632  0.2653 -0.3133 -0.1516
 1274TIP3    H125237   4.669   3.004   0.652  0.5231 -0.0138 -1.1282
 1274TIP3    H225238   4.568   2.995   0.539 -0.5481  0.1522 -0.1969
 1275TIP3   OH225239   6.682   2.223   1.734  0.6399  0.1613 -0.1828
 1275TIP3    H125240   6.668   2.298   1.792  0.0119  0.4083 -0.6449
 1275TIP3    H225241   6.722   2.261   1.656 -1.1359  0.2834 -1.0777
 1276TIP3   OH225242   5.889   6.141   4.170 -0.5442 -0.0342  0.5128
 1276TIP3    H125243   5.857   6.151   4.081  0.5649 -2.2016 -0.1980
 1276TIP3    H225244   5.984   6.150   4.163 -0.4710  0.1448  1.5574
 1277TIP3   OH225245   3.516   5.343  15.017 -0.1344  0.1023  0.1963
 1277TIP3    H125246   3.500   5.295  14.936 -0.6798  1.0683 -0.2943
 1277TIP3    H225247   3.430   5.375  15.044  0.2334  0.9918  0.3652
 1278TIP3   OH225248   2.111   1.354  11.610  0.3595 -0.2550  0.2152
 1278TIP3    H125249   2.180   1.294  11.639  0.5391 -0.5405 -0.7677
 1278TIP3    H225250   2.039   1.297  11.584  0.7864 -0.1207 -1.3965
 1279TIP3   OH225251   6.113   4.673   4.669 -0.5917  0.2159 -0.2363
 1279TIP3    H125252   6.095   4.730   4.744  0.1541 -0.2608  0.3111
 1279TIP3    H225253   6.188   4.620   4.696  0.6484  1.0548 -1.8806
 1280TIP3   OH225254   0.181   6.084   5.041 -0.8562  0.0224 -0.7563
 1280TIP3    H125255   0.223   6.033   4.972 -0.0158  1.2297 -1.1949
 1280TIP3    H225256   0.248   6.090   5.110  0.2358  2.7974 -1.8673
 1281TIP3   OH225257   6.379   2.244  12.166 -0.2149  0.7103 -0.3742
 1281TIP3    H125258   6.308   2.195  12.206 -0.7881  1.7812 -0.0675
 1281TIP3    H225259   6.374   2.331  12.204  0.5643  1.1292 -1.1800
 1282TIP3   OH225260   2.629   4.417  14.468  0.6817 -0.1800  0.6019
 1282TIP3    H125261   2.605   4.420  14.560  1.1230 -1.0039  0.7488
 1282TIP3    H225262   2.725   4.426  14.468  0.9234 -2.2797  0.3814
 1283TIP3   OH225263   2.257   1.766  16.743  0.3348  0.2975 -0.2240
 1283TIP3    H125264   2.186   1.816  16.782  1.4771  2.2055 -0.4467
 1283TIP3    H225265   2.337   1.804  16.781  1.2766 -2.0721  0.3855
 1284TIP3   OH225266   1.989   3.005  13.717  0.1824  0.2410 -0.5266
 1284TIP3    H125267   2.018   2.982  13.629 -0.6113  0.7582 -0.9347
 1284TIP3    H225268   1.901   3.042  13.705 -1.4020 -2.7684  0.8228
 1285TIP3   OH225269   2.948   3.497   3.720  0.1033  0.2990  0.1682
 1285TIP3    H125270   3.013   3.561   3.690  0.9113 -0.2066  0.7806
 1285TIP3    H225271   2.986   3.461   3.801 -1.0860  0.1999  0.6965
 1286TIP3   OH225272   2.296   0.201  11.977  0.1826  0.2379  0.4940
 1286TIP3    H125273   2.314   0.295  11.981 -0.7825  0.5960 -2.0653
 1286TIP3    H225274   2.202   0.195  11.960  0.6872 -1.0181 -2.4767
 1287TIP3   OH225275   1.474   0.354  14.824 -0.4883 -0.2265 -0.3750
 1287TIP3    H125276   1.558   0.374  14.866  0.1283 -2.4880 -0.4192
 1287TIP3    H225277   1.489   0.372  14.731 -0.1540 -0.3319 -0.3440
 1288TIP3   OH225278   0.108   3.098  17.084  0.1040  0.0606 -0.6644
 1288TIP3    H125279   0.148   3.012  17.070  0.8268  0.1624  0.6127
 1288TIP3    H225280   0.158   3.136  17.156 -0.8228  1.1653 -0.5775
 1289TIP3   OH225281   3.520   5.305   1.273  0.1778  0.2671 -0.5007
 1289TIP3    H125282   3.526   5.262   1.358  0.8244  0.4058 -0.4697
 1289TIP3    H225283   3.503   5.234   1.211  0.4844  0.0651 -0.3541
 1290TIP3   OH225284   2.991   3.929  15.245 -0.3022  0.3229  0.3055
 1290TIP3    H125285   2.981   3.990  15.172  0.8645  0.0141 -0.1354
 1290TIP3    H225286   2.901   3.913  15.276 -0.7491  0.9803 -0.6128
 1291TIP3   OH225287   2.268   3.396   3.806 -0.4063 -0.4234 -0.0721
 1291TIP3    H125288   2.218   3.457   3.861 -0.2097  0.4287 -0.8057
 1291TIP3    H225289   2.206   3.326   3.786 -0.2821 -1.1044  1.7641
 1292TIP3   OH225290   2.186   5.338  17.186  0.4286 -0.4234  0.2948
 1292TIP3    H125291   2.163   5.246  17.197  0.1421 -0.2537  1.2344
 1292TIP3    H225292   2.264   5.336  17.130  0.0949 -1.1994 -0.1573
 1293TIP3   OH225293   1.298   6.070  14.132  0.2155  0.4354 -0.2725
 1293TIP3    H125294   1.311   6.155  14.172  0.2386  0.0173  0.6261
 1293TIP3    H225295   1.245   6.088  14.054 -0.7637  1.1436  0.5203
 1294TIP3   OH225296   1.416   3.356  12.569 -0.5283 -0.4903  0.2692
 1294TIP3    H125297   1.325   3.326  12.563 -0.5348 -0.4240  0.0162
 1294TIP3    H225298   1.467   3.287  12.528 -0.7169  0.6563 -2.0529
 1295TIP3   OH225299   4.264   3.137  14.008 -0.1330  0.0792  0.2842
 1295TIP3    H125300   4.277   3.208  14.071 -2.1406 -0.1128  1.0188
 1295TIP3    H225301   4.264   3.179  13.923  0.4706  0.6904  0.5852
 1296TIP3   OH225302   1.195   4.244  15.707  0.0966 -0.0010 -0.1979
 1296TIP3    H125303   1.137   4.211  15.776  0.1538  3.3660  1.7088
 1296TIP3    H225304   1.138   4.250  15.630 -0.2308 -2.9288 -0.2923
 1297TIP3   OH225305   4.406   2.308  11.648 -0.5327  0.1818  0.8119
 1297TIP3    H125306   4.498   2.307  11.673  0.4286 -1.8373 -2.1740
 1297TIP3    H225307   4.386   2.401  11.633  1.3018  0.5988  0.6939
 1298TIP3   OH225308   1.352   6.535  16.460 -0.4043  0.5181 -0.4477
 1298TIP3    H125309   1.280   6.513  16.401  0.6770 -0.0441 -1.6008
 1298TIP3    H225310   1.413   6.585  16.405  1.2671 -1.1656 -0.2306
 1299TIP3   OH225311   3.143   2.021  10.922 -0.8049 -0.3480 -0.1842
 1299TIP3    H125312   3.161   1.942  10.872 -0.2347  0.7936 -1.8813
 1299TIP3    H225313   3.065   2.058  10.881 -0.0085  0.8943 -0.6392
 1300TIP3   OH225314   6.317   1.806   1.206  0.0212 -0.1581 -0.2779
 1300TIP3    H125315   6.386   1.748   1.240 -0.0441 -0.2447 -0.2935
 1300TIP3    H225316   6.365   1.880   1.169  0.2007 -1.0549 -1.8969
 1301TIP3   OH225317   4.405   6.638   5.053 -0.1351  0.0942 -0.6109
 1301TIP3    H125318   4.395   6.545   5.070 -0.4006  0.2461  0.0859
 1301TIP3    H225319   4.448   6.642   4.968 -0.6493 -0.6562 -0.9207
 1302TIP3   OH225320   1.691   4.374  12.876  0.6318  0.5645 -0.3106
 1302TIP3    H125321   1.778   4.365  12.914  0.5319 -2.0189 -0.5230
 1302TIP3    H225322   1.634   4.391  12.951  0.8516 -1.5381  0.4099
 1303TIP3   OH225323   0.676   4.485   6.700  0.3330  0.1070  0.2587
 1303TIP3    H125324   0.627   4.407   6.724  1.0126 -0.7321 -0.9326
 1303TIP3    H225325   0.613   4.541   6.654 -0.0817  0.1201  0.8425
 1304TIP3   OH225326   0.058   4.068  14.790  0.1610 -0.3666 -0.0078
 1304TIP3    H125327   0.047   3.976  14.814  0.2015 -0.7745 -1.4398
 1304TIP3    H225328   0.023   4.074  14.701  1.6680  0.6254 -0.5917
 1305TIP3   OH225329   2.260   4.670  13.480 -0.2881  0.3284 -0.6813
 1305TIP3    H125330   2.237   4.581  13.451 -0.7241 -0.0706  0.7693
 1305TIP3    H225331   2.184   4.723  13.455 -0.3409  0.1517 -0.9041
 1306TIP3   OH225332   0.025   1.193  16.170 -0.3912 -0.4360  0.3760
 1306TIP3    H125333  -0.013   1.112  16.135  0.4852 -1.0888  0.8930
 1306TIP3    H225334   0.046   1.172  16.261  1.2802 -0.1394  0.0891
 1307TIP3   OH225335   1.489   1.762   0.109  0.6518 -0.1949 -0.1466
 1307TIP3    H125336   1.422   1.694   0.114 -0.3953  0.8586  0.6178
 1307TIP3    H225337   1.469   1.809   0.028 -2.0877  2.5986  1.9418
 1308TIP3   OH225338   5.044   3.922  16.060  0.0331 -0.3353  0.5919
 1308TIP3    H125339   5.080   3.916  15.971  0.1900 -2.9516  0.7642
 1308TIP3    H225340   4.950   3.936  16.047  0.2622  0.8581  0.0742
 1309TIP3   OH225341   1.222   5.240  12.686  0.0979  0.1637  0.0154
 1309TIP3    H125342   1.252   5.331  12.687  1.9384 -0.3999  0.2999
 1309TIP3    H225343   1.237   5.209  12.776  2.1622 -1.1772 -0.7006
 1310TIP3   OH225344   1.782   2.729   1.525 -0.0860  0.0014 -0.2301
 1310TIP3    H125345   1.726   2.679   1.466 -0.1667 -0.1756 -0.0050
 1310TIP3    H225346   1.762   2.695   1.612  1.8662 -1.5931 -0.3042
 1311TIP3   OH225347   6.695   1.422  12.788 -0.5941  0.5978 -0.4421
 1311TIP3    H125348   6.731   1.507  12.813  1.1488 -0.2302 -0.0017
 1311TIP3    H225349   6.716   1.365  12.861 -0.2597 -0.5986 -1.4380
 1312TIP3   OH225350   6.219   4.078   4.934  0.2961  0.0992 -0.0684
 1312TIP3    H125351   6.309   4.061   4.960 -0.0516 -2.6217 -0.2771
 1312TIP3    H225352   6.225   4.104   4.842  0.8825 -0.1474 -0.1053
 1313TIP3   OH225353   5.509   1.797   3.735 -0.0198 -0.2956  0.6020
 1313TIP3    H125354   5.417   1.795   3.762 -0.8860 -0.3161 -2.0580
 1313TIP3    H225355   5.554   1.740   3.798 -2.0379 -1.2225  1.2859
 1314TIP3   OH225356   2.275   5.000  13.132 -0.7415 -0.0446  0.5709
 1314TIP3    H125357   2.352   4.998  13.074  0.8740  0.5550  2.5775
 1314TIP3    H225358   2.201   5.008  13.073  0.8797  1.5745 -1.3914
 1315TIP3   OH225359   1.212   0.487  10.832  0.0924  0.4621  0.0067
 1315TIP3    H125360   1.143   0.553  10.838  0.6263  1.2517 -1.7797
 1315TIP3    H225361   1.250   0.501  10.745 -0.0921 -2.5311 -0.6549
 1316TIP3   OH225362   6.151   6.520   3.006  0.1906 -0.3323  0.2180
 1316TIP3    H125363   6.089   6.463   2.959  0.5585  0.2797 -1.0472
 1316TIP3    H225364   6.167   6.593   2.946  0.0217  0.9274  1.6659
 1317TIP3   OH225365   1.234   3.361   0.837  0.6680  0.2214 -0.7791
 1317TIP3    H125366   1.267   3.442   0.798 -1.2922  2.0238  1.0629
 1317TIP3    H225367   1.247   3.372   0.931 -2.2148 -0.2759 -0.2313
 1318TIP3   OH225368   0.081   1.965  12.903  0.3515 -0.0213  0.3948
 1318TIP3    H125369   0.051   1.927  12.820  0.1440  0.5356  0.2077
 1318TIP3    H225370   0.126   2.045  12.878 -1.3017  1.1263  0.9217
 1319TIP3   OH225371   3.341   6.094  11.727 -0.0383  0.4952  0.0983
 1319TIP3    H125372   3.403   6.079  11.656  0.2040 -2.2006  0.7845
 1319TIP3    H225373   3.396   6.107  11.805 -0.3255  1.4426  0.1555
 1320TIP3   OH225374   0.877   0.706  13.066  0.2752  0.3776 -0.4140
 1320TIP3    H125375   0.801   0.750  13.028  0.1780  0.2517 -0.3662
 1320TIP3    H225376   0.859   0.703  13.160 -1.0064 -2.1519 -0.6384
 1321TIP3   OH225377   0.890   1.700  14.206 -0.3142 -0.1630 -0.3472
 1321TIP3    H125378   0.878   1.685  14.112  1.3878  0.9110 -0.7855
 1321TIP3    H225379   0.826   1.642  14.248 -0.0251 -1.8703 -2.1067
 1322TIP3   OH225380   5.996   3.514  14.952 -0.2873  0.3920 -0.1449
 1322TIP3    H125381   5.999   3.418  14.957  3.6336  0.3735  0.3049
 1322TIP3    H225382   6.028   3.534  14.864  1.3166  1.2230  0.5756
 1323TIP3   OH225383   1.619   1.472  13.146 -0.2819  0.1145  0.0464
 1323TIP3    H125384   1.638   1.378  13.158 -1.1000 -0.1747 -0.7930
 1323TIP3    H225385   1.657   1.514  13.223  0.6022 -0.8406  0.1576
 1324TIP3   OH225386   2.055   6.327   0.313  0.4997 -0.0733  0.1501
 1324TIP3    H125387   2.128   6.307   0.254  1.5985 -0.7078  1.6653
 1324TIP3    H225388   2.094   6.325   0.401 -1.0748  0.8893  0.9027
 1325TIP3   OH225389   0.606   1.174  15.727 -0.4482 -0.7695  0.1352
 1325TIP3    H125390   0.600   1.269  15.728 -0.2300 -0.7518 -0.0474
 1325TIP3    H225391   0.571   1.148  15.642 -1.7963 -0.9552  0.7213
 1326TIP3   OH225392   0.772   0.588   2.189  0.3063 -0.1792 -0.1140
 1326TIP3    H125393   0.822   0.506   2.193 -2.0681 -1.6703  0.7042
 1326TIP3    H225394   0.799   0.636   2.267 -0.1602 -1.3670  0.8086
 1327TIP3   OH225395   4.368   5.121   3.150 -0.4749 -0.0431 -0.0824
 1327TIP3    H125396   4.366   5.036   3.194  0.2399  0.5748  1.1896
 1327TIP3    H225397   4.321   5.180   3.210  0.3304  0.7759 -0.2394
 1328TIP3   OH225398   4.051   0.286   2.667 -0.5066  0.0927  0.3837
 1328TIP3    H125399   4.029   0.330   2.585 -2.6149 -1.7707 -0.1201
 1328TIP3    H225400   4.018   0.197   2.657  0.3400 -0.5743  2.7851
 1329TIP3   OH225401   2.901   4.588  10.888 -0.2928  0.6259  0.1254
 1329TIP3    H125402   2.963   4.650  10.848  0.1078  0.2461  0.1568
 1329TIP3    H225403   2.845   4.561  10.815 -0.0035  0.4666 -0.0409
 1330TIP3   OH225404   4.060   5.553  13.408  0.1468 -0.0255 -0.0606
 1330TIP3    H125405   4.080   5.515  13.493 -2.6148 -1.8690 -0.0784
 1330TIP3    H225406   4.015   5.635  13.428  1.4769  0.6603  0.1602
 1331TIP3   OH225407   5.684   0.546   3.578 -0.7235  0.6427 -0.2990
 1331TIP3    H125408   5.676   0.460   3.620 -1.2406 -0.3534 -2.3058
 1331TIP3    H225409   5.609   0.596   3.612 -1.6639 -0.4407 -0.7160
 1332TIP3   OH225410   4.281   4.175   5.445  0.0032 -0.1814 -0.2632
 1332TIP3    H125411   4.278   4.252   5.502 -0.0965 -0.9839  0.8614
 1332TIP3    H225412   4.202   4.182   5.391  0.7393  1.2333 -1.1946
 1333TIP3   OH225413   5.456   3.034   3.402  0.6704 -0.1995  0.4066
 1333TIP3    H125414   5.438   3.059   3.493 -0.6286 -1.9164  0.6732
 1333TIP3    H225415   5.426   2.943   3.396  1.5225 -0.3894 -1.5237
 1334TIP3   OH225416   5.405   5.566   0.585  0.2508 -0.4460 -0.3541
 1334TIP3    H125417   5.451   5.491   0.623 -0.5095 -0.9659 -0.4151
 1334TIP3    H225418   5.332   5.582   0.645  2.3589  2.5477  1.6306
 1335TIP3   OH225419   3.495   5.235   2.619 -0.2789  0.6371  0.3564
 1335TIP3    H125420   3.441   5.222   2.541  0.1791  1.0988 -0.0461
 1335TIP3    H225421   3.513   5.147   2.652 -0.7448  0.4540  0.1308
 1336TIP3   OH225422   6.394   5.274  14.705  0.2394 -0.4426 -0.1392
 1336TIP3    H125423   6.320   5.318  14.664 -0.1913 -2.1691 -1.3215
 1336TIP3    H225424   6.453   5.253  14.633  0.4148 -1.8032  0.3673
 1337TIP3   OH225425   4.250   2.323  15.897 -0.3885  0.1766  0.3343
 1337TIP3    H125426   4.293   2.252  15.849 -0.4410  0.0373  0.4912
 1337TIP3    H225427   4.167   2.337  15.852  0.2350  1.1145 -0.5771
 1338TIP3   OH225428   3.856   5.989  12.988  0.5061  0.5518  0.5144
 1338TIP3    H125429   3.784   6.049  13.004  1.2148  1.2380  1.2233
 1338TIP3    H225430   3.853   5.927  13.060  0.2750  0.2221  0.2257
 1339TIP3   OH225431   5.204   2.962   5.381 -0.1434  0.2453 -0.0758
 1339TIP3    H125432   5.293   2.927   5.381  0.0220  0.6330  0.8894
 1339TIP3    H225433   5.216   3.057   5.381 -0.5610  0.2989 -0.3817
 1340TIP3   OH225434   2.000   5.557   1.088  0.1432 -0.3844  0.4953
 1340TIP3    H125435   1.959   5.518   1.011  0.5975  0.7282 -0.3305
 1340TIP3    H225436   2.067   5.493   1.114  0.1925 -0.6358 -0.2170
 1341TIP3   OH225437   6.239   5.258   6.500  0.4884 -0.3114 -0.2761
 1341TIP3    H125438   6.309   5.283   6.439  0.0524 -0.0718 -0.6796
 1341TIP3    H225439   6.281   5.195   6.559  1.2373  0.3643 -0.0681
 1342TIP3   OH225440   1.946   4.405  14.336  0.5254  0.3083  0.0605
 1342TIP3    H125441   1.893   4.484  14.344  0.8761  0.4297  1.6876
 1342TIP3    H225442   1.884   4.337  14.311  0.2086  1.0684 -1.2787
 1343TIP3   OH225443   1.220   3.077  14.464  0.1345 -0.1352 -0.2143
 1343TIP3    H125444   1.313   3.054  14.453  0.1753  0.2963 -0.8253
 1343TIP3    H225445   1.173   2.995  14.449  0.3799 -0.2223 -0.5148
 1344TIP3   OH225446   6.034   1.768  11.296 -0.0409  0.1894  0.0656
 1344TIP3    H125447   5.980   1.754  11.373  0.2416  1.0482  0.4284
 1344TIP3    H225448   6.118   1.728  11.317 -1.0547 -2.9995 -1.2672
 1345TIP3   OH225449   0.614   6.701  14.937 -0.2513 -0.1785 -0.7758
 1345TIP3    H125450   0.630   6.687  14.843 -1.7552  1.0949 -1.2641
 1345TIP3    H225451   0.630   6.794  14.950  0.2819 -0.4099  0.3390
 1346TIP3   OH225452   2.839   5.513   3.461 -0.1455  0.1263 -0.5077
 1346TIP3    H125453   2.915   5.571   3.476  0.6971 -0.7203 -1.3811
 1346TIP3    H225454   2.764   5.572   3.467  0.6604  1.2587 -1.0012
 1347TIP3   OH225455   0.157   2.750   5.230  0.7771 -0.8955  0.1640
 1347TIP3    H125456   0.102   2.674   5.209 -0.4524 -0.3248  1.1333
 1347TIP3    H225457   0.112   2.824   5.189  0.6157 -0.3764  1.2341
 1348TIP3   OH225458   2.774   5.497  13.360  0.3607 -0.1278  0.3492
 1348TIP3    H125459   2.802   5.474  13.271 -0.8761 -0.8563  0.1403
 1348TIP3    H225460   2.683   5.524  13.351  0.0184 -0.8465  1.4968
 1349TIP3   OH225461   1.662   3.750  15.817 -0.1122 -0.1016  0.2585
 1349TIP3    H125462   1.651   3.789  15.904  0.0069  0.5143  0.0060
 1349TIP3    H225463   1.580   3.704  15.801 -0.5797  0.7203  0.2361
 1350TIP3   OH225464   4.466   2.934  13.991  0.4786  0.4916 -0.5943
 1350TIP3    H125465   4.514   2.998  13.938 -0.0571 -1.0172 -3.0917
 1350TIP3    H225466   4.382   2.977  14.010  0.6476  1.0428 -1.0763
 1351TIP3   OH225467   2.376   3.060   3.065  0.7859  0.1566 -0.1756
 1351TIP3    H125468   2.333   3.034   3.147 -0.2063  0.6731 -0.5080
 1351TIP3    H225469   2.454   3.107   3.092  0.9155 -0.4215  0.4652
 1352TIP3   OH225470   4.043   0.802  11.007  0.5311  0.6781  0.6225
 1352TIP3    H125471   4.012   0.880  10.961 -0.0277 -0.3705 -0.8852
 1352TIP3    H225472   4.134   0.793  10.979  0.1885  0.0347 -0.3524
 1353TIP3   OH225473   0.012   2.900   3.083  0.2687 -0.0212  0.0105
 1353TIP3    H125474  -0.042   2.828   3.051  1.4373 -0.7791 -0.3141
 1353TIP3    H225475   0.009   2.891   3.178 -0.2544  0.0113  0.0006
 1354TIP3   OH225476   3.069   3.113  16.698 -0.2427  0.3283  0.0921
 1354TIP3    H125477   3.112   3.082  16.619  0.8720 -0.3277  0.9314
 1354TIP3    H225478   3.090   3.047  16.764 -0.7726  1.0949  1.0493
 1355TIP3   OH225479   3.491   1.057  14.799 -0.1054  0.0925 -0.0337
 1355TIP3    H125480   3.473   1.150  14.792  2.3603  0.5854 -0.8699
 1355TIP3    H225481   3.476   1.035  14.891  2.9590  2.2420  1.1164
 1356TIP3   OH225482   0.703   4.156   4.964  0.2891  0.0669  0.6108
 1356TIP3    H125483   0.668   4.073   4.930 -0.3398  1.2228 -1.8054
 1356TIP3    H225484   0.625   4.209   4.982  0.6736  0.0490  2.5119
 1357TIP3   OH225485   1.237   4.194  17.207  0.1705  0.5774  0.2083
 1357TIP3    H125486   1.325   4.229  17.224  0.1405  1.5878 -1.5020
 1357TIP3    H225487   1.192   4.265  17.161 -0.8406 -0.7048 -0.8249
 1358TIP3   OH225488   4.507   1.362   0.460  0.3651 -0.5763  0.0413
 1358TIP3    H125489   4.435   1.365   0.523 -0.3572  0.0783 -0.7898
 1358TIP3    H225490   4.575   1.416   0.500  0.2554 -0.8760  0.6532
 1359TIP3   OH225491   6.304   5.850   0.419 -0.3189  0.4401  0.2866
 1359TIP3    H125492   6.245   5.886   0.353 -1.4820 -0.5382  0.7531
 1359TIP3    H225493   6.277   5.759   0.429  1.6642 -0.2172  0.1284
 1360TIP3   OH225494   2.432   2.031   5.404  0.5477  0.5682  0.1956
 1360TIP3    H125495   2.417   2.019   5.498  1.8065  0.8917  0.4544
 1360TIP3    H225496   2.527   2.037   5.395  0.4535  0.4381 -1.1182
 1361TIP3   OH225497   1.090   4.670   2.424  0.3827  0.2340  0.3596
 1361TIP3    H125498   1.040   4.704   2.351  1.3039  1.3575  0.2143
 1361TIP3    H225499   1.121   4.584   2.395  3.0500  1.7415 -1.7656
 1362TIP3   OH225500   4.063   2.536  11.185  0.3029  0.1303 -0.4432
 1362TIP3    H125501   4.126   2.489  11.131  0.0529 -2.1257  1.0640
 1362TIP3    H225502   4.020   2.597  11.125  2.2823  0.1046 -1.9996
 1363TIP3   OH225503   3.367   4.142   2.032  0.3964  0.3596  0.2411
 1363TIP3    H125504   3.352   4.097   1.949  0.8466 -1.0805  0.9012
 1363TIP3    H225505   3.463   4.144   2.041  0.3473 -1.0553  1.4910
 1364TIP3   OH225506   6.139   4.937   3.551 -0.0845  0.3906 -0.2134
 1364TIP3    H125507   6.220   4.986   3.537 -0.5845  1.0942 -0.6954
 1364TIP3    H225508   6.143   4.910   3.643  0.7548  0.3005 -0.2652
 1365TIP3   OH225509   6.064   4.030   2.197 -0.0286 -1.0635  0.5789
 1365TIP3    H125510   6.052   4.122   2.173  1.3041 -1.2403 -0.9911
 1365TIP3    H225511   5.985   3.986   2.166  0.4822 -0.8353 -1.1520
 1366TIP3   OH225512   6.527   1.389  16.823 -0.3333  0.0601 -0.7977
 1366TIP3    H125513   6.597   1.452  16.811  1.0543 -1.1555  0.5469
 1366TIP3    H225514   6.499   1.401  16.914 -1.0768 -0.2588 -0.9762
 1367TIP3   OH225515   3.541   5.828   3.071  0.2509  0.8402 -0.0049
 1367TIP3    H125516   3.511   5.834   2.980 -0.6796 -1.3913  0.0842
 1367TIP3    H225517   3.462   5.808   3.121  0.9992  0.4926  1.0775
 1368TIP3   OH225518   1.458   4.903  16.657  0.0821  0.2108  0.3157
 1368TIP3    H125519   1.491   4.865  16.576 -0.5634  1.4131 -0.5589
 1368TIP3    H225520   1.383   4.849  16.681 -0.7026  0.7634 -0.7977
 1369TIP3   OH225521   3.576   2.372  11.810 -0.7355  0.1294 -0.2268
 1369TIP3    H125522   3.659   2.324  11.821 -0.5529 -0.0546 -2.0090
 1369TIP3    H225523   3.536   2.371  11.897  0.8030 -0.3902  0.5211
 1370TIP3   OH225524   1.780   2.637   1.143 -0.2680 -0.3227  0.2748
 1370TIP3    H125525   1.823   2.689   1.210 -1.6769 -0.4276  1.3152
 1370TIP3    H225526   1.688   2.661   1.149 -0.4501 -0.3949 -1.5951
 1371TIP3   OH225527   5.696   5.472  14.805 -0.0164  0.7661 -0.5589
 1371TIP3    H125528   5.723   5.446  14.893  0.4020 -0.3580 -1.0055
 1371TIP3    H225529   5.611   5.514  14.818  1.6282  4.0615  0.8599
 1372TIP3   OH225530   0.009   3.472   0.491  0.3379 -0.0980 -0.0172
 1372TIP3    H125531   0.000   3.379   0.513  0.1862 -0.1491 -0.2889
 1372TIP3    H225532  -0.045   3.483   0.413  0.0442  0.3002  0.2367
 1373TIP3   OH225533   2.767   4.136  13.204 -0.2233 -0.3966 -0.4370
 1373TIP3    H125534   2.730   4.163  13.120 -0.7876  2.9072  0.7282
 1373TIP3    H225535   2.691   4.127  13.262  0.2400 -1.7215  0.0099
 1374TIP3   OH225536   1.113   5.581  15.292 -0.2239 -0.3587  0.1235
 1374TIP3    H125537   1.106   5.491  15.260  0.7375 -0.3788 -0.0650
 1374TIP3    H225538   1.207   5.594  15.307 -0.4213  0.3962  0.7875
 1375TIP3   OH225539   6.312   2.874  12.812  0.2137  0.1338  0.5188
 1375TIP3    H125540   6.300   2.923  12.730 -2.7676 -1.3978 -0.0992
 1375TIP3    H225541   6.374   2.927  12.862 -2.0228  4.1053 -0.4392
 1376TIP3   OH225542   6.152   6.518  12.278 -0.3208 -0.3851  0.4627
 1376TIP3    H125543   6.214   6.560  12.219 -0.2129  0.0001  0.8418
 1376TIP3    H225544   6.106   6.454  12.224  1.0966 -1.3885  0.4116
 1377TIP3   OH225545   1.335   5.668  15.721 -0.7713 -0.0537  0.1379
 1377TIP3    H125546   1.377   5.582  15.721 -1.2349 -0.2955  0.9480
 1377TIP3    H225547   1.286   5.671  15.639 -0.6074 -0.4969  0.0240
 1378TIP3   OH225548   0.410   0.412   3.834  0.0383 -0.1741 -0.0145
 1378TIP3    H125549   0.486   0.424   3.778  0.8466 -0.5521  0.9667
 1378TIP3    H225550   0.370   0.499   3.840  1.9209  0.6555  1.5792
 1379TIP3   OH225551   5.591   3.310   2.254  0.2488 -0.2251  0.4430
 1379TIP3    H125552   5.563   3.308   2.345  0.1619  0.8707  0.4552
 1379TIP3    H225553   5.546   3.386   2.217  0.5799 -0.4350 -0.4143
 1380TIP3   OH225554   4.839   3.356  13.623  1.0095  0.0997 -0.6524
 1380TIP3    H125555   4.882   3.271  13.638 -0.2703 -0.5884 -0.7779
 1380TIP3    H225556   4.812   3.353  13.531 -0.1826  0.1001 -0.3110
 1381TIP3   OH225557   5.165   0.900   5.555  0.2528  0.1155 -0.0914
 1381TIP3    H125558   5.220   0.842   5.607 -1.6462 -1.7671 -0.0662
 1381TIP3    H225559   5.141   0.971   5.614 -0.3143 -0.9808  1.0306
 1382TIP3   OH225560   3.801   2.527  13.370  0.1326  0.3585  0.7072
 1382TIP3    H125561   3.743   2.594  13.335  0.6422  0.6661  0.4551
 1382TIP3    H225562   3.741   2.462  13.409 -0.3743  0.7096  0.5209
 1383TIP3   OH225563   4.380   6.001  14.728  0.7066  0.0852  0.2511
 1383TIP3    H125564   4.414   5.975  14.814  0.7820 -0.3296  0.1002
 1383TIP3    H225565   4.289   5.970  14.729 -0.0789  2.2423  1.1139
 1384TIP3   OH225566   5.950   4.003   4.611  0.0171  0.2825  0.1706
 1384TIP3    H125567   5.950   3.964   4.523 -0.0445 -0.0702  0.3259
 1384TIP3    H225568   5.959   3.929   4.670  1.2773  0.6234  0.4273
 1385TIP3   OH225569   1.988   6.710   3.070 -0.2541 -0.0265  0.2020
 1385TIP3    H125570   1.936   6.675   3.142 -0.2994 -0.2515  0.0643
 1385TIP3    H225571   1.923   6.734   3.003 -0.1661 -0.7227 -0.1497
 1386TIP3   OH225572   1.360   3.308  11.161 -0.3455 -0.6102  0.6486
 1386TIP3    H125573   1.336   3.216  11.169 -0.9768 -0.7372 -1.9941
 1386TIP3    H225574   1.456   3.308  11.163 -0.3382 -1.3283  0.5600
 1387TIP3   OH225575   6.752   1.217   1.219 -0.1551  0.2958  0.5015
 1387TIP3    H125576   6.732   1.279   1.149  1.3818  1.2860  0.8991
 1387TIP3    H225577   6.736   1.266   1.300 -0.0949 -0.2280  0.8359
 1388TIP3   OH225578   4.524   4.823   3.051 -0.3854  1.1928 -1.0707
 1388TIP3    H125579   4.530   4.839   2.957  1.0432  0.3729 -1.1549
 1388TIP3    H225580   4.568   4.898   3.091  1.2839  0.3329 -1.2061
 1389TIP3   OH225581   4.009   1.931   5.654 -0.0536  0.6931 -0.0692
 1389TIP3    H125582   4.031   1.906   5.564  1.2712  0.9204  0.1713
 1389TIP3    H225583   4.093   1.931   5.700 -0.7470  0.2589  1.2614
 1390TIP3   OH225584   5.344   2.308  11.697  0.2743  0.0173  0.4103
 1390TIP3    H125585   5.403   2.382  11.685  1.1393 -0.9951 -2.5488
 1390TIP3    H225586   5.399   2.240  11.737  0.8376 -0.5079 -1.1854
 1391TIP3   OH225587   4.470   1.348  11.516  0.1139  0.3319 -0.0251
 1391TIP3    H125588   4.420   1.284  11.466  0.9276 -1.2978  1.1583
 1391TIP3    H225589   4.551   1.359  11.466  0.9216 -1.2863  0.8474
 1392TIP3   OH225590   0.267   2.824   4.175  0.3272  0.2522 -0.2236
 1392TIP3    H125591   0.231   2.737   4.156  1.2743  0.0001 -0.9455
 1392TIP3    H225592   0.250   2.874   4.096 -1.7889  1.3006  0.8142
 1393TIP3   OH225593   5.076   1.829   5.160 -0.5388 -0.2271  0.3178
 1393TIP3    H125594   5.084   1.833   5.065 -0.6388 -2.5652  0.1573
 1393TIP3    H225595   5.160   1.862   5.193 -1.0233  1.9810 -0.4628
 1394TIP3   OH225596   5.453   6.134  17.091 -0.0717  0.2458  0.5875
 1394TIP3    H125597   5.477   6.212  17.142 -0.3529 -0.4880  1.8865
 1394TIP3    H225598   5.372   6.160  17.046  1.6164  1.8549 -1.8124
 1395TIP3   OH225599   2.564   4.461   5.499  0.3489  0.2675  0.1472
 1395TIP3    H125600   2.650   4.442   5.461  0.4577 -0.6828  0.8283
 1395TIP3    H225601   2.513   4.496   5.426  0.8617 -0.5627 -0.6328
 1396TIP3   OH225602   6.062   4.273   3.418 -0.6859 -0.1702 -0.2107
 1396TIP3    H125603   6.026   4.322   3.344  2.1166  1.3055 -0.7247
 1396TIP3    H225604   6.130   4.329   3.454 -0.2578 -1.9243  1.9451
 1397TIP3   OH225605   1.379   1.677   3.514  0.8428  0.0490  0.0181
 1397TIP3    H125606   1.368   1.760   3.468  0.4662 -0.0947 -0.1553
 1397TIP3    H225607   1.311   1.677   3.581  0.5682 -0.2964 -0.2518
 1398TIP3   OH225608   5.392   3.829   5.678 -0.1680  0.2804 -0.0484
 1398TIP3    H125609   5.362   3.805   5.590 -0.1328  1.3427 -0.3589
 1398TIP3    H225610   5.406   3.745   5.722 -0.8334 -0.2554 -0.8351
 1399TIP3   OH225611   5.916   0.566   4.370  0.4374 -0.0988 -0.1148
 1399TIP3    H125612   5.997   0.544   4.417  0.1672  1.3093  1.0548
 1399TIP3    H225613   5.848   0.517   4.416  0.5577 -1.1294 -0.9806
 1400TIP3   OH225614   2.901   5.490  16.291  0.1973  0.0537 -0.1347
 1400TIP3    H125615   2.912   5.505  16.385  0.3359  1.5079 -0.3608
 1400TIP3    H225616   2.858   5.405  16.285 -0.7065  0.3838  1.2878
 1401TIP3   OH225617   4.669   0.304  13.887 -0.2713 -0.0119  0.4707
 1401TIP3    H125618   4.725   0.375  13.855 -1.6623  0.4771 -1.0468
 1401TIP3    H225619   4.580   0.340  13.881 -0.9456 -1.6381  0.3698
 1402TIP3   OH225620   0.051   4.470   0.517 -0.0844 -0.4150  0.3127
 1402TIP3    H125621   0.136   4.454   0.476  0.4209  2.6212 -0.0262
 1402TIP3    H225622  -0.011   4.465   0.444  0.1700  0.1104  0.0569
 1403TIP3   OH225623   4.688   4.016   3.571  0.4781  0.7128  0.6911
 1403TIP3    H125624   4.770   4.047   3.610  0.4489  1.4999  0.1566
 1403TIP3    H225625   4.625   4.086   3.586  0.2399  0.6602 -0.0043
 1404TIP3   OH225626   0.977   2.392   0.871  0.2102  0.3148 -0.1183
 1404TIP3    H125627   0.964   2.355   0.784  0.9010  0.9409 -0.4945
 1404TIP3    H225628   1.072   2.388   0.886 -0.0272 -1.2830  1.2850
 1405TIP3   OH225629   2.365   2.774   0.567  0.4169 -0.0887  0.6045
 1405TIP3    H125630   2.412   2.745   0.645  1.4290  0.5269  0.2477
 1405TIP3    H225631   2.427   2.832   0.523 -1.3241  2.2517  1.0495
 1406TIP3   OH225632   5.219   4.058  16.534  0.0362 -0.2114  0.0899
 1406TIP3    H125633   5.215   4.143  16.491  1.2145  0.4461  1.1987
 1406TIP3    H225634   5.127   4.032  16.543 -0.4441  1.6047  0.9596
 1407TIP3   OH225635   0.924   4.389  12.448 -0.5913 -0.5533 -1.1254
 1407TIP3    H125636   0.999   4.332  12.467 -1.5194 -1.4494 -0.0454
 1407TIP3    H225637   0.964   4.475  12.433  0.5845 -0.4907  1.6452
 1408TIP3   OH225638   6.430   0.485   0.054 -0.1241  0.5729 -0.3027
 1408TIP3    H125639   6.500   0.421   0.064  1.2109  2.0210 -0.0031
 1408TIP3    H225640   6.351   0.433   0.044  0.5779 -1.1188  2.1745
 1409TIP3   OH225641   3.154   0.969  10.303 -0.2277  0.3968  0.1762
 1409TIP3    H125642   3.079   0.954  10.360 -0.1674 -0.8662 -0.0502
 1409TIP3    H225643   3.156   0.892  10.246  1.4182  0.2660  0.3808
 1410TIP3   OH225644   4.589   1.894  11.542 -0.1679  0.2752  0.3917
 1410TIP3    H125645   4.526   1.928  11.477  0.9134 -0.2402 -0.9799
 1410TIP3    H225646   4.597   1.965  11.606  0.2918  1.7088 -1.1691
 1411TIP3   OH225647   1.657   2.774  12.287 -0.5094  0.4668  0.1047
 1411TIP3    H125648   1.684   2.726  12.209 -5.3384 -0.7277 -1.1657
 1411TIP3    H225649   1.683   2.865  12.270 -0.4085  0.0287 -2.3333
 1412TIP3   OH225650   5.806   3.164   2.170 -0.3463  0.4344  0.5413
 1412TIP3    H125651   5.848   3.200   2.092 -0.3700 -0.3065  0.1702
 1412TIP3    H225652   5.723   3.210   2.176 -0.2312  0.6839  0.2803
 1413TIP3   OH225653   4.537   2.980  13.590  0.6049 -0.2722 -0.4604
 1413TIP3    H125654   4.459   2.925  13.593 -0.0037  0.5695 -0.4158
 1413TIP3    H225655   4.552   2.995  13.497  1.2491 -1.1572 -0.5104
 1414TIP3   OH225656   2.047   2.846  16.807 -0.0475 -0.1732  0.3033
 1414TIP3    H125657   2.022   2.902  16.733 -1.4306  0.2557  1.0591
 1414TIP3    H225658   1.996   2.879  16.880 -1.5516 -2.8900  0.6082
 1415TIP3   OH225659   4.689   1.482  11.731  0.2248  0.2723 -0.2846
 1415TIP3    H125660   4.727   1.536  11.662 -0.0744  0.4763 -0.2910
 1415TIP3    H225661   4.759   1.475  11.797 -0.6985  3.3341  1.2304
 1416TIP3   OH225662   4.246   6.605  16.445  0.3563 -0.6606  0.1908
 1416TIP3    H125663   4.235   6.589  16.539  1.4913 -0.4343  0.3737
 1416TIP3    H225664   4.161   6.584  16.407  0.2344 -1.9847  1.1111
 1417TIP3   OH225665   1.960   2.095  11.019 -0.8617  0.0258  0.2093
 1417TIP3    H125666   2.029   2.124  11.079 -1.6440  1.0557  0.6423
 1417TIP3    H225667   1.990   2.126  10.933  0.3870 -1.6784 -0.0387
 1418TIP3   OH225668   2.023   0.758   3.514  0.2223 -0.0736  0.7143
 1418TIP3    H125669   2.016   0.799   3.600 -2.8563  1.6382 -0.1796
 1418TIP3    H225670   2.033   0.665   3.532  1.3693  0.4005  2.8633
 1419TIP3   OH225671   2.921   1.507   4.492 -0.6190 -0.7131  0.4124
 1419TIP3    H125672   2.845   1.449   4.485 -0.4584 -1.2258  2.4996
 1419TIP3    H225673   2.883   1.595   4.495 -0.9591 -0.7854 -0.9808
 1420TIP3   OH225674   5.444   2.534   2.376 -0.2742  0.4092  0.0749
 1420TIP3    H125675   5.534   2.512   2.400 -0.6353  0.3588  1.4760
 1420TIP3    H225676   5.412   2.587   2.450 -1.3669  0.4782 -0.4324
 1421TIP3   OH225677   0.513   2.427  14.088 -0.7356 -1.0420 -0.3097
 1421TIP3    H125678   0.471   2.347  14.122  1.3899 -2.7022 -1.3291
 1421TIP3    H225679   0.549   2.400  14.003 -0.0424  1.0654 -0.7303
 1422TIP3   OH225680   6.461   6.432  16.723 -0.6588  0.7326  0.1984
 1422TIP3    H125681   6.485   6.342  16.746 -1.3100  0.6793  0.7344
 1422TIP3    H225682   6.543   6.480  16.725 -0.2120  0.0268 -0.7131
 1423TIP3   OH225683   2.742   5.464   4.064  0.8842  0.0259  0.2574
 1423TIP3    H125684   2.704   5.552   4.059  0.5355 -0.1609 -3.3440
 1423TIP3    H225685   2.813   5.466   4.000 -0.3515 -2.7679 -1.4000
 1424TIP3   OH225686   2.935   0.211  16.641 -0.0681  0.2681 -0.2215
 1424TIP3    H125687   2.909   0.298  16.610  0.3340  0.3199 -0.4123
 1424TIP3    H225688   2.855   0.159  16.633 -0.6004  0.8813  0.9025
 1425TIP3   OH225689   6.337   3.548   2.694  0.8828  0.2523 -0.1815
 1425TIP3    H125690   6.301   3.636   2.698 -0.9315 -0.3513 -1.7062
 1425TIP3    H225691   6.327   3.514   2.783  0.7761  1.2677  0.2097
 1426TIP3   OH225692   6.528   6.484  14.194 -0.0778  0.6632 -0.0420
 1426TIP3    H125693   6.462   6.416  14.207 -1.0509  1.1435 -1.9666
 1426TIP3    H225694   6.491   6.562  14.236 -1.4825  1.2840 -2.2366
 1427TIP3   OH225695   0.938   4.782   6.521  0.1794  0.1664  0.3570
 1427TIP3    H125696   1.000   4.738   6.579 -0.0847  0.5880  0.9587
 1427TIP3    H225697   0.855   4.780   6.568  0.1780  1.3703  0.4211
 1428TIP3   OH225698   4.237   1.257  15.372  0.1668  0.2703 -0.4009
 1428TIP3    H125699   4.212   1.244  15.281  1.4565  0.5293 -0.8014
 1428TIP3    H225700   4.157   1.290  15.414 -0.9577 -1.4795 -1.0255
 1429TIP3   OH225701   6.314   3.057   1.969 -0.5093  0.0617 -0.1596
 1429TIP3    H125702   6.404   3.050   1.936 -0.2946  0.7297  0.2679
 1429TIP3    H225703   6.275   2.972   1.949  0.5054 -0.5776  0.4720
 1430TIP3   OH225704   2.528   3.058  15.678  0.6605 -0.3382 -0.7971
 1430TIP3    H125705   2.463   3.040  15.746  0.9885 -0.8302 -0.6097
 1430TIP3    H225706   2.491   3.132  15.630  1.0115  0.8783  0.7027
 1431TIP3   OH225707   5.311   2.690   1.912  0.5068  0.4714 -0.5585
 1431TIP3    H125708   5.321   2.625   1.982 -0.3507 -0.6139 -1.3989
 1431TIP3    H225709   5.247   2.753   1.948  0.5343  0.2640 -0.1347
 1432TIP3   OH225710   0.341   3.543  16.338  0.0718  0.6198 -0.2554
 1432TIP3    H125711   0.370   3.465  16.291 -0.9423  0.0029  0.1211
 1432TIP3    H225712   0.421   3.594  16.350  0.9094 -0.7656  0.2626
 1433TIP3   OH225713   1.074   5.880  16.995 -0.0105  0.1818  0.0047
 1433TIP3    H125714   1.028   5.936  16.931 -0.7322 -0.4876 -0.0866
 1433TIP3    H225715   1.156   5.856  16.951 -1.4199 -2.0474 -1.6675
 1434TIP3   OH225716   5.124   0.530   3.189 -0.2865 -0.3474 -0.0529
 1434TIP3    H125717   5.099   0.470   3.259  1.0185 -0.8243  0.0334
 1434TIP3    H225718   5.193   0.585   3.227 -0.6276  0.4071 -0.4993
 1435TIP3   OH225719   0.517   5.984   1.303  0.3768  0.5823  0.5000
 1435TIP3    H125720   0.541   5.905   1.254  1.0439 -0.5755  2.5607
 1435TIP3    H225721   0.441   6.018   1.257 -1.0546 -2.2852  0.5010
 1436TIP3   OH225722   3.685   0.402  13.758  0.3837 -0.4302  0.0865
 1436TIP3    H125723   3.631   0.339  13.710 -0.0224  0.2693 -0.3859
 1436TIP3    H225724   3.768   0.405  13.709 -0.4503  1.1747 -1.3201
 1437TIP3   OH225725   2.271   0.559   1.024 -0.2100 -0.3431  0.5414
 1437TIP3    H125726   2.234   0.615   0.955 -0.1673  0.1739  0.9396
 1437TIP3    H225727   2.329   0.616   1.074  0.5033 -0.9453  0.4347
 1438TIP3   OH225728   0.538   2.788   4.248  0.0364 -0.1243 -0.7378
 1438TIP3    H125729   0.442   2.782   4.243 -0.0408 -0.2409  0.6045
 1438TIP3    H225730   0.560   2.863   4.193 -1.0602  1.4202  0.8226
 1439TIP3   OH225731   3.448   0.815  15.279  0.0830  0.1272 -0.6344
 1439TIP3    H125732   3.376   0.752  15.270 -0.1535  0.0440  1.4041
 1439TIP3    H225733   3.526   0.766  15.255 -0.2384 -0.6131 -0.2224
 1440TIP3   OH225734   4.323   4.694   3.821 -0.2493  0.4567  1.0267
 1440TIP3    H125735   4.414   4.684   3.847 -0.3379  0.2250  1.2510
 1440TIP3    H225736   4.297   4.779   3.856 -0.2040  0.3948  1.2126
 1441TIP3   OH225737   6.600   3.690  14.512 -0.0599 -0.3128 -0.0955
 1441TIP3    H125738   6.555   3.664  14.432  0.9889  1.7827 -1.4697
 1441TIP3    H225739   6.680   3.638  14.513  1.5524  1.8616 -2.3004
 1442TIP3   OH225740   4.166   3.409   0.637 -0.6085  0.1542  0.3187
 1442TIP3    H125741   4.085   3.458   0.622  0.0245  1.0672 -0.2066
 1442TIP3    H225742   4.142   3.341   0.700 -1.1615  2.2511  2.5510
 1443TIP3   OH225743   1.958   1.975  16.247  0.3372 -0.4317  0.5466
 1443TIP3    H125744   1.979   1.883  16.262 -0.0831 -0.9799 -1.8316
 1443TIP3    H225745   1.866   1.984  16.271  0.5374 -0.4612  1.3554
 1444TIP3   OH225746   1.819   6.711   0.623 -0.0035 -0.1566  0.1247
 1444TIP3    H125747   1.763   6.758   0.685  0.3223 -0.0717  0.3568
 1444TIP3    H225748   1.908   6.736   0.647  0.1329 -0.2303 -0.2935
 1445TIP3   OH225749   1.791   3.191   4.994  0.7649 -0.1798 -0.6565
 1445TIP3    H125750   1.833   3.134   5.059 -1.1412 -0.3258  0.5362
 1445TIP3    H225751   1.698   3.183   5.013  0.2002  0.5066 -2.8624
 1446TIP3   OH225752   3.856   5.620   4.466  0.2895 -0.0245  0.1770
 1446TIP3    H125753   3.934   5.595   4.417  0.5275  1.0787 -0.0297
 1446TIP3    H225754   3.884   5.624   4.557  0.1303 -0.9513  0.2750
 1447TIP3   OH225755   1.019   1.835  11.936  0.1765  0.4087 -0.1199
 1447TIP3    H125756   0.994   1.742  11.927 -0.6630  0.7882 -2.6549
 1447TIP3    H225757   1.113   1.833  11.953  0.0154 -0.9125  0.7886
 1448TIP3   OH225758   4.996   4.116  11.807 -0.5075 -0.2578 -0.1401
 1448TIP3    H125759   4.903   4.140  11.813 -0.5998 -0.4189 -0.7866
 1448TIP3    H225760   5.021   4.096  11.897 -1.2395 -0.7037 -0.0228
 1449TIP3   OH225761   0.713   2.425  15.626  0.1655  0.5337 -0.4476
 1449TIP3    H125762   0.626   2.390  15.608  0.4325 -1.1300  1.2608
 1449TIP3    H225763   0.773   2.352  15.613  0.8606  0.5396  2.1410
 1450TIP3   OH225764   3.758   2.405   5.554 -0.6152 -0.1508  0.5567
 1450TIP3    H125765   3.838   2.368   5.592  0.2832 -0.0424 -1.1351
 1450TIP3    H225766   3.708   2.436   5.630  1.6767  1.2578  1.6194
 1451TIP3   OH225767   3.916   6.164   0.317  0.3416  0.0505 -0.4824
 1451TIP3    H125768   3.862   6.107   0.262  0.0003  0.3132 -0.4224
 1451TIP3    H225769   3.925   6.244   0.265  0.8270 -0.0602 -0.5699
 1452TIP3   OH225770   3.027   0.774  16.949 -0.1973  0.5160 -0.3777
 1452TIP3    H125771   3.087   0.703  16.929  0.0104  0.8193 -0.8333
 1452TIP3    H225772   2.948   0.755  16.898 -0.1309  0.6274 -0.5220
 1453TIP3   OH225773   6.148   5.151  13.357  0.0650  0.5391  0.1276
 1453TIP3    H125774   6.211   5.223  13.363  0.2530  0.2624  3.0809
 1453TIP3    H225775   6.191   5.078  13.402 -1.1386 -0.6347 -0.5575
 1454TIP3   OH225776   3.305   4.353   3.834  0.1018 -0.0613  0.3492
 1454TIP3    H125777   3.260   4.269   3.823  0.8471 -0.2595 -1.6780
 1454TIP3    H225778   3.390   4.330   3.871  0.6593 -0.3521 -1.0402
 1455TIP3   OH225779   5.369   3.170   4.706  0.0652 -0.0002 -0.3584
 1455TIP3    H125780   5.277   3.163   4.680  0.7103  0.1318 -2.9774
 1455TIP3    H225781   5.377   3.256   4.745 -0.9093 -0.0035 -0.1278
 1456TIP3   OH225782   4.642   4.034   5.986 -0.2079  0.0444 -0.5212
 1456TIP3    H125783   4.593   3.953   5.970 -0.5503  0.3439 -1.0032
 1456TIP3    H225784   4.724   4.022   5.939  0.7836 -1.0029  1.3333
 1457TIP3   OH225785   5.566   4.218   2.151 -0.1650 -0.2124  0.3125
 1457TIP3    H125786   5.620   4.288   2.115 -0.2974  1.1153  2.5592
 1457TIP3    H225787   5.599   4.203   2.239 -2.2153 -0.6814  1.0730
 1458TIP3   OH225788   5.087   5.428  16.627  1.1117 -0.2276  0.0807
 1458TIP3    H125789   5.116   5.381  16.706  0.5502 -0.8681 -0.0878
 1458TIP3    H225790   5.163   5.424  16.569  0.7553 -1.8535 -0.3401
 1459TIP3   OH225791   0.262   4.727  12.524 -0.1098 -0.0781  0.0177
 1459TIP3    H125792   0.286   4.814  12.558 -0.4867  0.2704 -0.5827
 1459TIP3    H225793   0.192   4.745  12.462  0.2030 -0.7634 -0.5385
 1460TIP3   OH225794   3.248   0.994   0.717  0.2391  0.1762 -0.9162
 1460TIP3    H125795   3.331   0.967   0.677 -0.2203 -0.4002 -1.4981
 1460TIP3    H225796   3.255   0.963   0.808  0.1293 -1.0551 -1.3103
 1461TIP3   OH225797   0.594   1.451   0.191  0.3280 -1.0310  0.1983
 1461TIP3    H125798   0.574   1.488   0.277 -1.0059  1.6668 -1.1440
 1461TIP3    H225799   0.677   1.492   0.167 -0.0263 -0.6414 -0.3754
 1462TIP3   OH225800   5.410   3.368  15.020  0.4691  0.0258  0.3287
 1462TIP3    H125801   5.330   3.317  15.033 -0.4822  1.4493  0.3580
 1462TIP3    H225802   5.445   3.337  14.936 -0.6776  0.0787 -0.1851
 1463TIP3   OH225803   2.755   6.445  16.673 -0.0961  0.1715 -0.1616
 1463TIP3    H125804   2.844   6.472  16.696 -0.1860  2.4031 -2.0645
 1463TIP3    H225805   2.757   6.349  16.676  2.7643  0.0876 -1.4649
 1464TIP3   OH225806   3.071   6.031  13.638 -0.4881 -0.1860 -0.0240
 1464TIP3    H125807   3.123   6.039  13.718 -1.1848  2.1767  0.2900
 1464TIP3    H225808   3.001   6.096  13.649 -0.0714  0.8758 -2.9324
 1465TIP3   OH225809   2.164   5.479  14.240  0.7031 -0.3957  0.4034
 1465TIP3    H125810   2.115   5.516  14.167  1.0368 -1.1242 -0.1964
 1465TIP3    H225811   2.163   5.385  14.224 -1.9972 -0.9760  3.0160
 1466TIP3   OH225812   5.616   0.553  15.361 -0.1025 -0.5902 -0.3489
 1466TIP3    H125813   5.646   0.629  15.411  1.0937 -1.2972  0.0739
 1466TIP3    H225814   5.678   0.483  15.386  1.0460 -0.7958 -3.3828
 1467TIP3   OH225815   5.057   6.397  16.068 -0.2978 -0.0772  0.4780
 1467TIP3    H125816   5.062   6.304  16.045 -0.0203  0.0829 -0.1120
 1467TIP3    H225817   4.965   6.420  16.055  0.1105  0.3898 -2.0094
 1468TIP3   OH225818   3.553   3.909  17.152 -0.4100  0.0006  0.2752
 1468TIP3    H125819   3.594   3.994  17.170 -1.3461  0.4671  0.2686
 1468TIP3    H225820   3.459   3.928  17.148 -0.6538 -1.0824  0.5157
 1469TIP3   OH225821   4.062   3.371  11.409 -0.2054 -0.3448  0.7193
 1469TIP3    H125822   4.093   3.453  11.448 -1.1758  0.2140  0.3386
 1469TIP3    H225823   3.972   3.390  11.382  0.0997 -1.0163 -0.8777
 1470TIP3   OH225824   0.630   0.291  12.179 -0.5222 -0.2215 -0.1589
 1470TIP3    H125825   0.698   0.347  12.143  1.1219 -2.0334 -0.0019
 1470TIP3    H225826   0.625   0.217  12.119 -1.8533 -0.4752  0.2286
 1471TIP3   OH225827   0.243   5.901  14.762 -0.0405 -0.4799  0.2774
 1471TIP3    H125828   0.329   5.908  14.721  0.0138  0.2314  0.5016
 1471TIP3    H225829   0.244   5.817  14.807  0.5641 -0.4416  0.3398
 1472TIP3   OH225830   6.259   3.021  12.579  0.3020  0.1418  0.3730
 1472TIP3    H125831   6.289   3.051  12.494 -0.6346  0.6700  0.2149
 1472TIP3    H225832   6.234   3.101  12.626 -1.7537 -0.2768  0.1280
 1473TIP3   OH225833   3.275   3.727   1.855  0.0752 -0.0840  0.0264
 1473TIP3    H125834   3.276   3.818   1.826 -4.0561  0.0565 -0.3038
 1473TIP3    H225835   3.366   3.698   1.849  0.9451  2.7640 -3.8713
 1474TIP3   OH225836   3.244   1.930   2.563  0.0737  0.3077  0.1865
 1474TIP3    H125837   3.270   2.005   2.617  0.2782 -0.4057  1.0901
 1474TIP3    H225838   3.323   1.876   2.558 -0.2334 -0.1245  0.0046
 1475TIP3   OH225839   0.364   6.730  16.466  0.5100 -0.3397 -0.1470
 1475TIP3    H125840   0.334   6.820  16.479 -0.0171 -0.6827  1.0967
 1475TIP3    H225841   0.295   6.690  16.413 -1.5661 -1.2024  2.9091
 1476TIP3   OH225842   3.742   6.652   1.885  0.5058  0.4958 -0.0174
 1476TIP3    H125843   3.715   6.662   1.977  0.0718 -0.0400 -0.0859
 1476TIP3    H225844   3.676   6.700   1.835  0.0922 -0.1818 -0.1298
 1477TIP3   OH225845   1.424   3.623   1.425  0.1637  0.4208  0.6462
 1477TIP3    H125846   1.356   3.680   1.458 -1.2872 -1.1700  0.5421
 1477TIP3    H225847   1.483   3.610   1.500 -0.9618 -0.0488  1.4868
 1478TIP3   OH225848   5.573   4.620  15.080  0.0821 -0.5353 -0.5847
 1478TIP3    H125849   5.506   4.668  15.032 -0.3011  1.2972  1.6048
 1478TIP3    H225850   5.532   4.535  15.099 -0.0103 -1.0300 -2.7588
 1479TIP3   OH225851   2.392   6.636   5.423 -0.2149 -0.0772 -0.1693
 1479TIP3    H125852   2.354   6.608   5.340  2.1138  1.3716 -1.8478
 1479TIP3    H225853   2.415   6.555   5.469 -1.1899 -0.8971 -1.1015
 1480TIP3   OH225854   4.215   2.860   3.656  0.1949 -0.0610  0.1624
 1480TIP3    H125855   4.274   2.910   3.600  3.1502 -2.0571  1.2046
 1480TIP3    H225856   4.139   2.842   3.602  0.2727  2.9771 -1.1579
 1481TIP3   OH225857   0.461   4.054   2.915  0.0754  0.4616  0.5344
 1481TIP3    H125858   0.475   3.973   2.867  2.2093  0.0804  1.6988
 1481TIP3    H225859   0.365   4.064   2.917 -0.1692 -0.2182 -2.4781
 1482TIP3   OH225860   2.528   2.177   3.653  0.2282 -0.2084  0.4718
 1482TIP3    H125861   2.446   2.143   3.689 -0.7104 -0.8580 -2.0903
 1482TIP3    H225862   2.556   2.110   3.591  0.5879  1.7633 -1.6124
 1483TIP3   OH225863   1.393   6.771   2.388  0.0516 -0.0446 -0.0483
 1483TIP3    H125864   1.423   6.826   2.316 -0.0900  0.8823  0.5857
 1483TIP3    H225865   1.467   6.769   2.449 -0.6537  1.1544  0.8927
 1484TIP3   OH225866   0.654   4.821   1.606 -0.0142  0.1866 -0.0245
 1484TIP3    H125867   0.687   4.750   1.551  0.3726  0.7571 -0.5528
 1484TIP3    H225868   0.582   4.782   1.656  1.1289 -0.9693  0.8001
 1485TIP3   OH225869   0.373   6.452  14.613  0.2545  0.3911 -0.0107
 1485TIP3    H125870   0.284   6.479  14.589 -0.0118 -0.2935  0.1762
 1485TIP3    H225871   0.362   6.365  14.652  0.9268  0.5925  0.6445
 1486TIP3   OH225872   4.433   1.967  15.945 -0.7577  0.1430  0.1611
 1486TIP3    H125873   4.501   2.032  15.960  0.9978 -1.7387  0.7981
 1486TIP3    H225874   4.391   1.994  15.863  1.5622  0.7129 -0.9088
 1487TIP3   OH225875   1.657   6.457  12.669  0.2408 -0.4477 -0.8397
 1487TIP3    H125876   1.691   6.373  12.699 -1.0980 -0.1518  1.7771
 1487TIP3    H225877   1.575   6.436  12.625 -0.7585 -0.4839  0.9531
 1488TIP3   OH225878   0.550   2.197   2.012 -0.2481 -0.3405  0.1941
 1488TIP3    H125879   0.643   2.195   1.987 -0.3327 -0.0963 -0.1432
 1488TIP3    H225880   0.508   2.247   1.942 -0.3963  0.8460  1.1129
 1489TIP3   OH225881   1.959   3.270  11.865  0.7461 -0.2338 -0.0682
 1489TIP3    H125882   1.938   3.362  11.879 -2.0977 -0.7925 -0.0658
 1489TIP3    H225883   1.988   3.265  11.774 -0.9735  0.4399 -0.7046
 1490TIP3   OH225884   3.304   3.522  12.209  0.1120 -0.1552 -0.5751
 1490TIP3    H125885   3.289   3.522  12.114  0.3936  1.5367 -0.6514
 1490TIP3    H225886   3.227   3.566  12.245  0.4601  0.0713 -0.1031
 1491TIP3   OH225887   2.811   0.414  15.206  0.1191  0.1836 -0.6344
 1491TIP3    H125888   2.824   0.476  15.278  0.6500  1.4252 -1.7686
 1491TIP3    H225889   2.843   0.459  15.129 -0.6736 -1.0254 -1.7180
 1492TIP3   OH225890   6.694   1.279   0.300 -0.0265  0.0052 -0.0996
 1492TIP3    H125891   6.667   1.188   0.289  0.7847 -0.1509 -0.8337
 1492TIP3    H225892   6.705   1.289   0.395 -0.2907 -0.6042  0.0019
 1493TIP3   OH225893   3.216   3.110   2.664  0.3600 -0.0909 -0.0856
 1493TIP3    H125894   3.279   3.069   2.604 -0.0844 -1.4088  0.3007
 1493TIP3    H225895   3.268   3.172   2.715  1.7826 -2.4038  1.4501
 1494TIP3   OH225896   5.816   3.611  15.113 -0.1065 -0.0718  0.2241
 1494TIP3    H125897   5.875   3.602  15.038  0.9535  1.6987  0.7953
 1494TIP3    H225898   5.730   3.626  15.073 -0.1789 -2.3022 -0.6122
 1495TIP3   OH225899   1.655   5.356  16.970 -0.7283 -0.0407  0.1827
 1495TIP3    H125900   1.662   5.344  17.065  0.5600  0.9829  0.2488
 1495TIP3    H225901   1.717   5.294  16.933 -2.1583 -1.3559 -0.0921
 1496TIP3   OH225902   3.017   0.762   4.279  0.1587  0.3966 -0.3099
 1496TIP3    H125903   3.071   0.742   4.356 -1.4759 -0.9115  0.5667
 1496TIP3    H225904   3.008   0.678   4.234 -1.5475  0.4657 -0.1433
 1497TIP3   OH225905   3.885   5.096   5.546 -0.2519 -0.0770  0.3128
 1497TIP3    H125906   3.815   5.139   5.596  0.9071  0.1945  1.7801
 1497TIP3    H225907   3.957   5.089   5.608  1.6995  1.2962 -1.6438
 1498TIP3   OH225908   5.882   2.076   4.118 -0.1094 -0.3908 -0.9528
 1498TIP3    H125909   5.834   2.135   4.059 -1.7542 -0.3660  0.3546
 1498TIP3    H225910   5.908   2.003   4.062  0.2599  0.6255 -2.1690
 1499TIP3   OH225911   2.444   2.983  14.727  0.5402  0.8723  0.2864
 1499TIP3    H125912   2.391   3.057  14.697 -0.2211 -0.6821 -2.6247
 1499TIP3    H225913   2.515   2.976  14.663  0.0861 -1.3843 -0.0807
 1500TIP3   OH225914   3.045   5.827  10.764 -0.9000  0.0739  0.4428
 1500TIP3    H125915   2.981   5.772  10.808 -1.1438  0.3004  0.3760
 1500TIP3    H225916   3.108   5.766  10.727 -0.1245 -0.0861  1.9531
 1501TIP3   OH225917   0.664   6.102   3.771  0.1793  0.2087 -0.0991
 1501TIP3    H125918   0.737   6.100   3.833  0.7849  1.3585 -0.7393
 1501TIP3    H225919   0.613   6.024   3.792 -0.0598  0.9284  2.3392
 1502TIP3   OH225920   5.338   5.543  15.843  0.1361 -0.1384 -0.3045
 1502TIP3    H125921   5.295   5.617  15.887 -1.0604 -1.0014  0.0517
 1502TIP3    H225922   5.369   5.579  15.760  1.8501  1.3788  0.8996
 1503TIP3   OH225923   1.887   1.174   0.085  0.2634 -0.1230  0.3274
 1503TIP3    H125924   1.893   1.269   0.099  1.0471 -0.2546  0.9791
 1503TIP3    H225925   1.797   1.152   0.109  0.0208  0.4824 -0.0066
 1504TIP3   OH225926   3.090   4.838   1.562  0.1562  0.2244 -0.0165
 1504TIP3    H125927   3.127   4.853   1.475  3.0654  2.5058  1.4243
 1504TIP3    H225928   3.069   4.926   1.594 -0.4331 -0.5212  1.7784
 1505TIP3   OH225929   0.199   4.943  16.535  0.2102  0.5821  0.0605
 1505TIP3    H125930   0.227   4.933  16.444  0.6574 -1.2632  0.3619
 1505TIP3    H225931   0.105   4.922  16.534 -0.0882  1.8365 -0.1509
 1506TIP3   OH225932   4.635   3.412  11.133 -0.6468  0.3636  0.4126
 1506TIP3    H125933   4.590   3.450  11.058 -0.1825  1.5161  0.6934
 1506TIP3    H225934   4.586   3.333  11.154 -1.9215  1.0508  0.0890
 1507TIP3   OH225935   1.897   5.785   2.397 -0.4892  0.3196 -0.5287
 1507TIP3    H125936   1.893   5.752   2.307  0.8384  0.8385 -0.7969
 1507TIP3    H225937   1.920   5.708   2.449  1.4746  0.5320 -1.0085
 1508TIP3   OH225938   0.063   1.582  13.708  1.0419 -0.6427  0.0182
 1508TIP3    H125939   0.114   1.625  13.639  1.2862 -0.5217  0.2755
 1508TIP3    H225940  -0.022   1.567  13.667  0.6016  1.0063  0.2298
 1509TIP3   OH225941   3.650   0.952  17.193  0.2793  0.2084  0.3470
 1509TIP3    H125942   3.607   1.016  17.138  0.3149  0.3351  0.4664
 1509TIP3    H225943   3.582   0.923  17.254  0.2910  0.2114  0.3622
 1510TIP3   OH225944   3.819   1.318   4.534  0.3032 -0.3639 -0.3520
 1510TIP3    H125945   3.780   1.262   4.601 -0.7098  1.1357  0.3859
 1510TIP3    H225946   3.912   1.320   4.555  1.0622 -4.3941 -2.4176
 1511TIP3   OH225947   2.994   4.394   0.054 -0.1448 -0.2448  0.2270
 1511TIP3    H125948   2.950   4.407  -0.030 -1.1441  0.0230  0.7782
 1511TIP3    H225949   3.075   4.445   0.047 -1.3876  1.8538  0.3279
 1512TIP3   OH225950   5.402   6.323  15.148 -0.0172  0.5487 -0.0716
 1512TIP3    H125951   5.409   6.331  15.243 -1.4356  1.4955 -0.0091
 1512TIP3    H225952   5.391   6.412  15.117  0.6073  0.2642 -1.1566
 1513TIP3   OH225953   0.708   6.769   3.463  0.0402 -0.2279  0.5278
 1513TIP3    H125954   0.728   6.815   3.544 -0.6547  2.9429 -0.9251
 1513TIP3    H225955   0.621   6.732   3.476 -1.2297  2.5007  0.4794
 1514TIP3   OH225956   2.101   6.073  12.956  0.5482 -0.5205 -0.1160
 1514TIP3    H125957   2.127   6.093  13.046 -0.1731  3.3543 -0.6033
 1514TIP3    H225958   2.179   6.036  12.916  1.7855  0.3644  1.3720
 1515TIP3   OH225959   0.596   2.444  15.164 -0.1726 -0.2340 -0.0142
 1515TIP3    H125960   0.510   2.484  15.148  0.1400 -0.3863 -2.3480
 1515TIP3    H225961   0.635   2.499  15.232 -0.7738  1.9309 -1.3122
 1516TIP3   OH225962   4.551   0.934  15.313 -0.1455  0.0954  0.0780
 1516TIP3    H125963   4.456   0.937  15.320 -0.0872  0.3298  0.8148
 1516TIP3    H225964   4.583   0.976  15.392  0.5785  1.2892 -0.8068
 1517TIP3   OH225965   4.238   2.984   3.201 -0.0849 -0.4324 -0.2090
 1517TIP3    H125966   4.215   2.996   3.109 -0.2842 -0.1635 -0.1267
 1517TIP3    H225967   4.157   3.001   3.248 -0.5098 -2.5095 -0.0819
 1518TIP3   OH225968   2.453   6.303   3.059  0.3278  0.1320 -0.0274
 1518TIP3    H125969   2.360   6.283   3.056  0.3526  0.1079 -0.8170
 1518TIP3    H225970   2.472   6.343   2.974  1.0757 -0.0270  0.0572
 1519TIP3   OH225971   0.270   0.894  15.807 -0.2914 -0.4635  0.3343
 1519TIP3    H125972   0.280   0.916  15.714 -0.3452  0.0841  0.4594
 1519TIP3    H225973   0.181   0.922  15.829  0.0426  0.2591  0.7875
 1520TIP3   OH225974   2.564   3.356  15.560 -0.2124 -0.2283  0.1200
 1520TIP3    H125975   2.537   3.448  15.558 -0.8531 -0.4247 -1.0519
 1520TIP3    H225976   2.621   3.346  15.485 -1.0150 -1.0368 -0.4064
 1521TIP3   OH225977   5.652   4.355  13.051 -0.6411 -0.0988  0.7628
 1521TIP3    H125978   5.644   4.376  13.144 -0.4816 -1.5400  1.1251
 1521TIP3    H225979   5.741   4.384  13.028 -0.7640  0.4793  0.9930
 1522TIP3   OH225980   2.353   3.161  11.941 -0.1830 -0.1635  0.1633
 1522TIP3    H125981   2.383   3.070  11.930  1.6566  0.5223 -0.8622
 1522TIP3    H225982   2.381   3.184  12.030  0.9599 -0.0590 -0.2059
 1523TIP3   OH225983   4.508   3.655  16.540  0.1862 -0.1380 -0.1938
 1523TIP3    H125984   4.497   3.671  16.633 -0.2470 -0.7710 -0.1275
 1523TIP3    H225985   4.583   3.709  16.514  0.7727 -0.5271  0.6680
 1524TIP3   OH225986   0.376   4.992  13.004  0.2331  0.9233 -0.5948
 1524TIP3    H125987   0.338   5.043  13.075 -0.0335  2.4340 -1.7697
 1524TIP3    H225988   0.303   4.970  12.947  0.1859 -1.6154  0.3016
 1525TIP3   OH225989   5.758   0.462   5.773 -0.9196  0.7542 -0.2133
 1525TIP3    H125990   5.798   0.469   5.859  0.2247  2.0005 -0.8238
 1525TIP3    H225991   5.665   0.445   5.791 -0.5535  0.1408  1.2352
 1526TIP3   OH225992   1.944   1.356   4.685  0.7683  0.2821  0.5699
 1526TIP3    H125993   1.998   1.350   4.606 -1.5865 -4.1049 -1.0658
 1526TIP3    H225994   2.007   1.350   4.757  2.7138 -1.1472 -1.1187
 1527TIP3   OH225995   1.170   1.149   5.374  0.5020 -0.3681  0.0867
 1527TIP3    H125996   1.254   1.115   5.403  0.6360  1.5813  2.2325
 1527TIP3    H225997   1.111   1.074   5.380  1.7624 -1.3976 -0.0201
 1528TIP3   OH225998   4.997   0.129  15.536 -0.3104  0.0100  0.6005
 1528TIP3    H125999   4.924   0.182  15.506  0.5582  0.6164 -0.5169
 1528TIP3    H226000   4.964   0.039  15.534 -0.4028  0.0224 -2.0195
 1529TIP3   OH226001   1.843   3.412  15.710 -0.2439 -0.1866 -1.0344
 1529TIP3    H126002   1.857   3.472  15.636 -0.6098  0.1133 -0.8615
 1529TIP3    H226003   1.751   3.422  15.732  0.1354  0.6544  0.2822
 1530TIP3   OH226004   0.329   1.371   3.282  0.1001 -0.1636  0.4722
 1530TIP3    H126005   0.328   1.467   3.285 -0.6790 -0.1618  0.2996
 1530TIP3    H226006   0.277   1.345   3.358 -1.3830 -0.4119 -0.5903
 1531TIP3   OH226007   0.778   2.593  15.358  0.1020 -0.0959  0.6855
 1531TIP3    H126008   0.738   2.578  15.444  0.7145  0.3827  1.0611
 1531TIP3    H226009   0.863   2.550  15.363  0.0269 -0.3052  0.2179
 1532TIP3   OH226010   3.638   6.092   3.917 -0.0300 -0.0438 -0.2119
 1532TIP3    H126011   3.630   5.997   3.915  0.0028 -0.0329 -0.8429
 1532TIP3    H226012   3.639   6.114   4.011  1.3888 -0.7762 -0.0324
 1533TIP3   OH226013   2.473   3.474   4.009 -1.1622  0.0561 -0.0575
 1533TIP3    H126014   2.440   3.456   3.921  1.1008 -0.0588 -0.9373
 1533TIP3    H226015   2.561   3.436   4.010 -1.8266 -1.7778  2.9393
 1534TIP3   OH226016   0.051   1.706   2.524 -0.0162 -0.1336  0.2007
 1534TIP3    H126017  -0.002   1.669   2.453 -0.9952 -0.9468  1.3172
 1534TIP3    H226018   0.111   1.766   2.480 -1.7180  0.6834 -1.1481
 1535TIP3   OH226019   5.433   3.843  16.874  0.5591 -0.9218  0.1633
 1535TIP3    H126020   5.461   3.893  16.951  0.5107 -1.4786  0.5507
 1535TIP3    H226021   5.480   3.883  16.802  2.3314 -1.7692  0.7882
 1536TIP3   OH226022   2.362   5.825   3.982 -0.4057 -0.6789 -0.1615
 1536TIP3    H126023   2.350   5.909   3.938  1.4895 -0.0490  0.4235
 1536TIP3    H226024   2.273   5.791   3.994 -1.0772 -0.0482 -2.7995
 1537TIP3   OH226025   2.457   6.630   0.354  0.4833  0.4635 -0.3784
 1537TIP3    H126026   2.494   6.696   0.414  0.8379 -0.6922  0.7240
 1537TIP3    H226027   2.526   6.565   0.345 -0.1056 -0.1001 -0.9097
 1538TIP3   OH226028   6.655   3.374   4.744  0.1877 -0.3859 -0.1780
 1538TIP3    H126029   6.614   3.293   4.774 -0.9519  0.0744 -0.4288
 1538TIP3    H226030   6.583   3.423   4.704  0.6364  1.1860  0.8580
 1539TIP3   OH226031   0.413   3.178  12.523  0.1577  0.0137 -0.2216
 1539TIP3    H126032   0.324   3.146  12.505 -0.4663  0.9477  1.0194
 1539TIP3    H226033   0.464   3.150  12.447 -1.3223 -0.0760 -1.2437
 1540TIP3   OH226034   5.382   0.680   3.665  0.0134 -0.6420  0.4103
 1540TIP3    H126035   5.386   0.771   3.636  0.4190 -0.8825 -0.3117
 1540TIP3    H226036   5.288   0.661   3.669 -0.0643 -0.4236 -0.2096
 1541TIP3   OH226037   4.399   3.547   2.299 -0.0688  0.3072  0.5158
 1541TIP3    H126038   4.303   3.550   2.298 -0.0519  2.6704  0.6651
 1541TIP3    H226039   4.426   3.634   2.271  2.0345 -0.0671  1.2099
 1542TIP3   OH226040   3.134   1.022   5.882 -0.2969 -0.0853 -0.3442
 1542TIP3    H126041   3.196   0.981   5.943  0.2174 -1.4421 -1.7369
 1542TIP3    H226042   3.068   1.062   5.939  0.4288 -0.8673  1.1106
 1543TIP3   OH226043   3.501   0.332  12.008  0.0413  0.3928 -0.5318
 1543TIP3    H126044   3.579   0.389  12.010  0.6533 -0.4450  0.4906
 1543TIP3    H226045   3.501   0.294  11.920  1.7719 -0.8925 -0.0322
 1544TIP3   OH226046   1.771   2.285  11.462  0.1536 -0.1976  0.1403
 1544TIP3    H126047   1.860   2.259  11.482  0.0613 -0.4517  0.2230
 1544TIP3    H226048   1.735   2.212  11.411  0.5567  0.6616 -1.4199
 1545TIP3   OH226049   4.085   2.008   1.228 -0.7886  0.8532 -0.3050
 1545TIP3    H126050   4.069   2.059   1.307 -1.3175 -1.1547  0.9747
 1545TIP3    H226051   4.006   2.019   1.175 -1.3270  0.5648  0.4239
 1546TIP3   OH226052   0.261   2.365   0.749  0.1503  0.1639 -0.1439
 1546TIP3    H126053   0.351   2.377   0.718 -0.9300  1.0438 -3.2696
 1546TIP3    H226054   0.256   2.272   0.770  1.7839  0.1106  0.1755
 1547TIP3   OH226055   0.117   4.107  10.987  0.0781  0.6556 -0.1950
 1547TIP3    H126056   0.198   4.063  10.960 -1.0877 -1.4141 -0.5959
 1547TIP3    H226057   0.126   4.196  10.954  1.3718 -0.0566 -1.9736
 1548TIP3   OH226058   1.820   2.478   0.129  0.0050  0.7625 -0.0479
 1548TIP3    H126059   1.806   2.396   0.178 -0.6455  1.7661  1.5303
 1548TIP3    H226060   1.736   2.495   0.087 -0.4051  1.4664  1.0139
 1549TIP3   OH226061   6.405   4.838  12.599  0.2773 -0.1864  0.4400
 1549TIP3    H126062   6.322   4.803  12.565 -0.1332  0.3136  0.9085
 1549TIP3    H226063   6.394   4.836  12.694  0.4047  0.8248  0.4821
 1550TIP3   OH226064   5.924   1.160   0.174 -0.1621 -0.3163  0.0713
 1550TIP3    H126065   5.892   1.115   0.252  2.1362 -2.7783 -0.2890
 1550TIP3    H226066   6.017   1.138   0.169  0.2053  1.3416 -2.3357
 1551TIP3   OH226067   4.418   1.592  13.203  0.3296  0.0202  0.0441
 1551TIP3    H126068   4.486   1.567  13.140 -0.6334  0.0599 -1.0432
 1551TIP3    H226069   4.458   1.663  13.254  1.1244 -0.0029 -0.5175
 1552TIP3   OH226070   1.409   4.564  15.853  0.6165  0.4334 -0.0490
 1552TIP3    H126071   1.406   4.616  15.772 -1.8127 -0.9747 -0.9943
 1552TIP3    H226072   1.419   4.474  15.823  0.4691 -0.0523  1.2876
 1553TIP3   OH226073   5.881   3.679  13.567 -0.1972 -0.2463 -0.5152
 1553TIP3    H126074   5.793   3.706  13.592 -0.5140 -0.6081 -1.2155
 1553TIP3    H226075   5.870   3.595  13.522  0.5043 -0.3231 -0.5700
 1554TIP3   OH226076   4.589   5.252   5.336  0.4381  1.4983  0.1560
 1554TIP3    H126077   4.506   5.273   5.293  1.1853  3.4284 -0.4730
 1554TIP3    H226078   4.617   5.170   5.297 -1.2472  0.7372  0.5082
 1555TIP3   OH226079   5.702   3.653   4.757 -0.2225 -0.2282  0.5312
 1555TIP3    H126080   5.776   3.600   4.787  0.3556 -0.1488 -0.7252
 1555TIP3    H226081   5.739   3.712   4.692 -1.8174 -1.9322 -2.0906
 1556TIP3   OH226082   4.138   2.568  11.445 -0.5656  0.3345  0.6857
 1556TIP3    H126083   4.209   2.504  11.442 -0.6574  0.1654  1.6863
 1556TIP3    H226084   4.097   2.562  11.359 -0.0191 -0.3145  0.4561
 1557TIP3   OH226085   3.283   0.337  16.872 -0.4193  0.1990  0.2416
 1557TIP3    H126086   3.356   0.367  16.927 -0.9689  0.0453  1.0747
 1557TIP3    H226087   3.228   0.285  16.931 -0.0475 -1.6011 -0.9137
 1558TIP3   OH226088   4.374   5.643  11.521  0.7170 -0.2207 -0.0170
 1558TIP3    H126089   4.341   5.717  11.572 -0.4599 -0.4030 -0.4940
 1558TIP3    H226090   4.297   5.592  11.497  1.1265  0.1192 -2.3979
 1559TIP3   OH226091   1.047   0.781   4.942 -0.0463 -0.3190  0.2098
 1559TIP3    H126092   1.098   0.740   5.012  0.0350  0.1197  0.4178
 1559TIP3    H226093   0.972   0.819   4.987  0.3839  0.6038  0.1776
 1560TIP3   OH226094   6.297   6.676  13.971  0.3609 -0.1516  0.6650
 1560TIP3    H126095   6.376   6.726  13.952  0.4865 -0.7869 -0.5333
 1560TIP3    H226096   6.288   6.615  13.898 -1.4575  0.1688  0.5688
 1561TIP3   OH226097   3.612   0.310   4.960 -0.0024  0.4706 -0.6843
 1561TIP3    H126098   3.530   0.275   4.924  0.3257 -0.0073 -0.9738
 1561TIP3    H226099   3.615   0.277   5.050  0.4934 -0.5888 -1.0755
 1562TIP3   OH226100   5.477   5.097  12.864 -0.1127 -0.4147  0.5260
 1562TIP3    H126101   5.408   5.102  12.930 -0.1685  0.2496  0.4275
 1562TIP3    H226102   5.472   5.181  12.818  2.2660  0.6481  2.0443
 1563TIP3   OH226103   1.515   5.117  12.167 -0.2538 -0.4080 -0.0980
 1563TIP3    H126104   1.492   5.028  12.191 -0.1507 -0.5100 -0.3756
 1563TIP3    H226105   1.494   5.169  12.245 -2.6143 -0.2968 -0.7415
 1564TIP3   OH226106   2.443   3.688   2.566  0.0846  0.0734 -0.4891
 1564TIP3    H126107   2.482   3.689   2.654 -0.9514  0.1014 -0.0181
 1564TIP3    H226108   2.460   3.599   2.534 -0.2020 -0.1876  0.0587
 1565TIP3   OH226109   5.891   0.059   6.194  0.0641 -0.3369 -0.5688
 1565TIP3    H126110   5.946  -0.006   6.151  0.4515  0.2134 -0.9167
 1565TIP3    H226111   5.940   0.141   6.187  0.5413 -0.3686  1.6403
 1566TIP3   OH226112   5.368   5.022   5.577 -0.1476 -0.2147  0.0416
 1566TIP3    H126113   5.284   5.067   5.567 -0.7658 -1.1859  0.6268
 1566TIP3    H226114   5.349   4.931   5.552  0.9458 -0.2735 -0.6358
 1567TIP3   OH226115   3.806   2.979   4.695 -0.0432  0.2342  0.0358
 1567TIP3    H126116   3.715   2.958   4.716 -1.2775  3.2122 -1.7808
 1567TIP3    H226117   3.807   2.996   4.601  1.8263  2.6996  0.3941
 1568TIP3   OH226118   2.531   5.439   0.412 -0.0872  0.8182  0.1929
 1568TIP3    H126119   2.547   5.350   0.444 -0.6786  0.6814  0.1088
 1568TIP3    H226120   2.616   5.483   0.420  0.1674  0.2936  0.3837
 1569TIP3   OH226121   1.376   3.659  11.222 -0.3243 -0.9279  0.1077
 1569TIP3    H126122   1.335   3.586  11.270 -0.7306  0.2267  1.5618
 1569TIP3    H226123   1.301   3.710  11.190 -0.0446 -1.3250 -1.2382
 1570TIP3   OH226124   6.778   3.222   4.558 -0.0785  0.2004 -0.4898
 1570TIP3    H126125   6.724   3.287   4.603 -0.4767  0.7484 -1.7183
 1570TIP3    H226126   6.723   3.191   4.486  0.1178 -1.5003  0.0615
 1571TIP3   OH226127   1.051   2.003   4.919  0.5918 -0.2046 -0.3237
 1571TIP3    H126128   1.058   2.029   5.011 -0.3050  0.4064 -0.4222
 1571TIP3    H226129   0.998   2.071   4.878  1.0136 -0.4492 -1.3130
 1572TIP3   OH226130   2.118   3.985   5.813  0.3546 -0.7121 -0.2258
 1572TIP3    H126131   2.055   3.926   5.856  1.8665 -2.7011 -0.5789
 1572TIP3    H226132   2.196   3.981   5.868  1.3036 -0.9437 -1.5312
 1573TIP3   OH226133   0.234   3.623   5.551  0.0600  0.1516 -0.4249
 1573TIP3    H126134   0.293   3.696   5.531  0.8110 -0.6118 -1.0816
 1573TIP3    H226135   0.148   3.651   5.520  0.5534  0.3410 -1.6754
 1574TIP3   OH226136   3.615   4.984   4.892 -0.2476 -0.4541  0.5499
 1574TIP3    H126137   3.638   4.892   4.875  1.3436  0.0383 -0.1242
 1574TIP3    H226138   3.664   5.006   4.971  0.3828  0.1701 -0.0092
 1575TIP3   OH226139   0.186   1.968   5.817 -0.0246 -0.3048  0.4588
 1575TIP3    H126140   0.151   2.050   5.785  0.0062 -0.5835 -0.3188
 1575TIP3    H226141   0.111   1.923   5.856 -0.5450 -0.8640 -1.1165
 1576TIP3   OH226142   4.199   1.693  15.827  0.1396 -0.1622  0.9992
 1576TIP3    H126143   4.123   1.745  15.803  0.8407  1.2312  1.6609
 1576TIP3    H226144   4.228   1.729  15.911  1.1481 -1.0646  1.0647
 1577TIP3   OH226145   4.393   1.126   4.229  0.5613 -0.4805  0.0270
 1577TIP3    H126146   4.474   1.089   4.264 -0.6064 -2.3168  0.9993
 1577TIP3    H226147   4.333   1.052   4.226 -1.2682  0.9386 -0.1114
 1578TIP3   OH226148   0.013   4.104  15.828 -0.3800  0.3631  0.0106
 1578TIP3    H126149  -0.017   4.013  15.823 -2.6433  0.8848  2.0594
 1578TIP3    H226150   0.083   4.102  15.893 -1.9058  0.3034  1.7557
 1579TIP3   OH226151   2.564   5.209   5.066  0.0361  0.5108 -0.3318
 1579TIP3    H126152   2.559   5.294   5.110  0.2181  0.8644 -0.9882
 1579TIP3    H226153   2.482   5.204   5.016  1.0500  1.3504 -2.1537
 1580TIP3   OH226154   0.749   4.849  17.193 -0.0233  0.2353 -0.1146
 1580TIP3    H126155   0.695   4.927  17.181  0.3921  0.8062  1.5277
 1580TIP3    H226156   0.686   4.776  17.196 -0.7649  0.9002  1.9240
 1581TIP3   OH226157   4.353   2.599  14.692 -0.2088  0.8280  0.4247
 1581TIP3    H126158   4.303   2.620  14.771 -1.0439  0.0555  0.1147
 1581TIP3    H226159   4.322   2.661  14.626 -3.6229 -1.8859 -0.8710
 1582TIP3   OH226160   1.310   6.345   5.293 -0.0117  0.0278  0.1653
 1582TIP3    H126161   1.390   6.344   5.346 -1.0229  0.2815  1.7886
 1582TIP3    H226162   1.340   6.347   5.203  1.8406  2.3247  0.7509
 1583TIP3   OH226163   0.321   3.419   1.451  0.1290  0.2770  0.6643
 1583TIP3    H126164   0.364   3.483   1.394  0.1388 -0.2870  0.0246
 1583TIP3    H226165   0.272   3.472   1.514 -0.8192  0.9160 -0.5795
 1584TIP3   OH226166   5.778   3.724  15.354 -0.6087  0.2689  0.0176
 1584TIP3    H126167   5.843   3.681  15.409 -1.0480 -0.1428  0.2155
 1584TIP3    H226168   5.769   3.667  15.278 -0.1877  0.7110 -0.3746
 1585TIP3   OH226169   4.879   1.195   3.419 -0.6008  0.2693  0.3643
 1585TIP3    H126170   4.886   1.289   3.438  0.0443  0.3092 -0.0391
 1585TIP3    H226171   4.943   1.154   3.477 -0.9127  0.0705  0.5718
 1586TIP3   OH226172   3.899   3.218   0.811 -0.0538  0.0755  0.1946
 1586TIP3    H126173   3.863   3.131   0.825 -1.0217  0.1253 -1.6932
 1586TIP3    H226174   3.823   3.273   0.792  0.6569  1.0753  0.1275
 1587TIP3   OH226175   6.776   2.186   2.881 -0.3013 -0.1045  0.1240
 1587TIP3    H126176   6.737   2.158   2.964 -0.4815  0.1587  0.1301
 1587TIP3    H226177   6.774   2.281   2.885  2.6020 -0.0002  1.1937
 1588TIP3   OH226178   1.019   3.423  12.097 -0.4412  0.2870  0.3216
 1588TIP3    H126179   1.043   3.393  12.185  1.6050 -0.3303 -0.3849
 1588TIP3    H226180   1.035   3.347  12.041 -1.4458  0.7586 -0.6434
 1589TIP3   OH226181   4.678   2.554   5.934  0.2942  0.4668  0.1985
 1589TIP3    H126182   4.619   2.539   6.009 -0.2405  0.6741 -0.1732
 1589TIP3    H226183   4.705   2.466   5.907 -1.5157  0.1868 -0.9322
 1590TIP3   OH226184   3.009   1.968  10.587  0.1876  0.6068  0.5897
 1590TIP3    H126185   2.991   2.048  10.635 -3.0890  0.1823  0.3017
 1590TIP3    H226186   2.962   1.900  10.635  0.3378 -0.5795 -0.8673
 1591TIP3   OH226187   2.730   6.321   2.374  0.1654 -0.0902 -0.6248
 1591TIP3    H126188   2.725   6.406   2.419  0.4396 -0.2435 -0.2949
 1591TIP3    H226189   2.666   6.327   2.303 -3.2771 -1.2344  2.0972
 1592TIP3   OH226190   6.344   5.058   1.370  0.1605  0.6062  0.0531
 1592TIP3    H126191   6.439   5.058   1.354  0.4708  1.5683  1.6792
 1592TIP3    H226192   6.324   4.968   1.396  0.8854  0.6752  0.9308
 1593TIP3   OH226193   4.665   0.629   6.153  0.8799 -0.3364  0.1567
 1593TIP3    H126194   4.709   0.710   6.181  0.4255  0.1555 -0.5100
 1593TIP3    H226195   4.585   0.660   6.111  0.5031 -1.1639  0.2545
 1594TIP3   OH226196   5.313   5.034  16.415  0.3370  0.3799 -0.1474
 1594TIP3    H126197   5.402   5.003  16.429 -0.8124 -2.8035  1.1656
 1594TIP3    H226198   5.301   5.030  16.320  1.3096 -0.0033 -0.2659
 1595TIP3   OH226199   2.057   2.135  10.745  0.2660  0.3971  0.7996
 1595TIP3    H126200   2.129   2.114  10.687  1.2982  0.8291  1.8709
 1595TIP3    H226201   2.089   2.210  10.797 -1.7641  2.0557 -0.1851
 1596TIP3   OH226202   3.159   4.581  12.868  0.1166 -0.2758  0.1206
 1596TIP3    H126203   3.080   4.618  12.908 -1.3950 -1.5846 -1.4808
 1596TIP3    H226204   3.197   4.526  12.936  0.9012  1.9787  1.6175
 1597TIP3   OH226205   2.364   2.373  13.943  0.1842  0.0084 -0.3279
 1597TIP3    H126206   2.283   2.341  13.904  0.3478 -1.8793  0.7665
 1597TIP3    H226207   2.348   2.374  14.037  1.0171  0.8906 -0.1666
 1598TIP3   OH226208   0.123   3.516  12.998  0.3402 -0.1753  0.1376
 1598TIP3    H126209   0.091   3.570  12.926  3.8544  1.0080 -0.6929
 1598TIP3    H226210   0.201   3.561  13.030  0.0598 -1.7109  3.4173
 1599TIP3   OH226211   4.340   4.908   4.138 -0.1387  0.2293  0.5417
 1599TIP3    H126212   4.368   4.931   4.050 -1.4409 -1.3890 -0.3428
 1599TIP3    H226213   4.369   4.982   4.192  2.2465  0.4487 -0.8957
 1600TIP3   OH226214   1.281   5.700  11.778  0.5932  0.2730  0.0065
 1600TIP3    H126215   1.349   5.758  11.741  1.4572 -1.1007 -0.6246
 1600TIP3    H226216   1.319   5.670  11.861 -0.1128  1.0660  0.6297
 1601TIP3   OH226217   3.729   5.833   3.421  0.3281  0.2310 -0.0661
 1601TIP3    H126218   3.809   5.854   3.468  0.1120  0.6738  0.1127
 1601TIP3    H226219   3.663   5.890   3.461  0.3988  1.5736 -1.7735
 1602TIP3   OH226220   3.674   4.622   5.556 -0.6431 -0.4499  0.3482
 1602TIP3    H126221   3.639   4.673   5.483  1.1870 -0.5425 -0.6557
 1602TIP3    H226222   3.701   4.539   5.516  0.1394 -0.6139  1.1820
 1603TIP3   OH226223   0.265   2.413   4.919  0.2210 -0.5174  0.4809
 1603TIP3    H126224   0.244   2.494   4.872  1.6792  0.2319  1.0421
 1603TIP3    H226225   0.191   2.398   4.978  0.0829  0.5921  0.5982
 1604TIP3   OH226226   2.891   3.138   4.333 -0.7739 -0.2242  0.3099
 1604TIP3    H126227   2.924   3.080   4.402 -0.4654  0.0052  0.3552
 1604TIP3    H226228   2.932   3.222   4.352 -3.8392  0.9871  2.3613
 1605TIP3   OH226229   6.045   2.833  14.035 -0.0474  0.3257 -0.5275
 1605TIP3    H126230   6.091   2.869  14.111 -2.3335  1.6835  0.3218
 1605TIP3    H226231   6.086   2.747  14.021  1.8077  0.8843  0.9371
 1606TIP3   OH226232   6.399   5.380   2.829 -0.7323  0.0455 -0.4878
 1606TIP3    H126233   6.420   5.430   2.908 -1.0440  1.1661 -1.0876
 1606TIP3    H226234   6.466   5.312   2.825  1.5348  2.1551 -1.1520
 1607TIP3   OH226235   0.334   1.594   1.373 -0.4220 -0.1012  0.2406
 1607TIP3    H126236   0.258   1.652   1.366  0.6445  2.2283  4.6307
 1607TIP3    H226237   0.404   1.640   1.326 -0.5877  0.0671  0.1592
 1608TIP3   OH226238   4.456   4.505   5.580 -0.4158 -0.0121  0.4665
 1608TIP3    H126239   4.379   4.471   5.627  0.4118 -1.3786  0.8810
 1608TIP3    H226240   4.531   4.473   5.629  0.4481  1.6288  0.2865
 1609TIP3   OH226241   0.039   5.291  15.347 -0.0609 -0.0911 -0.1300
 1609TIP3    H126242   0.097   5.217  15.331 -0.3240 -0.7293  1.6637
 1609TIP3    H226243   0.085   5.345  15.411  0.2900  1.5532 -1.6753
 1610TIP3   OH226244   2.448   1.094  15.132 -0.1912 -0.5761  0.1561
 1610TIP3    H126245   2.405   1.144  15.063 -0.2467  0.2128  0.7403
 1610TIP3    H226246   2.524   1.054  15.090  1.0732  1.7072  0.1029
 1611TIP3   OH226247   3.445   2.688  12.542 -0.9143  0.3114 -0.0074
 1611TIP3    H126248   3.425   2.614  12.485  0.8606  0.8346 -1.3787
 1611TIP3    H226249   3.418   2.765  12.491 -0.6310  0.7203  0.4514
 1612TIP3   OH226250   5.504   0.621  13.493 -0.1326  0.5316 -0.5096
 1612TIP3    H126251   5.561   0.683  13.537 -1.5452  1.9935 -0.6514
 1612TIP3    H226252   5.547   0.603  13.409  0.6863  0.6642 -0.1283
 1613TIP3   OH226253   4.915   1.447   6.078 -0.2855 -0.1953  0.5210
 1613TIP3    H126254   4.946   1.443   6.168  0.3609  2.1239  0.4732
 1613TIP3    H226255   4.825   1.482   6.085  0.0961  0.8912  0.2644
 1614TIP3   OH226256   1.631   2.619   5.488 -0.1293  0.3642 -0.6590
 1614TIP3    H126257   1.587   2.544   5.528 -0.1157  1.7844  2.2510
 1614TIP3    H226258   1.618   2.607   5.394 -2.6991 -1.7036 -0.1523
 1615TIP3   OH226259   0.466   2.065   5.287 -0.3684 -0.1762  0.0530
 1615TIP3    H126260   0.379   2.025   5.279  0.3940 -1.6164 -1.4297
 1615TIP3    H226261   0.504   2.025   5.365 -1.0846  0.6379  0.8509
 1616TIP3   OH226262   5.610   2.344  14.653  0.0759 -0.4117 -0.6337
 1616TIP3    H126263   5.542   2.376  14.712  0.4931 -0.7279  0.0259
 1616TIP3    H226264   5.633   2.420  14.600  1.1267  0.4494  0.9787
 1617TIP3   OH226265   3.591   6.729   0.742 -0.5573 -0.0038  0.0463
 1617TIP3    H126266   3.669   6.707   0.793 -0.4957  0.2573  0.0630
 1617TIP3    H226267   3.522   6.673   0.779 -0.4487 -0.0191  0.2288
 1618TIP3   OH226268   5.262   2.791  16.847  0.4185  0.4335  0.1189
 1618TIP3    H126269   5.311   2.851  16.791  1.4811 -1.2605 -0.8129
 1618TIP3    H226270   5.305   2.706  16.836 -1.3019 -0.6161  1.0758
 1619TIP3   OH226271   5.450   1.182  12.464  0.4855 -0.5569  0.1271
 1619TIP3    H126272   5.539   1.153  12.487  1.0113  1.5239  0.8976
 1619TIP3    H226273   5.398   1.164  12.542  0.7619  0.3116  0.5225
 1620TIP3   OH226274   4.600   4.287  16.345 -0.6230  0.0559  0.0740
 1620TIP3    H126275   4.602   4.379  16.370 -0.0633  0.0527  0.0600
 1620TIP3    H226276   4.621   4.240  16.426  0.3271  0.0059 -0.1834
 1621TIP3   OH226277   4.109   1.375   0.389 -0.8803  0.0471  0.0524
 1621TIP3    H126278   4.179   1.433   0.359 -1.0924 -0.6131 -1.8320
 1621TIP3    H226279   4.139   1.343   0.474  2.5051 -2.4084 -1.8506
 1622TIP3   OH226280   4.202   4.438   6.474  0.3055 -0.2412 -0.2005
 1622TIP3    H126281   4.274   4.430   6.536  0.6216  3.1010  0.0193
 1622TIP3    H226282   4.124   4.449   6.528 -0.0298 -1.2889 -0.4441
 1623TIP3   OH226283   0.358   6.263   6.088  0.1380 -0.6544 -0.2165
 1623TIP3    H126284   0.265   6.268   6.112  0.7070 -0.8404  2.3060
 1623TIP3    H226285   0.377   6.169   6.090  0.7117 -0.5308  0.8432
 1624TIP3   OH226286   4.625   2.803  13.141 -0.0683  0.0092 -0.1416
 1624TIP3    H126287   4.573   2.742  13.089 -0.2048  1.3649 -1.6570
 1624TIP3    H226288   4.713   2.765  13.141  0.0572  0.2159 -1.8350
 1625TIP3   OH226289   1.270   5.638  12.389  0.0365 -0.2514  0.0516
 1625TIP3    H126290   1.253   5.673  12.302 -2.0282 -0.3745  0.3529
 1625TIP3    H226291   1.209   5.565  12.399  0.4806 -0.4695  1.4656
 1626TIP3   OH226292   3.887   4.557  16.894  0.4346 -0.1946 -0.3626
 1626TIP3    H126293   3.916   4.630  16.949 -1.6312 -0.2740  0.9461
 1626TIP3    H226294   3.908   4.479  16.944 -0.7373 -0.3003  0.0135
 1627TIP3   OH226295   4.209   0.620  12.502  0.0256  0.5049  0.5255
 1627TIP3    H126296   4.135   0.679  12.519 -0.1441  0.8079 -1.0968
 1627TIP3    H226297   4.286   0.677  12.504  0.2447  0.2102  2.0892
 1628TIP3   OH226298   0.146   4.290  12.691  0.3038 -0.1761 -0.1905
 1628TIP3    H126299   0.194   4.330  12.763  0.0843  1.3296 -0.8549
 1628TIP3    H226300   0.215   4.254  12.634  0.5514  0.1113 -0.0770
 1629TIP3   OH226301   2.485   5.385   1.227  0.3225 -0.1752 -0.3074
 1629TIP3    H126302   2.408   5.346   1.185 -1.5750  2.3868  0.4964
 1629TIP3    H226303   2.479   5.358   1.319 -0.2153  0.7912 -0.0419
 1630TIP3   OH226304   0.182   6.692   6.662 -0.4084  0.3001 -0.0720
 1630TIP3    H126305   0.267   6.700   6.705 -0.0583  1.9207 -0.9969
 1630TIP3    H226306   0.121   6.738   6.719 -0.5017 -0.1094  0.1585
 1631TIP3   OH226307   1.861   3.598   3.595  0.3490  0.4697 -0.5413
 1631TIP3    H126308   1.815   3.514   3.589  1.7150 -0.5008  1.4452
 1631TIP3    H226309   1.935   3.589   3.535  1.6012 -0.5963  1.0606
 1632TIP3   OH226310   4.459   5.543  17.039 -0.1145  0.0805 -0.5206
 1632TIP3    H126311   4.499   5.545  16.951 -1.5849  0.8463 -1.2033
 1632TIP3    H226312   4.484   5.458  17.074  3.6074  1.1524 -0.1438
 1633TIP3   OH226313   4.214   1.013  12.983 -0.1489  0.0758 -0.0310
 1633TIP3    H126314   4.200   1.096  13.027 -0.7406  0.6222 -1.2051
 1633TIP3    H226315   4.131   0.966  12.993  0.5558 -0.9110  1.6558
 1634TIP3   OH226316   1.494   2.424   5.299 -0.0316  0.1752 -0.0052
 1634TIP3    H126317   1.417   2.433   5.244 -0.3689 -4.2202 -0.6324
 1634TIP3    H226318   1.462   2.437   5.388 -1.0852  0.3003 -0.3880
 1635TIP3   OH226319   2.417   4.338  14.311 -0.9553  0.0760  0.4395
 1635TIP3    H126320   2.352   4.396  14.350  0.3608  2.1329 -0.3163
 1635TIP3    H226321   2.498   4.357  14.358 -0.6320 -1.7384  0.6965
 1636TIP3   OH226322   0.189   4.327  16.589  0.2973  0.4690  0.1351
 1636TIP3    H126323   0.204   4.378  16.669 -1.9218  1.5355 -0.0558
 1636TIP3    H226324   0.234   4.244  16.605  1.5597  1.3777  1.6634
 1637TIP3   OH226325   5.049   2.039   0.749  0.3853  0.1549  0.4054
 1637TIP3    H126326   5.048   2.093   0.828  0.5324 -0.8657  1.1255
 1637TIP3    H226327   4.999   1.960   0.774 -0.7906  0.4274 -0.9685
 1638TIP3   OH226328   6.021   0.739   2.658 -0.0183  0.3810 -0.0968
 1638TIP3    H126329   6.111   0.771   2.661  0.2203 -0.2895  0.0079
 1638TIP3    H226330   5.998   0.725   2.750 -0.3486  0.8612 -0.1000
 1639TIP3   OH226331   4.430   0.721   0.815 -0.3551  0.6247  0.4839
 1639TIP3    H126332   4.344   0.763   0.811 -0.6423  0.0169  0.1693
 1639TIP3    H226333   4.482   0.768   0.749 -0.8398  0.1284 -0.2630
 1640TIP3   OH226334   3.911   1.166   3.990  0.3005  0.2049  0.0033
 1640TIP3    H126335   3.888   1.199   4.077  2.5037  1.2427  0.2571
 1640TIP3    H226336   4.004   1.143   3.997  0.0239 -1.6265 -1.5363
 1641TIP3   OH226337   0.249   4.471   2.543 -0.1942  0.1064 -0.1957
 1641TIP3    H126338   0.306   4.397   2.522  0.0232 -0.0549  0.9149
 1641TIP3    H226339   0.194   4.440   2.615 -0.1512  0.9963  0.2382
 1642TIP3   OH226340   2.948   5.818  12.160 -0.8691  1.1046 -0.0184
 1642TIP3    H126341   2.938   5.799  12.253  0.4209 -0.8176 -0.2300
 1642TIP3    H226342   2.884   5.762  12.117 -0.8922  1.3751 -0.3430
 1643TIP3   OH226343   0.203   5.500  16.136 -0.0711 -0.5166 -0.1044
 1643TIP3    H126344   0.121   5.547  16.149  0.7953  0.9902  0.1997
 1643TIP3    H226345   0.178   5.420  16.091 -1.4693  1.0246 -2.2983
 1644TIP3   OH226346   0.348   1.432  12.029 -0.3333  0.6075  0.3324
 1644TIP3    H126347   0.361   1.513  12.080  3.6210 -1.1041  2.4934
 1644TIP3    H226348   0.312   1.370  12.092 -0.9140 -0.0693 -0.6345
 1645TIP3   OH226349   3.843   2.281   6.050  0.1985  0.0064  0.3241
 1645TIP3    H126350   3.899   2.215   6.009 -1.1279 -1.0554  0.1605
 1645TIP3    H226351   3.846   2.260   6.143  1.1035  0.7880  0.4947
 1646TIP3   OH226352   2.393   5.172  12.700  0.2465  0.1625 -0.3618
 1646TIP3    H126353   2.342   5.090  12.698  0.9041 -0.2503 -0.5981
 1646TIP3    H226354   2.392   5.198  12.792 -0.3004  0.1041 -0.3475
 1647TIP3   OH226355   1.162   4.670  14.110  0.2453  0.1973 -0.0066
 1647TIP3    H126356   1.246   4.712  14.092 -0.0862  0.5988 -0.6217
 1647TIP3    H226357   1.112   4.678  14.029 -0.3825 -0.0585  0.3439
 1648TIP3   OH226358   3.169   1.700   0.471  0.1763 -0.2059  0.1120
 1648TIP3    H126359   3.199   1.630   0.529 -0.0704 -0.8118 -0.4833
 1648TIP3    H226360   3.246   1.756   0.460  1.2697 -1.8765 -1.6011
 1649TIP3   OH226361   3.011   3.094  13.659 -0.5450 -0.3772 -0.4438
 1649TIP3    H126362   3.084   3.075  13.719 -0.5452  1.6321  0.2446
 1649TIP3    H226363   2.984   3.008  13.627  1.9630 -1.2098 -0.5410
 1650TIP3   OH226364   1.315   2.439   5.515 -0.1812  0.0792 -0.3137
 1650TIP3    H126365   1.225   2.405   5.515 -0.3251  0.3883 -1.9181
 1650TIP3    H226366   1.355   2.400   5.594 -1.6322 -0.2551  0.2936
 1651TIP3   OH226367   5.327   3.425  12.751 -0.2121 -0.2029 -0.2651
 1651TIP3    H126368   5.359   3.404  12.838 -0.8429 -2.1349 -0.4710
 1651TIP3    H226369   5.233   3.442  12.763 -0.2620 -0.2866 -0.5336
 1652TIP3   OH226370   5.635   4.040  14.427  0.2889  0.4057 -0.2444
 1652TIP3    H126371   5.646   4.002  14.515 -0.0327  0.8085 -0.0268
 1652TIP3    H226372   5.540   4.035  14.411  0.4114 -0.2344 -0.8283
 1653TIP3   OH226373   6.120   4.816  16.594 -0.3169 -0.1958 -0.1327
 1653TIP3    H126374   6.157   4.808  16.682 -1.4073  0.2747  0.3846
 1653TIP3    H226375   6.145   4.903  16.565 -0.1068 -0.2861 -0.2295
 1654TIP3   OH226376   3.377   1.867   2.940  0.6220  0.4432 -0.0585
 1654TIP3    H126377   3.435   1.885   2.866 -0.3012  0.7417 -0.7268
 1654TIP3    H226378   3.360   1.773   2.935 -0.3126  0.6413 -0.9010
 1655TIP3   OH226379   2.260   6.713   4.609 -0.4350 -0.0966 -0.6232
 1655TIP3    H126380   2.215   6.628   4.604  0.1670 -0.3563 -3.4506
 1655TIP3    H226381   2.290   6.729   4.520  0.9581  2.3250  0.1935
 1656TIP3   OH226382   5.501   2.107  11.476 -0.0377  0.3210 -0.3700
 1656TIP3    H126383   5.492   2.089  11.382 -0.3909  0.3354 -0.3388
 1656TIP3    H226384   5.462   2.032  11.519 -1.0862  0.9239 -0.2382
 1657TIP3   OH226385   6.221   3.025   5.235  0.1093 -0.5707  0.1578
 1657TIP3    H126386   6.129   3.022   5.207 -0.1749 -0.0408  0.9891
 1657TIP3    H226387   6.264   3.082   5.171 -1.0420  2.7204  2.0654
 1658TIP3   OH226388   6.249   5.834   3.257 -0.0244 -0.2239  0.2072
 1658TIP3    H126389   6.207   5.918   3.238 -1.9004 -0.7441  1.7397
 1658TIP3    H226390   6.312   5.854   3.326  0.4407  0.1238 -0.3087
 1659TIP3   OH226391   4.503   2.990  13.302 -0.5703  0.1540 -0.1177
 1659TIP3    H126392   4.422   3.030  13.268  0.3960  1.6247 -0.8197
 1659TIP3    H226393   4.537   2.940  13.228 -1.3694 -1.4011  0.5205
 1660TIP3   OH226394   3.636   1.956   1.442 -0.4585  0.0888  0.4051
 1660TIP3    H126395   3.639   1.901   1.364 -1.0737 -0.5383  0.8143
 1660TIP3    H226396   3.725   1.956   1.476 -0.6609 -1.5633  1.0079
 1661TIP3   OH226397   4.184   6.483  14.110  0.3292  0.3159 -0.1491
 1661TIP3    H126398   4.214   6.422  14.043 -0.6372  0.1396 -0.4410
 1661TIP3    H226399   4.227   6.566  14.087 -0.9331  0.5883 -1.7702
 1662TIP3   OH226400   0.873   2.268   1.593  0.5922 -0.6171  0.5467
 1662TIP3    H126401   0.856   2.338   1.531 -0.4716 -0.5376  0.9039
 1662TIP3    H226402   0.968   2.260   1.596  0.6853  0.1804 -0.1908
 1663TIP3   OH226403   1.007   4.997   2.849 -0.7300 -0.7258 -0.0758
 1663TIP3    H126404   0.928   5.006   2.903 -1.8855 -0.0946 -1.7591
 1663TIP3    H226405   1.070   5.057   2.888 -0.9151 -1.5331  1.5445
 1664TIP3   OH226406   0.410   3.044  15.149  0.1916  0.3257 -0.4099
 1664TIP3    H126407   0.362   3.105  15.205  0.7728 -0.2554  0.7528
 1664TIP3    H226408   0.354   3.034  15.071 -1.7418 -0.5554  1.0076
 1665TIP3   OH226409   6.465   2.701   1.936  0.3359 -0.0347 -0.2919
 1665TIP3    H126410   6.429   2.684   2.023 -1.9579  0.8236 -0.9942
 1665TIP3    H226411   6.537   2.640   1.928  0.5008 -0.2824  2.1335
 1666TIP3   OH226412   6.725   3.516  11.962 -0.9402 -0.0205 -0.8482
 1666TIP3    H126413   6.815   3.500  11.992 -1.3708 -0.7106  0.1450
 1666TIP3    H226414   6.732   3.592  11.905 -0.2141  2.1407  1.9124
 1667TIP3   OH226415   0.873   4.276  14.951  0.6599  0.5945 -0.1481
 1667TIP3    H126416   0.793   4.312  14.990  1.3109  0.2814  1.5263
 1667TIP3    H226417   0.841   4.214  14.885 -0.4656  1.9179 -0.9178
 1668TIP3   OH226418   3.921   0.333   3.472  0.3614 -0.7674  0.4133
 1668TIP3    H126419   4.015   0.316   3.467  0.2382 -1.2730 -0.4079
 1668TIP3    H226420   3.885   0.257   3.517  0.2000 -1.1912 -0.4117
 1669TIP3   OH226421   0.446   1.429  11.116  0.0866  0.1171  0.5664
 1669TIP3    H126422   0.434   1.476  11.034  0.7962 -0.7009 -0.0190
 1669TIP3    H226423   0.357   1.417  11.150 -0.3501 -0.7735 -0.8012
 1670TIP3   OH226424   2.068   2.469  11.650  0.1701 -0.7250  0.0887
 1670TIP3    H126425   2.028   2.384  11.669  1.4374 -1.0719  1.4228
 1670TIP3    H226426   2.047   2.486  11.558 -3.6681 -0.4492  0.8581
 1671TIP3   OH226427   4.033   3.990  15.189 -0.2384 -0.1404  0.5730
 1671TIP3    H126428   4.063   3.899  15.186 -2.7626 -1.0752  1.0958
 1671TIP3    H226429   4.033   4.012  15.282 -0.4910  0.0853  0.5219
 1672TIP3   OH226430   4.479   3.325   3.978  0.1457 -0.1235  0.3724
 1672TIP3    H126431   4.442   3.306   4.064  0.7842 -1.0695  0.4602
 1672TIP3    H226432   4.403   3.335   3.920 -0.2820  0.4596  1.0265
 1673TIP3   OH226433   4.792   1.520  14.553  0.3849 -0.3147  0.6444
 1673TIP3    H126434   4.718   1.529  14.614 -1.8229  0.7038 -1.9855
 1673TIP3    H226435   4.831   1.435  14.574 -0.2663 -0.0280  3.3840
 1674TIP3   OH226436   2.289   0.124   4.831 -0.3388 -0.2383 -0.0801
 1674TIP3    H126437   2.284   0.036   4.793 -1.4889  0.0333 -0.6052
 1674TIP3    H226438   2.272   0.111   4.924 -0.5617 -0.5727 -0.1637
 1675TIP3   OH226439   0.797   0.611  12.351 -0.1732  0.5734 -0.0575
 1675TIP3    H126440   0.741   0.621  12.274  0.9929 -1.1561 -1.1970
 1675TIP3    H226441   0.751   0.549  12.407  0.6907 -1.1576 -1.1728
 1676TIP3   OH226442   3.723   3.140  15.637 -0.7960 -0.8382  0.4141
 1676TIP3    H126443   3.734   3.063  15.581 -1.3439 -1.2650  0.8916
 1676TIP3    H226444   3.735   3.215  15.578 -2.6384 -1.2638 -0.5451
 1677TIP3   OH226445   0.522   2.275   5.971  0.1021 -0.5083  0.3796
 1677TIP3    H126446   0.495   2.184   5.954 -0.7249 -0.1699 -0.1802
 1677TIP3    H226447   0.514   2.285   6.066 -0.2041 -0.8986  0.3987
 1678TIP3   OH226448   2.939   3.950   4.076 -0.4564 -0.1579 -0.6383
 1678TIP3    H126449   2.957   4.004   4.153  0.0749  0.8703 -1.4472
 1678TIP3    H226450   2.871   3.890   4.104  0.0437 -0.1122  0.7703
 1679TIP3   OH226451   5.233   2.941   4.340 -0.1544  0.5209 -0.0818
 1679TIP3    H126452   5.163   3.006   4.343 -1.0436 -0.4241  0.9283
 1679TIP3    H226453   5.220   2.889   4.420  2.0135  0.6257  0.3987
 1680TIP3   OH226454   4.610   6.126   4.932 -0.3886  0.8522  0.3015
 1680TIP3    H126455   4.531   6.098   4.978 -0.2664  1.0891  0.6595
 1680TIP3    H226456   4.578   6.168   4.853 -0.5703 -0.9367 -0.6316
 1681TIP3   OH226457   3.723   1.596  14.184  0.2787  0.5545  0.5454
 1681TIP3    H126458   3.700   1.514  14.140  0.5549  0.1516  1.1385
 1681TIP3    H226459   3.786   1.639  14.126 -1.2170  1.2273 -0.6520
 1682TIP3   OH226460   3.828   3.131  15.122 -0.6778 -0.7063 -0.5820
 1682TIP3    H126461   3.811   3.080  15.043  0.3463 -2.9496  0.5654
 1682TIP3    H226462   3.887   3.077  15.174  0.0576  1.4437  0.9820
 1683TIP3   OH226463   5.991   5.804   2.405  0.1039 -0.3335  0.4488
 1683TIP3    H126464   6.049   5.872   2.440  0.8616 -0.6562 -0.1742
 1683TIP3    H226465   5.969   5.750   2.481 -0.5786  0.6356  0.9724
 1684TIP3   OH226466   5.854   2.350   5.288 -0.5802 -0.5090  0.2456
 1684TIP3    H126467   5.871   2.348   5.194 -1.8698 -1.7611  0.0196
 1684TIP3    H226468   5.940   2.369   5.327 -0.2461  1.2994 -1.1973
 1685TIP3   OH226469   5.912   6.565  11.486 -0.2665 -0.0152 -0.1481
 1685TIP3    H126470   5.922   6.489  11.430 -1.8031  2.1616 -3.6932
 1685TIP3    H226471   5.827   6.552  11.529 -0.1627 -0.6259 -0.1199
 1686TIP3   OH226472   2.543   4.216   5.318  0.1805 -0.2461  0.5661
 1686TIP3    H126473   2.503   4.141   5.274  0.6536 -0.2046  0.0478
 1686TIP3    H226474   2.602   4.253   5.252 -1.4852  1.7653  0.1113
 1687TIP3   OH226475   5.090   0.110   2.486  0.4757  0.4940  0.2848
 1687TIP3    H126476   5.118   0.096   2.577  0.1456 -0.7105  0.2211
 1687TIP3    H226477   5.111   0.027   2.442  2.0460  1.5823 -1.1102
 1688TIP3   OH226478   0.897   4.099  12.349 -0.4544 -0.1507  0.1356
 1688TIP3    H126479   0.922   4.154  12.276 -1.7395 -0.3033 -0.4504
 1688TIP3    H226480   0.952   4.021  12.341  0.3462  0.4029  0.1323
 1689TIP3   OH226481   2.277   4.323  15.125  0.1013 -0.5814 -0.0474
 1689TIP3    H126482   2.195   4.323  15.173  0.6512 -0.7365  0.9186
 1689TIP3    H226483   2.345   4.317  15.193  0.8914 -0.9299 -0.8454
 1690TIP3   OH226484   3.472   3.550   0.707  0.3978  0.1337  0.8744
 1690TIP3    H126485   3.489   3.597   0.788  1.2093 -0.0049  0.7872
 1690TIP3    H226486   3.489   3.613   0.637 -1.1771  0.5386  0.8032
 1691TIP3   OH226487   4.827   0.367  16.044 -0.1169  0.1653 -0.2552
 1691TIP3    H126488   4.804   0.405  16.128 -1.9378  1.1141 -1.1260
 1691TIP3    H226489   4.764   0.296  16.030  0.4638 -0.2959 -0.6187
 1692TIP3   OH226490   4.189   6.182  15.624  0.2185  0.0875 -0.4162
 1692TIP3    H126491   4.222   6.161  15.712  2.8227 -0.5518 -1.4750
 1692TIP3    H226492   4.266   6.211  15.575 -1.4259  1.8905 -2.1246
 1693TIP3   OH226493   5.857   5.709  10.809  0.0070  0.6058 -0.1035
 1693TIP3    H126494   5.810   5.634  10.847 -0.0335  0.1476 -1.0341
 1693TIP3    H226495   5.943   5.707  10.851 -0.3514  0.6597  0.6419
 1694TIP3   OH226496   1.186   3.565   4.179 -0.0336 -0.2354  0.0309
 1694TIP3    H126497   1.261   3.616   4.210  0.3353  0.1944 -1.4499
 1694TIP3    H226498   1.140   3.538   4.258  0.2912  1.6115  0.8925
 1695TIP3   OH226499   4.659   3.683   6.171  0.3872 -0.1337 -0.0508
 1695TIP3    H126500   4.661   3.720   6.259  0.2159 -1.0898  0.3653
 1695TIP3    H226501   4.751   3.666   6.150  0.4651  0.4829 -0.2355
 1696TIP3   OH226502   1.318   1.255  14.858  0.5294  0.2068 -0.3162
 1696TIP3    H126503   1.233   1.296  14.840 -0.3400  0.5056  3.4864
 1696TIP3    H226504   1.296   1.171  14.898  1.7971  1.1486  2.6555
 1697TIP3   OH226505   5.901   3.079   5.772 -0.1740 -0.7959  0.4031
 1697TIP3    H126506   5.814   3.087   5.734  0.3049 -0.1647 -0.6200
 1697TIP3    H226507   5.887   3.036   5.856 -1.4625 -0.7257  0.2451
 1698TIP3   OH226508   6.642   1.544   0.481  0.1959  0.0671 -0.4108
 1698TIP3    H126509   6.586   1.509   0.550  0.3835 -0.5582 -0.5641
 1698TIP3    H226510   6.582   1.579   0.416 -0.0047 -0.0844 -0.3079
 1699TIP3   OH226511   3.806   1.834  13.044  0.0785  0.2039  0.1165
 1699TIP3    H126512   3.733   1.826  13.106  1.3821 -0.9452  1.5611
 1699TIP3    H226513   3.878   1.869  13.096  0.8396  0.5077 -1.0904
 1700TIP3   OH226514   3.595   6.047  17.073 -0.5538 -0.2501  0.5542
 1700TIP3    H126515   3.504   6.066  17.051 -0.8668 -1.9501  0.2435
 1700TIP3    H226516   3.593   6.026  17.166 -0.2105  1.1364  0.8967
 1701TIP3   OH226517   1.657   1.102  14.736 -0.0993 -0.0652 -0.1225
 1701TIP3    H126518   1.728   1.124  14.676  1.3079  0.1520  1.5435
 1701TIP3    H226519   1.578   1.133  14.691  1.0332  1.3630 -1.2520
 1702TIP3   OH226520   2.416   2.313  17.043  0.5611  0.5418 -0.0964
 1702TIP3    H126521   2.456   2.393  17.009  1.1164  0.1033 -0.4861
 1702TIP3    H226522   2.391   2.263  16.965  0.9466 -0.0263  0.1391
 1703TIP3   OH226523   0.360   3.867  12.885  0.5431 -0.1009  0.2290
 1703TIP3    H126524   0.306   3.858  12.807 -0.1391  0.2559  0.6503
 1703TIP3    H226525   0.415   3.943  12.868 -1.3642  1.5482  1.0792
 1704TIP3   OH226526   2.291   4.385  17.208  0.2752 -0.0699  0.6984
 1704TIP3    H126527   2.358   4.321  17.234 -0.5259 -0.4586  1.8844
 1704TIP3    H226528   2.254   4.416  17.291  1.2329  2.6211  0.2275
 1705TIP3   OH226529   2.731   2.431  16.108  0.6931  0.2619  0.6724
 1705TIP3    H126530   2.731   2.373  16.184  0.7653 -0.6104  0.0199
 1705TIP3    H226531   2.750   2.518  16.144 -0.3554  0.0517  1.7891
 1706TIP3   OH226532   5.678   0.771   2.470  0.3935  0.4645  0.3486
 1706TIP3    H126533   5.641   0.850   2.430 -0.0551 -0.1100 -0.4083
 1706TIP3    H226534   5.650   0.775   2.562  0.1012  1.0202  0.2389
 1707TIP3   OH226535   5.237   0.182  15.663  0.5628 -0.1841 -0.1798
 1707TIP3    H126536   5.145   0.161  15.648  0.7957 -0.8599 -0.7097
 1707TIP3    H226537   5.283   0.138  15.592  1.2902  0.1856  0.0610
 1708TIP3   OH226538   0.956   1.105  10.906  0.2074  0.2640 -0.2689
 1708TIP3    H126539   0.892   1.159  10.861 -1.4925 -1.5387 -0.1419
 1708TIP3    H226540   0.910   1.071  10.983  1.5139 -0.5970  0.1769
 1709TIP3   OH226541   3.154   3.415  14.968 -0.5559  0.1501  0.0609
 1709TIP3    H126542   3.115   3.329  14.954 -2.5129  0.7948  1.0937
 1709TIP3    H226543   3.147   3.429  15.062 -0.5812  1.5532 -0.1258
 1710TIP3   OH226544   2.239   0.035  16.238  0.1347  0.1173  0.2714
 1710TIP3    H126545   2.227  -0.059  16.222  1.5436 -0.2947  1.3761
 1710TIP3    H226546   2.257   0.072  16.152  3.1094 -1.2657  0.1871
 1711TIP3   OH226547   1.279   5.371   5.125 -0.3595 -0.0385 -0.2739
 1711TIP3    H126548   1.277   5.365   5.220 -1.3993 -0.6718 -0.3166
 1711TIP3    H226549   1.370   5.390   5.103 -0.3487  1.4001  0.9050
 1712TIP3   OH226550   3.531   6.309   0.492  0.2635  1.3647  0.1000
 1712TIP3    H126551   3.608   6.361   0.469  0.5739  0.7827 -0.2075
 1712TIP3    H226552   3.497   6.279   0.408 -0.0640  1.2873  0.2584
 1713TIP3   OH226553   5.775   4.938   1.330  0.0750 -0.5713 -0.1084
 1713TIP3    H126554   5.847   4.891   1.288  0.1884 -0.5610  0.0729
 1713TIP3    H226555   5.810   4.964   1.415 -0.1130 -0.4857 -0.0568
 1714TIP3   OH226556   0.475   0.320   2.624  0.6892  0.0988 -0.4638
 1714TIP3    H126557   0.549   0.260   2.612  0.3822 -0.0745 -1.6530
 1714TIP3    H226558   0.464   0.362   2.538 -1.1643 -0.5454 -0.5812
 1715TIP3   OH226559   3.233   3.029  13.796  0.3624 -0.7793  0.5557
 1715TIP3    H126560   3.304   3.092  13.783 -0.9350  0.5551 -0.3850
 1715TIP3    H226561   3.264   2.948  13.756  1.4200 -0.2753  0.3240
 1716TIP3   OH226562   1.465   1.213   2.449  0.0278 -0.3421  0.2198
 1716TIP3    H126563   1.546   1.233   2.401  0.0633  0.5078  0.6216
 1716TIP3    H226564   1.413   1.293   2.443 -0.2316 -0.4430  1.0737
 1717TIP3   OH226565   6.362   1.157  14.040 -0.2461  0.4130 -0.1213
 1717TIP3    H126566   6.368   1.133  13.948  3.0862 -0.3859  0.1817
 1717TIP3    H226567   6.291   1.103  14.075 -0.1987 -0.7852 -1.7968
 1718TIP3   OH226568   6.340   2.848   5.477 -0.4827 -0.0289 -0.4519
 1718TIP3    H126569   6.291   2.897   5.542 -0.0119 -0.9011  0.5811
 1718TIP3    H226570   6.339   2.904   5.399  0.1365  1.6734  0.7070
 1719TIP3   OH226571   0.245   4.432   1.556  0.2631  0.2253  0.0726
 1719TIP3    H126572   0.211   4.387   1.480 -1.0616  0.1849  0.6702
 1719TIP3    H226573   0.212   4.383   1.631 -1.3593  2.1836  0.7518
 1720TIP3   OH226574   2.248   1.544  16.411 -0.2817  0.3981 -0.4337
 1720TIP3    H126575   2.294   1.603  16.351  3.8888 -0.7616  1.2345
 1720TIP3    H226576   2.242   1.594  16.493  1.0427 -0.5313  0.2715
 1721TIP3   OH226577   6.658   1.382  17.153 -0.0440  0.4157  0.0126
 1721TIP3    H126578   6.583   1.349  17.105 -0.0746  0.3862  0.0810
 1721TIP3    H226579   6.722   1.311  17.150 -0.1528  0.3063  0.2568
 1722TIP3   OH226580   0.653   4.581  15.699  0.1394 -0.3052 -0.0727
 1722TIP3    H126581   0.590   4.519  15.733 -2.7849  1.8125 -1.2038
 1722TIP3    H226582   0.633   4.587  15.605 -0.9774  3.4985  0.2474
 1723TIP3   OH226583   0.205   4.851  16.790 -0.2484 -0.0914 -0.4492
 1723TIP3    H126584   0.228   4.931  16.742  1.1353 -0.9386 -1.2642
 1723TIP3    H226585   0.168   4.794  16.723  0.1770 -0.6840 -0.1789
 1724TIP3   OH226586   5.360   1.034   2.770 -0.0576 -0.3677  0.5687
 1724TIP3    H126587   5.332   1.004   2.683  1.5612  0.5543 -0.3034
 1724TIP3    H226588   5.370   0.953   2.821  2.2624 -1.2698 -1.1454
 1725TIP3   OH226589   6.131   4.063   0.579 -0.3719 -0.6048  0.3476
 1725TIP3    H126590   6.167   4.099   0.498  0.4913 -1.5350  0.2931
 1725TIP3    H226591   6.068   4.128   0.609  2.0805  1.6337  0.9996
 1726TIP3   OH226592   2.060   2.108   1.369 -0.2534 -0.2937 -0.2766
 1726TIP3    H126593   1.992   2.131   1.305  0.9175  2.9225 -0.5218
 1726TIP3    H226594   2.137   2.088   1.316  0.2410  0.6813  0.0481
 1727TIP3   OH226595   4.812   2.827   4.352  0.1502 -0.3565  0.3494
 1727TIP3    H126596   4.853   2.871   4.426 -0.0443  0.2137  0.1275
 1727TIP3    H226597   4.884   2.788   4.303  0.2846 -0.6826  0.8006
 1728TIP3   OH226598   5.328   2.732  11.607  0.1974  0.2742  0.4578
 1728TIP3    H126599   5.292   2.650  11.574  1.5256 -0.2980  0.3512
 1728TIP3    H226600   5.280   2.800  11.560  0.6103 -0.4878 -1.1237
 1729TIP3   OH226601   4.738   1.311   4.414 -0.3768 -0.1227 -0.2843
 1729TIP3    H126602   4.743   1.341   4.323  0.2391 -2.2205 -0.9951
 1729TIP3    H226603   4.828   1.312   4.444 -0.4631 -0.3755 -0.0206
 1730TIP3   OH226604   1.313   0.616   4.811 -0.0315 -0.1727 -0.3241
 1730TIP3    H126605   1.334   0.633   4.903 -2.3113 -2.0554  0.6509
 1730TIP3    H226606   1.380   0.553   4.784 -0.3850 -1.0083  0.6528
 1731TIP3   OH226607   3.146   4.727   0.567 -0.0163  0.7536  0.2916
 1731TIP3    H126608   3.108   4.687   0.489 -1.0252  2.1295  0.0491
 1731TIP3    H226609   3.238   4.742   0.545  0.6650 -2.1575  0.7049
 1732TIP3   OH226610   3.052   4.268   6.323 -0.4374 -0.0762 -0.1252
 1732TIP3    H126611   3.054   4.208   6.248  0.2888  1.6214 -1.5446
 1732TIP3    H226612   2.965   4.257   6.360 -0.4515 -1.7161 -0.5407
 1733TIP3   OH226613   3.186   1.266  15.010 -0.9373  0.1024 -0.0758
 1733TIP3    H126614   3.227   1.352  15.020  2.3881 -1.3591  0.1694
 1733TIP3    H226615   3.109   1.282  14.955  0.9472  2.9086 -2.1772
 1734TIP3   OH226616   6.289   4.784  15.184 -0.3165  0.1488  0.6440
 1734TIP3    H126617   6.282   4.786  15.279  1.6635  0.3115  0.8204
 1734TIP3    H226618   6.285   4.876  15.157 -1.6304  0.0621  0.4740
 1735TIP3   OH226619   2.484   2.259  13.586  0.0184  0.1386  0.3105
 1735TIP3    H126620   2.391   2.277  13.574 -0.3025 -1.3436  0.3297
 1735TIP3    H226621   2.491   2.225  13.675  0.9700  2.4085  1.1669
 1736TIP3   OH226622   3.779   4.649   1.492 -0.5792 -0.1779  0.3718
 1736TIP3    H126623   3.839   4.709   1.449 -0.3866  0.0383  0.9253
 1736TIP3    H226624   3.729   4.704   1.553 -1.4519 -0.3241 -0.1912
 1737TIP3   OH226625   4.248   0.492  12.105 -0.0927 -0.4801  0.1468
 1737TIP3    H126626   4.320   0.554  12.111  0.3860 -1.1267  1.7447
 1737TIP3    H226627   4.288   0.412  12.070 -0.6659 -0.0014 -1.7189
 1738TIP3   OH226628   6.448   1.064   2.553  0.4039  0.1591 -0.2044
 1738TIP3    H126629   6.494   0.994   2.506  2.0856 -0.1549  1.7515
 1738TIP3    H226630   6.355   1.045   2.540  0.8241 -1.8827 -0.5488
 1739TIP3   OH226631   3.042   5.780  16.376 -0.6718  0.0705  0.0573
 1739TIP3    H126632   3.103   5.732  16.432  0.2457 -0.4709 -1.3391
 1739TIP3    H226633   2.999   5.842  16.434  1.7658  1.0171  0.9734
 1740TIP3   OH226634   3.804   2.696   2.886  0.0191  0.0434 -0.1276
 1740TIP3    H126635   3.875   2.634   2.871  0.3919  0.9673 -2.6149
 1740TIP3    H226636   3.812   2.720   2.979  1.7718 -1.2675  0.1049
 1741TIP3   OH226637   0.855   1.632  12.676  0.3159 -0.0312  0.2184
 1741TIP3    H126638   0.862   1.551  12.626  1.5233  0.3864 -0.3432
 1741TIP3    H226639   0.784   1.680  12.634 -1.0921 -1.1749  1.1717
 1742TIP3   OH226640   0.851   3.269  16.026 -0.0748  0.3200  1.1373
 1742TIP3    H126641   0.901   3.214  16.087  0.5570 -1.0388 -0.5123
 1742TIP3    H226642   0.874   3.235  15.940 -2.2384  1.0698  0.2023
 1743TIP3   OH226643   2.198   5.050  12.061 -0.1367  0.4896 -0.0188
 1743TIP3    H126644   2.223   5.017  11.974 -2.7814 -3.4536  0.4419
 1743TIP3    H226645   2.237   4.987  12.122  1.2673  2.9175  1.7483
 1744TIP3   OH226646   2.905   4.948  13.617 -0.1769 -0.3600 -0.9824
 1744TIP3    H126647   3.000   4.956  13.618 -0.0892 -1.2191  0.4395
 1744TIP3    H226648   2.888   4.856  13.637 -1.3114 -0.0255 -0.2893
 1745TIP3   OH226649   2.083   5.690  11.073  0.1353 -0.4773 -0.4083
 1745TIP3    H126650   2.006   5.654  11.028  0.6080 -1.4787 -0.4287
 1745TIP3    H226651   2.128   5.741  11.006  0.6718 -1.7094 -1.0142
 1746TIP3   OH226652   4.075   5.141   5.721 -0.5251  0.4311  0.5456
 1746TIP3    H126653   4.149   5.187   5.681 -0.5420 -1.3485 -1.7459
 1746TIP3    H226654   4.087   5.153   5.815  2.3199  0.7448  0.2283
 1747TIP3   OH226655   1.018   0.757  11.738  0.5064 -0.6067 -0.0671
 1747TIP3    H126656   0.975   0.769  11.653  0.2074 -0.9453  0.0351
 1747TIP3    H226657   0.961   0.696  11.785 -0.2410  0.8601  1.0119
 1748TIP3   OH226658   0.706   1.426   1.583  0.1997  0.0984  0.2895
 1748TIP3    H126659   0.761   1.371   1.528  1.2403 -0.1002  1.4924
 1748TIP3    H226660   0.747   1.424   1.669 -1.7443 -0.1405  1.2784
 1749TIP3   OH226661   6.535   2.135   3.006 -0.3411 -0.7137 -1.1073
 1749TIP3    H126662   6.521   2.040   3.005 -0.2919 -0.7229 -2.4424
 1749TIP3    H226663   6.498   2.166   2.923 -2.3343  0.7415  0.1967
 1750TIP3   OH226664   5.684   6.289  10.870 -0.0226  0.3156 -0.4774
 1750TIP3    H126665   5.659   6.311  10.960 -0.8436  1.0916 -0.8823
 1750TIP3    H226666   5.770   6.328  10.858  1.0117 -1.4843  0.5950
 1751TIP3   OH226667   5.738   1.329  12.456  0.2463  0.4561  0.6306
 1751TIP3    H126668   5.751   1.234  12.461  1.3139  0.5626  0.2158
 1751TIP3    H226669   5.761   1.362  12.542 -0.1974  0.3402  0.7983
 1752TIP3   OH226670   1.083   0.002   3.564  0.1533 -0.3007  0.2284
 1752TIP3    H126671   1.166  -0.003   3.612 -0.2264  0.9244  1.0746
 1752TIP3    H226672   1.025   0.049   3.623 -2.3855 -4.3127  1.3351
 1753TIP3   OH226673   4.162   5.242  14.959  0.7330 -0.0843  0.8187
 1753TIP3    H126674   4.257   5.252  14.965  0.7105  1.1912 -0.3548
 1753TIP3    H226675   4.147   5.210  14.870 -0.0593  2.1972  0.0699
 1754TIP3   OH226676   3.591   3.748  14.306 -0.0815  0.2881  0.4963
 1754TIP3    H126677   3.539   3.674  14.275 -0.6793  1.1984 -0.7646
 1754TIP3    H226678   3.647   3.712  14.374  0.3342 -1.5270 -0.7524
 1755TIP3   OH226679   6.109   0.019  14.414  0.1535 -0.0826 -0.2266
 1755TIP3    H126680   6.064   0.055  14.490  0.7802 -0.8270  0.5133
 1755TIP3    H226681   6.059   0.052  14.339 -0.7808  0.2522  0.5198
 1756TIP3   OH226682   4.448   0.595  15.162  0.6378  0.1448 -0.0347
 1756TIP3    H126683   4.488   0.626  15.243  0.6317 -0.0568  0.0460
 1756TIP3    H226684   4.494   0.513  15.141  0.4464  0.0455 -0.0785
 1757TIP3   OH226685   0.739   0.015  14.215 -0.4745 -0.3710  0.0704
 1757TIP3    H126686   0.704  -0.057  14.162 -0.5517 -0.0798 -0.2798
 1757TIP3    H226687   0.830   0.023  14.187 -0.5241 -0.1959 -0.0500
 1758TIP3   OH226688   5.897   5.658   2.863  0.1369  0.1806  0.5646
 1758TIP3    H126689   5.802   5.652   2.850  0.2703 -0.4754 -0.1722
 1758TIP3    H226690   5.912   5.620   2.950 -0.0947 -1.4315 -0.0626
 1759TIP3   OH226691   1.633   0.036  13.964 -0.5990  0.0924 -0.0325
 1759TIP3    H126692   1.682   0.103  14.010  0.4632 -0.8277  0.2107
 1759TIP3    H226693   1.578   0.084  13.902 -0.7393  1.2388  0.9564
 1760TIP3   OH226694   1.286   3.985  12.434 -0.0437  0.2239 -0.1272
 1760TIP3    H126695   1.365   3.933  12.418  0.3235  1.0289 -1.0644
 1760TIP3    H226696   1.217   3.939  12.386 -0.1513 -0.4813  0.6909
 1761TIP3   OH226697   5.648   4.833   5.677  0.2920  0.3193  0.9877
 1761TIP3    H126698   5.609   4.746   5.685  0.1946  0.3795  1.1729
 1761TIP3    H226699   5.643   4.870   5.765 -0.5080  0.8715  0.7327
 1762TIP3   OH226700   1.157   0.915  10.952 -0.0747  0.6676 -0.3897
 1762TIP3    H126701   1.115   0.980  10.897  0.4368  0.9617 -0.4420
 1762TIP3    H226702   1.107   0.835  10.938 -1.7507  1.4174  0.9216
 1763TIP3   OH226703   2.480   2.042   1.052 -0.2384  0.4898  0.4526
 1763TIP3    H126704   2.489   2.023   0.958  0.1766 -0.2077  0.6226
 1763TIP3    H226705   2.559   2.091   1.074 -0.5719  1.0895  0.3406
 1764TIP3   OH226706   1.116   0.431  16.928 -0.3613  0.2334  0.2632
 1764TIP3    H126707   1.200   0.467  16.900  0.2201  0.3278  2.0198
 1764TIP3    H226708   1.066   0.421  16.847  1.1233  0.7154 -0.7513
 1765TIP3   OH226709   0.133   2.882  12.651  0.6212  0.2392 -0.6030
 1765TIP3    H126710   0.043   2.896  12.679  0.8539  0.2536  0.1795
 1765TIP3    H226711   0.145   2.941  12.577 -0.2511 -0.3676 -1.2497
 1766TIP3   OH226712   6.723   2.385  11.912 -0.2937  0.2928  0.3891
 1766TIP3    H126713   6.802   2.438  11.917 -0.8983  1.1409  1.3832
 1766TIP3    H226714   6.711   2.350  12.001  0.2833 -1.8465 -0.3021
 1767TIP3   OH226715   4.115   6.045   5.823 -0.1163  0.4419  0.2616
 1767TIP3    H126716   4.208   6.049   5.845 -0.1847 -0.1079  0.6709
 1767TIP3    H226717   4.101   5.955   5.795 -0.7295  0.2522  1.1477
 1768TIP3   OH226718   4.965   0.938   1.889 -0.0563 -0.2748 -0.2807
 1768TIP3    H126719   4.905   0.876   1.847 -0.0772 -2.8685  3.0745
 1768TIP3    H226720   5.037   0.947   1.828 -0.4282 -3.1233 -1.2989
 1769TIP3   OH226721   4.276   4.510  15.932  0.2922  0.5918 -0.0414
 1769TIP3    H126722   4.226   4.588  15.956  0.3692  0.3808  0.8608
 1769TIP3    H226723   4.216   4.458  15.879 -0.7683 -0.0236  1.6651
 1770TIP3   OH226724   1.496   4.154  13.300 -0.1586  0.7208 -0.5083
 1770TIP3    H126725   1.575   4.147  13.247 -0.5772 -0.9866 -0.9587
 1770TIP3    H226726   1.528   4.180  13.387  1.1097 -1.4715 -0.2472
 1771TIP3   OH226727   4.769   2.946  17.069  0.1179 -0.0502  0.3263
 1771TIP3    H126728   4.779   2.898  16.987 -0.0955 -1.2363  0.9689
 1771TIP3    H226729   4.676   2.970  17.072 -0.5405 -2.3846  1.4284
 1772TIP3   OH226730   2.334   5.589   3.659 -0.7546  0.2646  0.1337
 1772TIP3    H126731   2.384   5.645   3.601 -0.2706 -0.7447 -0.4632
 1772TIP3    H226732   2.400   5.544   3.712 -1.1241  0.1880  0.5327
 1773TIP3   OH226733   4.752   6.269   4.584 -1.0606  0.6395 -0.2332
 1773TIP3    H126734   4.717   6.204   4.522 -0.9411 -0.3218  0.6762
 1773TIP3    H226735   4.675   6.301   4.631 -1.0872  0.9565 -0.4897
 1774TIP3   OH226736   6.393   5.253  15.681 -0.3572  0.6788  0.3823
 1774TIP3    H126737   6.359   5.187  15.621 -1.2365 -0.1024  1.7099
 1774TIP3    H226738   6.482   5.225  15.701 -0.6049  0.0880  0.6569
 1775TIP3   OH226739   0.210   6.179  11.147  0.4930 -0.6469  0.0700
 1775TIP3    H126740   0.148   6.161  11.076  0.7644 -3.1266  0.3885
 1775TIP3    H226741   0.268   6.103  11.148  3.5833  1.4856 -0.1700
 1776TIP3   OH226742   3.479   5.735  16.443  0.4808  0.4841 -0.9993
 1776TIP3    H126743   3.574   5.731  16.444  0.4453 -2.5166 -1.4666
 1776TIP3    H226744   3.458   5.811  16.499  3.0927 -1.2186  2.7264
 1777TIP3   OH226745   1.879   4.526   4.282 -0.1034 -0.4870 -0.5176
 1777TIP3    H126746   1.808   4.508   4.220  0.6714  0.0484 -1.5945
 1777TIP3    H226747   1.834   4.545   4.365 -1.2839  0.8531 -1.4147
 1778TIP3   OH226748   4.050   0.741  15.568  0.1641  0.0193  0.8078
 1778TIP3    H126749   4.069   0.660  15.615  0.2013 -1.1059 -1.0670
 1778TIP3    H226750   3.961   0.730  15.535  0.2370  0.6699  0.3811
 1779TIP3   OH226751   0.576   6.151  16.961 -0.3839  0.2633  0.1351
 1779TIP3    H126752   0.593   6.132  17.053 -0.6338 -1.7168 -0.1841
 1779TIP3    H226753   0.481   6.148  16.952 -0.4217  1.3957 -0.0273
 1780TIP3   OH226754   0.641   6.405   5.876  0.0710 -0.2877 -0.4619
 1780TIP3    H126755   0.570   6.436   5.820  0.1488  0.9869  0.1121
 1780TIP3    H226756   0.597   6.375   5.956  0.2002  1.0611  0.1352
 1781TIP3   OH226757   1.987   4.748   4.089 -0.5120 -0.5357 -0.5318
 1781TIP3    H126758   1.956   4.698   4.164 -0.1895 -0.3392 -0.2668
 1781TIP3    H226759   1.925   4.820   4.080 -1.2943 -1.2647 -1.2432
 1782TIP3   OH226760   0.646   0.684   4.934  0.4998 -0.5239  0.0108
 1782TIP3    H126761   0.603   0.607   4.971  0.8669 -1.9574 -2.3929
 1782TIP3    H226762   0.689   0.725   5.009 -1.9946 -1.0496  1.8587
 1783TIP3   OH226763   2.727   2.280  12.733 -0.1790  0.0875 -0.5747
 1783TIP3    H126764   2.759   2.248  12.818 -0.9425  1.3703  0.2267
 1783TIP3    H226765   2.660   2.217  12.708  0.0809 -0.3247 -0.2501
 1784TIP3   OH226766   0.008   2.929   6.483  0.6506 -0.1673  0.5570
 1784TIP3    H126767   0.048   2.863   6.426 -0.1518 -0.6615  0.5501
 1784TIP3    H226768  -0.085   2.907   6.483  0.1495  1.6988 -0.4317
 1785TIP3   OH226769   6.081   2.271   3.757 -0.1491  0.2453 -0.2701
 1785TIP3    H126770   6.129   2.316   3.826 -0.0179 -1.8391  1.0831
 1785TIP3    H226771   5.998   2.245   3.798 -0.4867 -0.1808 -1.1967
 1786TIP3   OH226772   1.526   4.162   2.962 -0.4418  0.3597  0.4657
 1786TIP3    H126773   1.519   4.146   2.868  0.8012  2.3127 -0.0162
 1786TIP3    H226774   1.436   4.174   2.991 -0.7400  1.8410 -0.9117
 1787TIP3   OH226775   5.802   1.713  12.662 -0.1762 -0.1471 -0.2126
 1787TIP3    H126776   5.831   1.713  12.571  0.1368  3.3129 -0.2501
 1787TIP3    H226777   5.868   1.661  12.708 -0.4259 -2.1093 -1.8830
 1788TIP3   OH226778   3.281   6.034  11.119 -0.3205  0.0884 -0.4066
 1788TIP3    H126779   3.247   6.104  11.063  1.4496  0.6574 -0.8398
 1788TIP3    H226780   3.296   6.076  11.203 -1.1666 -0.2958 -0.0526
 1789TIP3   OH226781   6.549   6.081   5.715 -0.1482 -0.2475 -0.3604
 1789TIP3    H126782   6.639   6.111   5.731 -0.0345  0.0672 -1.4994
 1789TIP3    H226783   6.499   6.113   5.791  0.2152  1.7618 -0.9219
 1790TIP3   OH226784   4.233   3.944   3.757 -0.0023  0.3967  0.1655
 1790TIP3    H126785   4.221   3.952   3.662  0.7279  1.3873  0.1441
 1790TIP3    H226786   4.264   3.854   3.770 -2.0397 -0.4317 -0.3025
 1791TIP3   OH226787   4.184   2.201   3.928  0.3684  0.8314 -0.1903
 1791TIP3    H126788   4.129   2.235   3.998  1.9173 -0.4627  1.7742
 1791TIP3    H226789   4.253   2.153   3.973 -1.3253 -4.5866 -2.5803
 1792TIP3   OH226790   1.421   0.437   3.430  0.0322 -0.2764 -0.5448
 1792TIP3    H126791   1.493   0.492   3.400  1.1637 -0.4180  1.7288
 1792TIP3    H226792   1.379   0.489   3.499 -0.7341 -1.0859 -0.3853
 1793TIP3   OH226793   3.085   6.464  11.680  0.4048 -0.5450 -0.2777
 1793TIP3    H126794   3.072   6.409  11.757 -1.1497  0.1121 -0.0406
 1793TIP3    H226795   3.178   6.456  11.660  1.0358 -0.0619  2.1705
 1794TIP3   OH226796   0.467   2.414   5.099  0.2446 -0.4759 -0.0430
 1794TIP3    H126797   0.421   2.386   5.020 -2.3188  1.4942  0.6249
 1794TIP3    H226798   0.521   2.488   5.070  0.2472 -0.5227 -0.1595
 1795TIP3   OH226799   6.718   4.313   1.175  0.5206  0.4104 -0.4127
 1795TIP3    H126800   6.714   4.387   1.113 -0.6519  1.4118  0.7961
 1795TIP3    H226801   6.628   4.282   1.181  0.9740 -1.0653 -0.7834
 1796TIP3   OH226802   1.402   3.041   3.237  0.0101 -0.0468  0.2476
 1796TIP3    H126803   1.335   3.062   3.172 -0.0365 -2.6542 -0.6958
 1796TIP3    H226804   1.353   3.033   3.319 -0.6576 -0.6339 -0.1866
 1797TIP3   OH226805   4.447   3.418  13.906  0.4160 -0.2086  0.4265
 1797TIP3    H126806   4.484   3.486  13.962 -0.1667  0.9824 -0.5795
 1797TIP3    H226807   4.467   3.447  13.817 -0.5267 -0.9562 -0.0428
 1798TIP3   OH226808   3.065   5.662   2.629 -0.2806 -0.6221  0.1575
 1798TIP3    H126809   3.073   5.567   2.636 -0.0189 -0.5451  1.2016
 1798TIP3    H226810   3.150   5.690   2.595 -1.4433 -0.9852 -3.3913
 1799TIP3   OH226811   4.663   1.467  10.634 -0.1153  0.2672 -0.1790
 1799TIP3    H126812   4.597   1.444  10.569  0.9064  0.6647 -1.4107
 1799TIP3    H226813   4.692   1.555  10.609  0.4112  0.3654  0.7225
 1800TIP3   OH226814   4.938   4.175   0.071  0.5454  0.0345 -0.0143
 1800TIP3    H126815   5.022   4.161   0.028  1.1437  0.3286  1.0381
 1800TIP3    H226816   4.959   4.185   0.164 -0.6639 -0.0351  0.2864
 1801TIP3   OH226817   3.940   4.654   5.539  0.5966  0.3939  0.5889
 1801TIP3    H126818   3.848   4.659   5.566 -0.1851 -0.5380 -1.6555
 1801TIP3    H226819   3.987   4.629   5.618 -1.2872 -0.5613  1.4713
 1802TIP3   OH226820   5.484   5.598  11.123  0.4907 -0.1141 -0.3710
 1802TIP3    H126821   5.556   5.549  11.083  1.7694 -0.5114  2.1755
 1802TIP3    H226822   5.489   5.685  11.084  1.9785 -0.3092 -0.6821
 1803TIP3   OH226823   5.639   1.761  11.143 -0.0363  0.1250 -0.1056
 1803TIP3    H126824   5.641   1.827  11.073  0.6972  2.1854  1.7177
 1803TIP3    H226825   5.566   1.788  11.198  1.1558  0.3188  1.4527
 1804TIP3   OH226826   2.833   5.211  16.298 -0.1312 -0.1784 -0.7124
 1804TIP3    H126827   2.857   5.118  16.304  1.0245 -0.1453 -3.3309
 1804TIP3    H226828   2.737   5.210  16.294 -0.2375 -1.0710  1.1475
 1805TIP3   OH226829   4.965   4.237  11.487  0.1148 -0.0515 -0.4485
 1805TIP3    H126830   4.972   4.144  11.505 -0.2335  0.3058  1.9154
 1805TIP3    H226831   5.044   4.275  11.528  0.1274  0.7121 -1.1620
 1806TIP3   OH226832   5.276   0.815  10.889  0.6634  0.3974 -0.3032
 1806TIP3    H126833   5.314   0.744  10.837  0.2492 -1.7583  2.1135
 1806TIP3    H226834   5.315   0.804  10.976 -3.3881 -0.3920  1.6471
 1807TIP3   OH226835   6.017   1.561   2.828 -0.0537  1.0011  0.1506
 1807TIP3    H126836   5.946   1.518   2.876  1.4264 -1.6552  0.1651
 1807TIP3    H226837   5.998   1.542   2.736 -0.3553  1.9528  0.0088
 1808TIP3   OH226838   6.676   2.098  16.216 -0.7729 -0.0164 -0.3075
 1808TIP3    H126839   6.637   2.152  16.147  1.6648  0.9127 -1.0691
 1808TIP3    H226840   6.759   2.068  16.179  0.2654 -0.1179  1.9465
 1809TIP3   OH226841   2.832   0.277  14.591 -0.2515 -0.2053 -0.2204
 1809TIP3    H126842   2.790   0.252  14.509  0.9827 -0.8467 -0.6968
 1809TIP3    H226843   2.781   0.233  14.659 -2.2583  1.6214 -0.4684
 1810TIP3   OH226844   5.594   6.551  15.170  0.3735 -0.1366  0.2319
 1810TIP3    H126845   5.662   6.596  15.119  0.7022 -1.4223 -0.5017
 1810TIP3    H226846   5.643   6.498  15.233 -0.0164  2.2028  2.6957
 1811TIP3   OH226847   3.057   1.987   1.525 -0.3568 -0.1798 -0.1503
 1811TIP3    H126848   3.019   1.976   1.612 -0.4651 -0.0272 -0.1795
 1811TIP3    H226849   3.103   2.071   1.529 -0.3388 -0.1857 -0.2333
 1812TIP3   OH226850   6.370   3.492  11.604  0.0180  0.1275 -0.0234
 1812TIP3    H126851   6.334   3.478  11.517 -1.7842  1.0224  0.5402
 1812TIP3    H226852   6.334   3.421  11.656  1.1135 -0.4219  0.0187
 1813TIP3   OH226853   1.126   3.482  16.953  0.2075  0.3801 -0.3741
 1813TIP3    H126854   1.118   3.390  16.978 -0.7006  0.8777  1.2712
 1813TIP3    H226855   1.157   3.526  17.032 -3.3003  2.1209  0.2097
 1814TIP3   OH226856   4.414   0.808  12.579  0.2727 -0.4018  0.0416
 1814TIP3    H126857   4.348   0.812  12.648  0.7806 -2.1267  0.7065
 1814TIP3    H226858   4.498   0.807  12.627  0.7046  0.0175 -0.6914
 1815TIP3   OH226859   4.030   2.548  11.931  0.0431  0.5298  0.3998
 1815TIP3    H126860   3.940   2.574  11.952  0.3455  0.4961  1.8521
 1815TIP3    H226861   4.021   2.484  11.861 -1.0493  0.6502  0.4089
 1816TIP3   OH226862   5.456   4.620  16.871 -0.0379 -0.1078 -0.2065
 1816TIP3    H126863   5.521   4.573  16.818  0.6371 -0.0736  0.5625
 1816TIP3    H226864   5.479   4.712  16.860  0.8617 -0.1540  1.0587
 1817TIP3   OH226865   5.896   5.185   1.074 -0.0839 -0.3872 -0.4361
 1817TIP3    H126866   5.922   5.244   1.144 -0.2793 -0.1801 -0.5382
 1817TIP3    H226867   5.895   5.240   0.996 -0.2342 -0.5339 -0.5368
 1818TIP3   OH226868   2.965   2.688  12.985  0.0379 -0.1939  0.0872
 1818TIP3    H126869   2.989   2.610  13.036  2.5628  0.3406 -0.1704
 1818TIP3    H226870   2.937   2.653  12.900 -0.6611 -0.8810  0.5807
 1819TIP3   OH226871   0.632   4.536  16.136 -0.3309 -0.6480 -0.3938
 1819TIP3    H126872   0.711   4.501  16.178 -0.1926  1.5893  1.3731
 1819TIP3    H226873   0.578   4.569  16.208 -0.5041  2.5862 -1.8187
 1820TIP3   OH226874   3.109   1.110   2.868  0.0761  0.2931 -0.3532
 1820TIP3    H126875   3.131   1.026   2.908  0.6849  0.9523  0.7341
 1820TIP3    H226876   3.115   1.094   2.773 -1.7073 -1.3873 -0.2536
 1821TIP3   OH226877   2.831   0.578   2.215 -0.0547  0.6138 -0.5378
 1821TIP3    H126878   2.911   0.581   2.162  0.4648  0.5950  0.2355
 1821TIP3    H226879   2.794   0.667   2.208  1.2877  1.3275  0.9961
 1822TIP3   OH226880   0.380   4.314  14.962 -0.1694 -0.4416 -0.5857
 1822TIP3    H126881   0.315   4.298  15.030 -0.6589  2.3082 -0.2732
 1822TIP3    H226882   0.358   4.252  14.893 -1.8252 -1.0008  0.3784
 1823TIP3   OH226883   1.506   3.586  11.532  0.2916  0.3147  0.9559
 1823TIP3    H126884   1.525   3.560  11.622  1.0744 -1.0836  0.4116
 1823TIP3    H226885   1.571   3.654  11.513  1.3911 -0.7290  0.8442
 1824TIP3   OH226886   4.642   2.486  11.138 -0.2112 -0.3413  0.2760
 1824TIP3    H126887   4.702   2.545  11.092 -1.3270  0.0102 -0.7770
 1824TIP3    H226888   4.559   2.532  11.139 -1.2403 -2.0332 -0.9624
 1825TIP3   OH226889   1.874   0.653  12.750 -0.4727  0.2750  0.2660
 1825TIP3    H126890   1.903   0.574  12.704  0.0658  0.9838 -0.6372
 1825TIP3    H226891   1.833   0.620  12.830  0.6575 -0.8835  0.4032
 1826TIP3   OH226892   1.027   6.762  16.457 -0.1994 -0.9844 -0.1484
 1826TIP3    H126893   1.107   6.768  16.509 -0.8230 -2.8724  1.1170
 1826TIP3    H226894   0.957   6.787  16.517 -0.7707 -1.5684 -0.5551
 1827TIP3   OH226895   1.723   0.965  11.231  0.0337  0.6022 -0.3949
 1827TIP3    H126896   1.684   0.946  11.145  0.3363  0.4371 -0.4990
 1827TIP3    H226897   1.754   1.055  11.223 -0.2975  0.7252 -0.3208
 1828TIP3   OH226898   5.274   2.604   4.204  0.5280 -0.3001 -0.4588
 1828TIP3    H126899   5.313   2.564   4.126  0.6337 -0.6136 -0.2493
 1828TIP3    H226900   5.315   2.690   4.209  1.0249 -0.5316 -0.3803
 1829TIP3   OH226901   0.010   3.606   0.810  0.2355  0.2404 -0.0726
 1829TIP3    H126902  -0.037   3.537   0.762  0.2188  1.5063 -1.9881
 1829TIP3    H226903  -0.060   3.663   0.843  0.3248  0.3784 -0.1257
 1830TIP3   OH226904   4.282   0.770   2.721  0.0604  0.5297 -0.4246
 1830TIP3    H126905   4.364   0.733   2.689  0.1058  0.1715  0.0892
 1830TIP3    H226906   4.261   0.718   2.799  0.9144  2.4986  1.2318
 1831TIP3   OH226907   2.969   6.162   3.401 -0.2725  0.0025  0.2971
 1831TIP3    H126908   3.005   6.075   3.385 -1.1449  0.0489 -2.6403
 1831TIP3    H226909   3.029   6.221   3.356 -1.6438  0.4860 -0.9955
 1832TIP3   OH226910   3.365   4.716  16.118  0.6493 -0.0131 -0.0189
 1832TIP3    H126911   3.285   4.691  16.166  1.0834 -1.6505 -0.0624
 1832TIP3    H226912   3.431   4.655  16.152  2.0360  1.6857  0.4271
 1833TIP3   OH226913   2.250   1.492   0.301  0.5462 -0.0950 -0.1403
 1833TIP3    H126914   2.201   1.523   0.225  1.7812  1.5834 -0.2931
 1833TIP3    H226915   2.218   1.545   0.374  1.4801  0.3818 -0.0662
 1834TIP3   OH226916   1.842   4.512   4.758 -0.4842 -0.6177  0.8789
 1834TIP3    H126917   1.759   4.465   4.767 -0.5254 -0.8134 -0.2942
 1834TIP3    H226918   1.838   4.581   4.824 -1.6608 -0.5334  0.7412
 1835TIP3   OH226919   6.350   5.213  10.499 -0.6054  0.3533 -0.3915
 1835TIP3    H126920   6.339   5.296  10.546 -0.6901 -0.6914  1.5227
 1835TIP3    H226921   6.260   5.180  10.488 -0.4420 -0.7700  1.3382
 1836TIP3   OH226922   5.571   4.571  13.988  0.1381 -0.3877 -0.2816
 1836TIP3    H126923   5.528   4.555  13.904  0.0229 -2.4130  0.0969
 1836TIP3    H226924   5.665   4.565  13.968  0.1837  1.2096 -0.6113
 1837TIP3   OH226925   1.967   2.366   5.249 -0.0710 -0.3429  0.0077
 1837TIP3    H126926   2.007   2.358   5.163  2.0694  0.1057  0.8979
 1837TIP3    H226927   2.000   2.292   5.299 -1.0342 -0.4240  0.5594
 1838TIP3   OH226928   1.052   3.063   2.364  0.2533 -0.1732 -0.0286
 1838TIP3    H126929   1.064   3.045   2.270  0.7963  0.8742 -0.1727
 1838TIP3    H226930   0.957   3.062   2.376  0.1844 -0.4983 -0.5478
 1839TIP3   OH226931   6.267   1.631  10.600 -0.2161  0.6152  0.0733
 1839TIP3    H126932   6.262   1.569  10.672 -1.0132  1.8660  1.1463
 1839TIP3    H226933   6.183   1.622  10.555 -0.1755  0.6433 -0.0084
 1840TIP3   OH226934   0.564   1.230   3.272 -0.3918 -0.1958  0.3125
 1840TIP3    H126935   0.570   1.135   3.281 -0.4160 -0.2395 -0.1425
 1840TIP3    H226936   0.473   1.251   3.295 -0.8040 -0.4462 -1.0100
 1841TIP3   OH226937   3.026   5.620   6.391 -0.6795  0.4253 -0.1855
 1841TIP3    H126938   3.024   5.551   6.457 -1.0941  0.0627 -0.5739
 1841TIP3    H226939   3.019   5.574   6.307  0.1139  0.8594 -0.4996
 1842TIP3   OH226940   0.751   5.182   3.386 -0.1256 -0.2678 -0.3306
 1842TIP3    H126941   0.773   5.258   3.440 -0.2910  0.1830 -0.8933
 1842TIP3    H226942   0.741   5.217   3.298  0.7755 -1.0959 -0.7854
 1843TIP3   OH226943   0.401   6.509  15.898 -0.0917  0.1392  0.4029
 1843TIP3    H126944   0.443   6.427  15.925  2.0785  1.7763  2.5277
 1843TIP3    H226945   0.426   6.520  15.807  2.4149 -0.0717  0.9753
 1844TIP3   OH226946   0.498   3.342  16.177  0.3404 -0.3724  0.4005
 1844TIP3    H126947   0.458   3.260  16.148  1.6208 -1.0290  0.4257
 1844TIP3    H226948   0.505   3.395  16.098  1.0805 -0.9806  0.0433
 1845TIP3   OH226949   6.697   0.943   5.523  0.3589 -0.3237 -0.0238
 1845TIP3    H126950   6.656   0.981   5.445  1.3796  0.7452 -0.0564
 1845TIP3    H226951   6.681   1.007   5.592 -0.7991 -1.4016  0.7475
 1846TIP3   OH226952   2.857   3.711   0.870 -0.1310 -0.0819  0.5598
 1846TIP3    H126953   2.845   3.769   0.945  0.2572 -1.2054  1.5161
 1846TIP3    H226954   2.952   3.711   0.854 -0.2448  0.4499 -0.1946
 1847TIP3   OH226955   3.037   1.687  16.682  0.3465  0.5358 -0.5297
 1847TIP3    H126956   3.090   1.751  16.636  0.5520  1.8980  1.4872
 1847TIP3    H226957   3.008   1.732  16.761 -4.0900  0.0146 -1.5919
 1848TIP3   OH226958   0.521   3.250   5.814  0.8225 -0.5292 -0.1477
 1848TIP3    H126959   0.452   3.315   5.805  0.8358 -0.7074 -1.7474
 1848TIP3    H226960   0.490   3.174   5.765  0.8017 -1.7791  1.6823
 1849TIP3   OH226961   4.395   6.293   1.607  0.0991  0.2598 -0.3869
 1849TIP3    H126962   4.324   6.287   1.543 -0.1500  0.8891 -0.1798
 1849TIP3    H226963   4.353   6.279   1.692  0.2932  0.2030 -0.2996
 1850TIP3   OH226964   0.914   1.749   2.289 -0.3595  1.0255 -0.0530
 1850TIP3    H126965   0.996   1.705   2.267 -0.0775  1.3498  0.3470
 1850TIP3    H226966   0.924   1.838   2.257 -0.8720  0.8532 -0.7204
 1851TIP3   OH226967   6.017   4.997  14.915  0.5305  0.7046  0.0058
 1851TIP3    H126968   6.100   4.971  14.955  0.3196 -1.8565 -1.0178
 1851TIP3    H226969   6.038   5.012  14.823  0.2707  2.4720  0.2127
 1852TIP3   OH226970   1.963   1.044  17.077 -0.2177 -0.3273 -0.0117
 1852TIP3    H126971   1.963   1.096  17.157  0.8604 -1.5457  0.8163
 1852TIP3    H226972   1.926   1.102  17.011 -3.3620 -0.0570  1.8277
 1853TIP3   OH226973   4.440   4.461   1.251 -0.4410  0.1247  0.7154
 1853TIP3    H126974   4.419   4.485   1.341  0.8985 -1.8770  1.6248
 1853TIP3    H226975   4.524   4.503   1.234 -0.4478  0.0791  0.5637
 1854TIP3   OH226976   0.154   6.600  13.797 -0.2928  0.2993 -0.2215
 1854TIP3    H126977   0.068   6.626  13.830 -0.3393  0.7231 -0.6542
 1854TIP3    H226978   0.210   6.595  13.875 -1.0261 -1.3296  0.2357
 1855TIP3   OH226979   5.638   5.513   0.847 -0.4052 -0.5794  0.1892
 1855TIP3    H126980   5.665   5.533   0.936  0.7176 -0.0629 -0.2474
 1855TIP3    H226981   5.590   5.591   0.818  0.0973 -0.3299  0.0122
 1856TIP3   OH226982   1.617   1.420   5.946  0.4078  0.2199  1.0158
 1856TIP3    H126983   1.530   1.420   5.986 -0.6152  0.1307 -1.0725
 1856TIP3    H226984   1.643   1.512   5.946  0.3227  0.2517  1.6205
 1857TIP3   OH226985   4.118   0.654   3.522  0.3888 -0.2530 -0.0977
 1857TIP3    H126986   4.106   0.747   3.500 -3.1575  0.0201  2.1626
 1857TIP3    H226987   4.135   0.654   3.616  4.9302 -1.8502 -0.6682
 1858TIP3   OH226988   1.686   4.445  13.981  0.1750 -0.3215 -0.4172
 1858TIP3    H126989   1.656   4.391  13.907  3.1258 -0.8981 -1.3322
 1858TIP3    H226990   1.762   4.492  13.947  1.4066 -0.2932  2.1498
 1859TIP3   OH226991   2.487   3.178   0.399 -0.6253  0.8845  0.6939
 1859TIP3    H126992   2.460   3.208   0.312  0.1571  0.1255  0.1662
 1859TIP3    H226993   2.406   3.172   0.449 -1.2767  0.0257 -0.4035
 1860TIP3   OH226994   1.025   1.750   0.763 -0.1366 -0.1787  0.0816
 1860TIP3    H126995   1.046   1.801   0.685  0.7907 -0.6738  0.0007
 1860TIP3    H226996   0.954   1.692   0.735 -2.3382  2.0836  0.5835
 1861TIP3   OH226997   4.879   2.750   6.242 -0.0482  0.0066 -0.0277
 1861TIP3    H126998   4.794   2.707   6.233 -0.8761  1.3290  0.9464
 1861TIP3    H226999   4.939   2.681   6.268 -0.3552 -1.3427 -2.6089
 1862TIP3   OH227000   5.098   0.746   5.270  0.2613  0.2478 -0.0651
 1862TIP3    H127001   5.035   0.795   5.323  0.9309  0.1214  0.8762
 1862TIP3    H227002   5.171   0.806   5.258  1.4232 -0.6978  1.7311
 1863TIP3   OH227003   5.865   6.716  15.346  0.2181 -0.4522  0.6065
 1863TIP3    H127004   5.846   6.624  15.326 -2.8396 -0.2111  1.7873
 1863TIP3    H227005   5.812   6.735  15.423 -1.7212  3.0408 -1.3078
 1864TIP3   OH227006   0.294   0.215   1.242  0.7555 -0.3621 -0.8328
 1864TIP3    H127007   0.378   0.261   1.248  0.0673  0.8253 -0.0263
 1864TIP3    H227008   0.288   0.165   1.323  0.9977 -1.0233 -1.2150
 1865TIP3   OH227009   1.126   4.670  16.138 -0.2282 -0.2571 -0.2508
 1865TIP3    H127010   1.193   4.738  16.133  0.9829 -1.4162 -0.2770
 1865TIP3    H227011   1.144   4.614  16.062 -0.2755 -1.4359  0.5922
 1866TIP3   OH227012   2.664   1.555  15.969  0.3050  0.2969  0.1006
 1866TIP3    H127013   2.592   1.506  15.929  0.2877  0.0183  0.4722
 1866TIP3    H227014   2.724   1.488  15.999 -0.1042  0.4706  1.3473
 1867TIP3   OH227015   1.496   6.217  14.967 -0.3116 -0.4985 -0.2598
 1867TIP3    H127016   1.515   6.126  14.987 -0.0496 -0.8092 -1.7742
 1867TIP3    H227017   1.482   6.218  14.872 -0.6430  0.9739 -0.2134
 1868TIP3   OH227018   5.338   5.191  13.990 -0.2045 -0.3850 -0.6785
 1868TIP3    H127019   5.348   5.141  14.070 -0.1592 -0.8629 -0.9789
 1868TIP3    H227020   5.413   5.166  13.936 -1.3395 -1.6886 -1.7302
 1869TIP3   OH227021   4.655   5.874  16.182 -0.3499 -0.3555  0.6394
 1869TIP3    H127022   4.661   5.943  16.248  0.4954 -1.7965  2.1090
 1869TIP3    H227023   4.728   5.893  16.122 -0.1188  0.0100  1.0290
 1870TIP3   OH227024   0.830   1.645   5.024 -0.2897 -0.0659  0.2548
 1870TIP3    H127025   0.796   1.711   4.964 -0.2518  0.0107  0.3177
 1870TIP3    H227026   0.766   1.642   5.095 -0.1055  0.1620  0.4310
 1871TIP3   OH227027   5.218   0.875  16.230  0.1842  0.3821  0.1483
 1871TIP3    H127028   5.141   0.913  16.187  0.2807  1.8016  1.2012
 1871TIP3    H227029   5.182   0.824  16.302  0.0556 -1.6465 -1.2465
 1872TIP3   OH227030   1.524   3.154   5.660  0.1052  0.0275 -0.6507
 1872TIP3    H127031   1.565   3.067   5.666 -0.6142 -0.2362  0.9215
 1872TIP3    H227032   1.465   3.158   5.735  0.2910  1.9777 -0.5515
 1873TIP3   OH227033   2.798   0.953  15.631 -0.3411 -0.0316 -0.1688
 1873TIP3    H127034   2.734   0.966  15.701 -0.0264 -0.5929  0.2302
 1873TIP3    H227035   2.746   0.937  15.553 -0.6901  0.2702  0.0004
 1874TIP3   OH227036   6.078   1.745  15.887  0.9818  0.2103  0.1587
 1874TIP3    H127037   6.010   1.764  15.951 -1.1466  0.4364 -2.0316
 1874TIP3    H227038   6.047   1.667  15.840  1.0330  1.6064 -2.3987
 1875TIP3   OH227039   5.523   4.281  15.843  0.3612 -0.2087 -0.0966
 1875TIP3    H127040   5.488   4.211  15.898  1.6257  1.7581  3.6071
 1875TIP3    H227041   5.447   4.337  15.824 -0.0944 -0.9110 -0.3691
 1876TIP3   OH227042   6.421   1.391   0.262  0.1413 -0.1514  0.4984
 1876TIP3    H127043   6.502   1.344   0.238 -0.4244 -1.2402  0.6523
 1876TIP3    H227044   6.414   1.379   0.357  0.4902  1.0947  0.6972
 1877TIP3   OH227045   2.811   4.395  16.139 -0.4294 -0.1351  0.5166
 1877TIP3    H127046   2.893   4.371  16.181  0.6110  0.5624 -1.0040
 1877TIP3    H227047   2.807   4.491  16.145  0.7355  0.2150 -2.5058
 1878TIP3   OH227048   1.924   1.404  13.212 -0.6131  0.2405 -0.1263
 1878TIP3    H127049   1.891   1.494  13.214 -3.0667 -0.6055  1.1709
 1878TIP3    H227050   1.969   1.394  13.296  1.0881  0.6884 -0.9409
 1879TIP3   OH227051   1.379   6.485   2.412  0.4257 -0.3307 -0.4493
 1879TIP3    H127052   1.321   6.536   2.468  1.4028 -0.5135  0.7912
 1879TIP3    H227053   1.408   6.546   2.344 -0.1802  0.1250 -0.3031
 1880TIP3   OH227054   4.038   1.732  15.495 -0.3274  0.4567 -0.1436
 1880TIP3    H127055   4.063   1.812  15.449  0.1828  0.7982  0.7015
 1880TIP3    H227056   3.973   1.760  15.559 -0.0614  0.2176  0.2372
 1881TIP3   OH227057   0.501   2.831  15.284  0.7793 -0.0651 -0.1128
 1881TIP3    H127058   0.439   2.888  15.239 -0.0495 -0.5133  0.4431
 1881TIP3    H227059   0.571   2.817  15.220  0.5892  0.8837 -0.5558
 1882TIP3   OH227060   3.496   6.488  16.746  0.3721  0.4744  0.0532
 1882TIP3    H127061   3.529   6.459  16.831  1.9417 -0.1735 -0.7287
 1882TIP3    H227062   3.458   6.410  16.706 -0.1128  0.7128  0.0377
 1883TIP3   OH227063   6.102   1.976  13.457 -0.8328  0.0488 -0.2430
 1883TIP3    H127064   6.196   1.956  13.459 -0.9260 -0.3671  0.2147
 1883TIP3    H227065   6.079   1.975  13.365 -0.7219 -1.4685 -0.2649
 1884TIP3   OH227066   5.794   3.909  16.650  0.5622 -0.4986 -0.2044
 1884TIP3    H127067   5.748   3.827  16.670 -1.1266  0.1704 -1.1517
 1884TIP3    H227068   5.830   3.895  16.562  0.8446 -0.4729 -0.0918
 1885TIP3   OH227069   6.517   2.871  14.080  0.0198  0.4646 -0.0879
 1885TIP3    H127070   6.431   2.878  14.121  1.1452 -1.2050  2.8955
 1885TIP3    H227071   6.544   2.781  14.097  2.2225  0.8324 -1.2685
 1886TIP3   OH227072   4.122   4.224   1.604 -0.1296 -0.1493 -0.5804
 1886TIP3    H127073   4.098   4.137   1.636 -2.5394  0.0852 -1.5282
 1886TIP3    H227074   4.213   4.215   1.576 -0.2235 -2.2850 -0.3801
 1887TIP3   OH227075   5.482   4.309  16.559  0.9215  0.2128 -0.1331
 1887TIP3    H127076   5.393   4.323  16.592  1.1398  0.4250  0.3891
 1887TIP3    H227077   5.504   4.220  16.585  1.1006  0.3866  0.3295
 1888TIP3   OH227078   5.913   1.674  15.067  0.5583 -0.0140  0.7434
 1888TIP3    H127079   6.003   1.706  15.081 -0.1607  1.5308  2.2325
 1888TIP3    H227080   5.908   1.595  15.120  0.4271  1.1177  2.5008
 1889TIP3   OH227081   4.056   4.328  11.777  0.5948 -0.4724  0.5185
 1889TIP3    H127082   4.077   4.352  11.867 -0.5025 -1.1092  0.9775
 1889TIP3    H227083   3.991   4.393  11.750 -0.5683 -1.4178  0.9175
 1890TIP3   OH227084   1.546   3.822  12.406 -0.5758 -0.3439  0.3922
 1890TIP3    H127085   1.623   3.868  12.441  0.5420 -0.9782 -1.1101
 1890TIP3    H227086   1.538   3.744  12.461 -0.9776  0.3834  1.3938
 1891TIP3   OH227087   0.678   4.003  11.411  0.0069  0.4761  0.6886
 1891TIP3    H127088   0.627   3.982  11.489 -0.6935  2.0291  0.6820
 1891TIP3    H227089   0.749   3.939  11.411 -1.0178 -0.7121  1.5821
 1892TIP3   OH227090   5.636   4.924  13.156 -0.2484  0.8541  0.4250
 1892TIP3    H127091   5.641   4.990  13.226 -1.7477 -0.7322  2.1603
 1892TIP3    H227092   5.713   4.870  13.169  0.5453  1.7407 -0.4750
 1893TIP3   OH227093   4.121   2.193   4.842 -0.4236  0.4616 -0.7102
 1893TIP3    H127094   4.179   2.240   4.782 -0.0415  0.9224  0.0044
 1893TIP3    H227095   4.180   2.147   4.901 -0.7953 -0.5501 -1.1016
 1894TIP3   OH227096   1.293   0.055  16.295 -0.5117 -0.5949 -0.0709
 1894TIP3    H127097   1.259   0.124  16.352 -1.6470 -2.0336  1.0985
 1894TIP3    H227098   1.388   0.065  16.299 -0.5987 -0.1194  1.4318
 1895TIP3   OH227099   5.883   3.299  13.052 -0.1846  0.3242 -0.1905
 1895TIP3    H127100   5.831   3.310  12.972 -0.7703 -0.8594 -0.0023
 1895TIP3    H227101   5.965   3.345  13.034 -1.2746  2.2565 -0.4952
 1896TIP3   OH227102   5.130   1.421   5.478 -0.2081 -0.4509  0.0108
 1896TIP3    H127103   5.202   1.367   5.509  2.0077  1.8513 -0.8041
 1896TIP3    H227104   5.143   1.428   5.384 -0.0352  1.9087  0.1411
 1897TIP3   OH227105   5.206   4.918  15.861  0.1392 -0.6465 -0.3286
 1897TIP3    H127106   5.173   4.828  15.862  1.1852 -1.1209 -2.2769
 1897TIP3    H227107   5.284   4.916  15.916  0.3010 -0.9959 -0.5705
 1898TIP3   OH227108   1.108   1.384   1.928 -0.8856 -0.2289 -0.0888
 1898TIP3    H127109   1.097   1.458   1.987 -2.2556 -0.1623 -0.3808
 1898TIP3    H227110   1.200   1.359   1.936 -0.6399  0.8926  0.7274
 1899TIP3   OH227111   6.495   5.159   4.745 -0.2734  0.3015  0.6201
 1899TIP3    H127112   6.538   5.093   4.799  0.0907  1.1660  1.4180
 1899TIP3    H227113   6.404   5.129   4.739  0.5201 -1.9433 -1.7114
 1900TIP3   OH227114   0.043   5.790   5.603 -0.0256 -0.1759  0.1423
 1900TIP3    H127115   0.118   5.735   5.584 -0.9233 -1.7368  0.9427
 1900TIP3    H227116   0.006   5.754   5.684  0.8623  3.2089  2.2713
 1901TIP3   OH227117   3.605   2.054  11.849  0.0279  0.4943  0.2644
 1901TIP3    H127118   3.600   1.983  11.784 -0.1229  1.3344 -0.6639
 1901TIP3    H227119   3.692   2.092  11.836  0.2205  0.3212  0.9594
 1902TIP3   OH227120   2.641   6.601  12.822 -0.2463 -0.9406 -0.2498
 1902TIP3    H127121   2.600   6.524  12.783 -1.3114 -1.5022  1.8329
 1902TIP3    H227122   2.584   6.674  12.799 -0.4420 -1.1357 -0.3837
 1903TIP3   OH227123   3.076   2.341   3.576 -0.3960 -0.5503 -0.2743
 1903TIP3    H127124   2.984   2.360   3.593  0.1890  2.2726  0.0799
 1903TIP3    H227125   3.102   2.281   3.646 -1.9401 -1.5127 -0.4675
 1904TIP3   OH227126   0.799   4.325  15.685 -0.0750  0.1263 -0.1443
 1904TIP3    H127127   0.767   4.315  15.775  0.8171 -0.5986  0.1108
 1904TIP3    H227128   0.721   4.319  15.631 -0.6486  0.7614  0.5885
 1905TIP3   OH227129   0.962   3.144  15.069  0.3337  0.4133 -0.0067
 1905TIP3    H127130   1.009   3.208  15.015 -0.0290  2.0038  1.4646
 1905TIP3    H227131   0.871   3.172  15.064  0.0233 -0.6042 -0.1312
 1906TIP3   OH227132   0.700   4.425  12.203  0.3720 -0.2937 -0.0138
 1906TIP3    H127133   0.693   4.356  12.268  1.7061 -0.3059  0.1546
 1906TIP3    H227134   0.765   4.486  12.240 -1.1724  1.3524  0.1121
 1907TIP3   OH227135   5.877   4.094   1.853  0.7658 -0.5190 -0.0375
 1907TIP3    H127136   5.802   4.118   1.798  1.3637  0.1084 -0.6020
 1907TIP3    H227137   5.838   4.055   1.931 -0.1049 -3.9190 -1.9477
 1908TIP3   OH227138   5.280   0.015   1.479 -0.3145  0.4742 -0.6045
 1908TIP3    H127139   5.207   0.065   1.442 -0.2934 -1.2350 -3.1635
 1908TIP3    H227140   5.287  -0.063   1.424  2.7709  0.0408  0.1940
 1909TIP3   OH227141   2.598   0.899  14.984 -0.6959 -0.0471 -0.1485
 1909TIP3    H127142   2.565   0.812  14.961 -0.9881  0.0925 -0.2652
 1909TIP3    H227143   2.653   0.884  15.061 -0.5269 -0.3728 -0.3303
 1910TIP3   OH227144   6.262   5.528  16.766 -0.1431 -0.0167  0.1037
 1910TIP3    H127145   6.329   5.595  16.775 -0.1041 -0.1196  0.6099
 1910TIP3    H227146   6.189   5.572  16.723  0.7221 -0.2320 -1.6353
 1911TIP3   OH227147   2.168   5.708   5.452 -0.1465 -0.4045 -0.0025
 1911TIP3    H127148   2.137   5.727   5.364 -0.1475 -1.1145 -0.1665
 1911TIP3    H227149   2.089   5.709   5.506 -0.3470 -1.3173 -0.2587
 1912TIP3   OH227150   3.372   2.665  14.000  0.0886 -0.2658 -0.1425
 1912TIP3    H127151   3.343   2.576  14.020 -1.2898  0.0602 -0.5753
 1912TIP3    H227152   3.418   2.657  13.916 -0.0129 -0.5790 -0.1692
 1913TIP3   OH227153   1.392   1.000   3.465  0.3965  0.4757  0.5401
 1913TIP3    H127154   1.452   1.060   3.422 -1.7442  3.4579  1.3434
 1913TIP3    H227155   1.432   0.984   3.551  1.1560  0.5412  0.2006
 1914TIP3   OH227156   5.554   1.386   5.118 -0.4356  0.1188 -0.0689
 1914TIP3    H127157   5.635   1.337   5.105 -1.0351 -0.5347 -1.6494
 1914TIP3    H227158   5.583   1.471   5.150  0.8918 -0.0657 -0.6868
 1915TIP3   OH227159   0.346   1.921  15.377 -0.1981 -0.2000 -0.0762
 1915TIP3    H127160   0.288   1.929  15.453 -1.6647 -0.0826 -1.1671
 1915TIP3    H227161   0.352   2.010  15.343  1.8541  0.0668  0.8522
 1916TIP3   OH227162   6.265   3.518   2.320 -0.6243 -0.1998  0.7082
 1916TIP3    H127163   6.256   3.484   2.231 -1.3967  0.5904  0.4683
 1916TIP3    H227164   6.343   3.574   2.318  1.0905 -2.4384  1.2875
 1917TIP3   OH227165   3.337   5.298  13.923  0.5401  0.3895  0.2195
 1917TIP3    H127166   3.252   5.286  13.965  0.2314  2.4132  0.2817
 1917TIP3    H227167   3.321   5.278  13.830  0.5671 -1.4090  0.5746
 1918TIP3   OH227168   0.914   2.198  16.475  0.2309  0.1227  0.6068
 1918TIP3    H127169   0.939   2.109  16.502  1.9121 -0.3285 -2.1034
 1918TIP3    H227170   0.994   2.249  16.483 -0.2174  0.9066  0.1661
 1919TIP3   OH227171   3.799   1.324  15.928  1.0749  0.2904 -0.6528
 1919TIP3    H127172   3.872   1.382  15.907 -0.2644  3.4668  2.4930
 1919TIP3    H227173   3.838   1.256  15.983  1.9840  0.8072 -0.6333
 1920TIP3   OH227174   2.830   1.961   4.122  0.5434  0.3962 -0.0343
 1920TIP3    H127175   2.857   1.989   4.209  0.0609  0.1210  0.2085
 1920TIP3    H227176   2.880   2.016   4.062 -0.1841  1.5886  0.4239
 1921TIP3   OH227177   6.494   3.241  14.269 -0.2353  0.6190 -0.6343
 1921TIP3    H127178   6.410   3.255  14.226 -1.3405 -0.5086  1.0286
 1921TIP3    H227179   6.504   3.145  14.273  0.5577  0.7183  0.2249
 1922TIP3   OH227180   1.340   6.604  14.398 -0.4279 -0.7425  0.0041
 1922TIP3    H127181   1.365   6.541  14.465 -0.0323 -1.6909 -0.9920
 1922TIP3    H227182   1.378   6.569  14.317  1.5636  1.8447 -0.2883
 1923TIP3   OH227183   5.397   0.651   6.133 -0.2752  0.5037  0.1878
 1923TIP3    H127184   5.387   0.639   6.227 -1.6511  2.1676  0.3117
 1923TIP3    H227185   5.366   0.740   6.117 -0.4833  0.1117 -1.9040
 1924TIP3   OH227186   0.210   1.046   6.017  0.3318 -0.0796  0.0584
 1924TIP3    H127187   0.283   1.104   5.995 -0.0953  0.2877 -0.4066
 1924TIP3    H227188   0.227   1.021   6.108 -0.4640  2.3292  0.9764
 1925TIP3   OH227189   6.042   3.730  17.180 -0.4933 -0.1221 -0.3578
 1925TIP3    H127190   6.056   3.702  17.271  0.8634 -0.0352 -0.5326
 1925TIP3    H227191   6.067   3.653  17.128 -1.7931 -0.3676 -0.6640
 1926TIP3   OH227192   2.702   1.946   1.582 -0.4483  0.1434 -0.1111
 1926TIP3    H127193   2.756   1.881   1.536 -0.4891  1.1354 -1.6513
 1926TIP3    H227194   2.672   1.901   1.661 -1.0906 -1.9755 -1.4655
 1927TIP3   OH227195   1.154   3.612  15.908 -0.0013  0.3923 -0.0538
 1927TIP3    H127196   1.169   3.547  15.839  1.0298 -0.8155  1.2403
 1927TIP3    H227197   1.145   3.695  15.862  0.0370 -0.4605 -1.6702
 1928TIP3   OH227198   6.496   4.933  12.893  0.4304 -0.0935  0.2359
 1928TIP3    H127199   6.531   4.844  12.891  0.8289  0.0161  1.5683
 1928TIP3    H227200   6.488   4.953  12.986 -1.8782  0.4049 -0.0265
 1929TIP3   OH227201   5.407   5.520  13.626 -0.3732 -0.7614  0.3463
 1929TIP3    H127202   5.405   5.613  13.603  2.0862 -0.9161 -0.8348
 1929TIP3    H227203   5.480   5.513  13.687  1.4769 -2.2979 -1.8825
 1930TIP3   OH227204   4.513   3.509   0.092  0.1020  0.8494 -0.1926
 1930TIP3    H127205   4.503   3.438   0.156  1.7708  0.0822 -0.7304
 1930TIP3    H227206   4.432   3.506   0.040 -0.2099 -0.1155  0.3227
 1931TIP3   OH227207   1.445   0.035  11.447 -0.3167  0.5976  0.1823
 1931TIP3    H127208   1.404   0.112  11.485 -0.1169  0.0770  1.5089
 1931TIP3    H227209   1.488   0.067  11.368  0.5611  2.0382  1.2097
 1932TIP3   OH227210   1.656   0.830  12.640 -0.8316  0.0374  0.1200
 1932TIP3    H127211   1.727   0.805  12.698 -0.0093 -0.7117 -1.1577
 1932TIP3    H227212   1.682   0.917  12.607 -0.7388 -0.0315  0.0110
 1933TIP3   OH227213   2.590   2.935   2.851 -0.0084  0.1569  0.1132
 1933TIP3    H127214   2.677   2.934   2.889 -0.0613 -0.1510  0.2299
 1933TIP3    H227215   2.532   2.962   2.922 -0.0877 -0.2670  0.2133
 1934TIP3   OH227216   2.282   4.497  11.619  0.8201  0.0357  0.2069
 1934TIP3    H127217   2.225   4.549  11.562  0.6732 -0.0405  0.2826
 1934TIP3    H227218   2.324   4.433  11.560 -1.1652 -1.6590  0.5139
 1935TIP3   OH227219   1.733   3.833  13.549 -0.1759  0.6815 -0.6323
 1935TIP3    H127220   1.704   3.831  13.458 -0.4814  0.1404 -0.5256
 1935TIP3    H227221   1.756   3.925  13.565 -1.3619  1.0349 -0.8651
 1936TIP3   OH227222   0.623   2.723  14.931  0.5767  0.1423 -0.0203
 1936TIP3    H127223   0.645   2.808  14.892 -1.1900  1.4757  1.7211
 1936TIP3    H227224   0.652   2.730  15.022 -0.1048 -0.8965  0.2908
 1937TIP3   OH227225   1.830   6.310  15.970  0.1783  0.4165 -0.1979
 1937TIP3    H127226   1.784   6.234  16.006  0.2594 -0.5203 -1.9666
 1937TIP3    H227227   1.923   6.290  15.985  0.1930  0.2284 -0.5328
 1938TIP3   OH227228   2.290   0.226  11.091  0.0919  0.0399 -0.4898
 1938TIP3    H127229   2.201   0.248  11.120  0.6026 -0.0300  1.2250
 1938TIP3    H227230   2.317   0.302  11.038  0.1692  1.5852  1.6432
 1939TIP3   OH227231   3.988   4.154  12.552 -0.0961 -0.7890  0.3493
 1939TIP3    H127232   4.081   4.168  12.568 -0.1454  0.6213 -0.4615
 1939TIP3    H227233   3.946   4.175  12.636  0.1385  0.9608  0.0762
 1940TIP3   OH227234   0.444   2.066  16.082  0.3003 -0.1320 -0.1015
 1940TIP3    H127235   0.498   2.019  16.019  0.6823  1.4515 -0.9888
 1940TIP3    H227236   0.456   2.159  16.062 -3.2558  0.3348 -0.8475
 1941TIP3   OH227237   4.250   4.782  16.770 -0.0924  0.0980 -0.1023
 1941TIP3    H127238   4.294   4.815  16.692  1.1409 -0.1907  0.4421
 1941TIP3    H227239   4.157   4.783  16.748  0.0574  2.0280 -0.8049
 1942TIP3   OH227240   5.955   0.237   3.893 -0.1835  0.4222  0.4515
 1942TIP3    H127241   5.958   0.256   3.987 -0.9524 -0.7442  0.7317
 1942TIP3    H227242   6.045   0.251   3.863 -0.4093  3.2574  0.8185
 1943TIP3   OH227243   2.931   3.892  14.806  0.2323  0.0733  0.1563
 1943TIP3    H127244   2.854   3.912  14.859 -0.5315  0.9800 -1.2242
 1943TIP3    H227245   2.895   3.872  14.719  1.3984 -1.7621  0.0292
 1944TIP3   OH227246   2.592   3.178  14.129 -0.3027 -0.3068 -0.1182
 1944TIP3    H127247   2.599   3.215  14.041  0.1794 -0.2447 -0.0543
 1944TIP3    H227248   2.653   3.105  14.130 -0.5850 -0.5409  0.0462
 1945TIP3   OH227249   0.988   0.725   0.005  0.0955  0.1447 -0.0129
 1945TIP3    H127250   1.069   0.712   0.056 -0.1527 -1.4438  0.0238
 1945TIP3    H227251   0.980   0.646  -0.048 -1.2983  0.4074 -0.2309
 1946TIP3   OH227252   6.477   4.876   0.916 -0.4043  0.5241  0.2349
 1946TIP3    H127253   6.539   4.819   0.871  0.7662  1.9084  0.0308
 1946TIP3    H227254   6.470   4.954   0.861 -0.8267  1.2135  1.2245
 1947TIP3   OH227255   1.635   4.149  16.585  0.3843 -0.9159 -0.0687
 1947TIP3    H127256   1.729   4.156  16.570  0.1284  0.4694 -1.1779
 1947TIP3    H227257   1.597   4.142  16.497 -0.6697  0.4376  0.2538
 1948TIP3   OH227258   0.218   0.471   4.290  0.2763 -0.0382 -0.9597
 1948TIP3    H127259   0.291   0.436   4.238  0.7755 -0.7432  0.1794
 1948TIP3    H227260   0.170   0.394   4.320  0.2862  0.3276  0.0285
 1949TIP3   OH227261   5.109   3.807   0.769  0.1551  0.5075  0.4710
 1949TIP3    H127262   5.077   3.897   0.778 -0.5473  0.3718 -0.4503
 1949TIP3    H227263   5.203   3.813   0.785  0.1581  1.4476  0.1630
 1950TIP3   OH227264   3.962   1.733  14.895  0.2628  0.5767 -0.3359
 1950TIP3    H127265   4.002   1.677  14.830 -2.5820 -2.4971  0.2802
 1950TIP3    H227266   3.929   1.808  14.846  0.7253 -0.2272 -1.9189
 1951TIP3   OH227267   5.969   2.493   1.201 -0.1211  0.0311  0.6997
 1951TIP3    H127268   6.028   2.442   1.257 -0.8691 -0.1917  1.3114
 1951TIP3    H227269   5.888   2.501   1.253 -1.5203 -1.7704 -1.0717
 1952TIP3   OH227270   4.913   5.340  15.040  0.2110  0.3436 -0.2608
 1952TIP3    H127271   4.915   5.246  15.020 -3.7952  0.3098 -1.4526
 1952TIP3    H227272   4.879   5.344  15.129 -2.9568  0.4935 -1.3339
 1953TIP3   OH227273   2.633   4.402   0.538  0.2656 -0.5004  0.0674
 1953TIP3    H127274   2.648   4.470   0.473  0.1712 -0.1042  0.4559
 1953TIP3    H227275   2.720   4.378   0.569  0.2755 -0.2535  0.2347
 1954TIP3   OH227276   4.967   2.529   6.363 -0.0385  0.0454 -0.0667
 1954TIP3    H127277   4.926   2.457   6.315 -1.2629  0.5607  0.1752
 1954TIP3    H227278   5.010   2.486   6.437 -1.8037 -0.3668  0.7796
 1955TIP3   OH227279   6.375   2.382  15.295 -0.2320 -0.0170  0.0478
 1955TIP3    H127280   6.382   2.286  15.287 -2.5413 -0.1271 -1.9178
 1955TIP3    H227281   6.438   2.416  15.233  0.1492 -0.2719  0.2883
 1956TIP3   OH227282   3.746   6.616  13.792 -0.0376  0.0331  0.0590
 1956TIP3    H127283   3.660   6.617  13.834  0.2389  0.1389  0.6306
 1956TIP3    H227284   3.808   6.608  13.864  0.6227  3.1202 -0.0150
 1957TIP3   OH227285   4.749   2.403  12.046  0.4665  0.0391 -0.2669
 1957TIP3    H127286   4.686   2.475  12.054 -0.3523 -0.6280 -0.5315
 1957TIP3    H227287   4.787   2.414  11.959  0.4665  0.2560 -0.2384
 1958TIP3   OH227288   1.174   5.086   5.300  0.2866  0.7447  0.0241
 1958TIP3    H127289   1.227   5.067   5.223  1.3912  1.1872  0.6512
 1958TIP3    H227290   1.128   5.004   5.319  1.4780  0.0595  0.0252
 1959TIP3   OH227291   1.767   2.665   1.790 -0.8546  0.0267  0.0746
 1959TIP3    H127292   1.812   2.597   1.840 -0.3169  1.5937  1.8550
 1959TIP3    H227293   1.723   2.718   1.857 -0.8993  1.6773 -1.2087
 1960TIP3   OH227294   2.248   0.964  15.582  0.4203 -0.3463 -0.2942
 1960TIP3    H127295   2.239   0.985  15.675  1.1217  1.6970 -0.6485
 1960TIP3    H227296   2.173   1.007  15.540 -2.7159 -5.0340 -0.3038
 1961TIP3   OH227297   0.837   5.600   1.449  0.2061 -0.7702 -0.7180
 1961TIP3    H127298   0.766   5.650   1.489  0.6809  0.2300 -1.0809
 1961TIP3    H227299   0.847   5.523   1.505  1.1940  0.8133  1.4501
 1962TIP3   OH227300   3.091   1.571  17.224 -0.6592  0.1154 -0.1448
 1962TIP3    H127301   3.150   1.529  17.286 -0.4859 -0.5644 -0.7584
 1962TIP3    H227302   3.081   1.661  17.257  1.7042  0.6499 -0.7231
 1963TIP3   OH227303   6.206   0.192   6.707 -0.4234 -0.1530  0.1449
 1963TIP3    H127304   6.146   0.266   6.716  0.7770  0.6435  2.4014
 1963TIP3    H227305   6.218   0.182   6.613 -1.0937  2.1480 -0.2438
 1964TIP3   OH227306   3.107   1.917  14.340 -0.9558 -0.3016 -0.5549
 1964TIP3    H127307   3.163   1.985  14.377  1.6266 -2.1591 -0.7678
 1964TIP3    H227308   3.063   1.960  14.266  0.6189  1.1199 -0.7172
 1965TIP3   OH227309   4.852   6.508   1.238  0.3054 -0.3765 -0.5333
 1965TIP3    H127310   4.945   6.531   1.244  0.1974  0.2207 -1.1334
 1965TIP3    H227311   4.806   6.584   1.272 -0.0137 -0.1013 -1.5641
 1966TIP3   OH227312   0.303   4.702   1.447  0.5395  0.4692  0.5661
 1966TIP3    H127313   0.372   4.680   1.384 -1.0937  1.8965 -1.8701
 1966TIP3    H227314   0.275   4.617   1.482 -0.3070 -0.7264 -2.6840
 1967TIP3   OH227315   4.488   4.909   5.302  0.3432  0.0822  0.0023
 1967TIP3    H127316   4.579   4.934   5.317 -0.0705  1.1028  1.0166
 1967TIP3    H227317   4.490   4.854   5.224  1.8818 -0.3334  0.3075
 1968TIP3   OH227318   6.384   1.081  15.118 -0.4379 -0.2917  0.1141
 1968TIP3    H127319   6.375   1.113  15.207 -2.3308  2.3483 -0.8760
 1968TIP3    H227320   6.466   1.120  15.086 -0.7406  0.3883  0.1444
 1969TIP3   OH227321   6.091   1.153  14.465  0.3338  0.2033  0.0531
 1969TIP3    H127322   6.019   1.206  14.430 -0.0189 -0.4758 -0.2564
 1969TIP3    H227323   6.058   1.120  14.548 -0.4953 -1.7194 -0.9806
 1970TIP3   OH227324   6.764   5.662   5.828 -0.4443 -0.2672  0.1295
 1970TIP3    H127325   6.778   5.567   5.834 -0.4350 -0.1983  1.7188
 1970TIP3    H227326   6.677   5.675   5.867  0.7320  0.6250  2.6825
 1971TIP3   OH227327   5.094   4.765  13.657  0.3373 -0.8226  0.0986
 1971TIP3    H127328   5.017   4.818  13.634 -0.1502 -0.5463  2.1638
 1971TIP3    H227329   5.156   4.781  13.586 -1.2351 -0.5142 -1.2866
 1972TIP3   OH227330   2.968   2.887   1.310  0.0792  0.5210 -0.2069
 1972TIP3    H127331   3.052   2.889   1.356  0.4143 -0.4952 -0.7268
 1972TIP3    H227332   2.918   2.819   1.354 -0.4871  1.1292  0.1049
 1973TIP3   OH227333   1.053   0.889  13.572 -0.4625 -0.1873  0.4445
 1973TIP3    H127334   1.017   0.944  13.501 -0.9673  0.5027  1.2126
 1973TIP3    H227335   0.981   0.880  13.634 -0.5110 -2.0581  0.1774
 1974TIP3   OH227336   2.269   3.475   4.470 -0.2148  0.5103 -0.2513
 1974TIP3    H127337   2.299   3.459   4.381  0.3356 -0.3210  0.0744
 1974TIP3    H227338   2.270   3.389   4.512 -0.4332  0.8928  0.5695
 1975TIP3   OH227339   4.124   1.364  15.647  0.2541 -0.2722 -0.1155
 1975TIP3    H127340   4.075   1.417  15.709 -1.3522 -0.4308 -1.1840
 1975TIP3    H227341   4.179   1.427  15.601 -0.2451  0.1978 -0.0880
 1976TIP3   OH227342   0.388   1.065  14.119 -0.3102 -0.5716 -0.6081
 1976TIP3    H127343   0.464   1.074  14.062  0.2708 -1.2410  0.0466
 1976TIP3    H227344   0.315   1.096  14.066  0.4863  0.5803 -1.0527
 1977TIP3   OH227345   6.371   2.000  13.501 -0.0909 -0.2553 -0.2328
 1977TIP3    H127346   6.464   1.980  13.493  0.1051  0.2527  0.6239
 1977TIP3    H227347   6.369   2.083  13.549 -0.9978 -0.5598  0.2802
 1978TIP3   OH227348   2.519   6.115  11.795  0.7673 -0.2376  0.1238
 1978TIP3    H127349   2.462   6.142  11.866  0.7506 -2.1775  0.9156
 1978TIP3    H227350   2.513   6.019  11.794  0.7814 -0.2920 -2.4975
 1979TIP3   OH227351   5.214   3.072  15.365  0.1581 -0.3991  0.2148
 1979TIP3    H127352   5.139   3.096  15.311 -0.6002  0.0853  1.4440
 1979TIP3    H227353   5.260   3.155  15.380 -0.6835 -0.1842  1.8230
 1980TIP3   OH227354   0.082   6.415   1.765  0.1831 -0.0345 -0.5092
 1980TIP3    H127355   0.145   6.347   1.789  0.1973 -0.3802 -1.4893
 1980TIP3    H227356   0.050   6.448   1.849  0.8346 -0.6339 -0.0102
 1981TIP3   OH227357   3.665   4.352   3.805 -0.0562 -0.1629  0.3842
 1981TIP3    H127358   3.672   4.391   3.718 -2.6316  1.6160  0.8601
 1981TIP3    H227359   3.705   4.416   3.863  0.5522 -0.7788  0.6563
 1982TIP3   OH227360   0.866   2.962   1.830  0.2460 -0.3377  0.1900
 1982TIP3    H127361   0.828   2.912   1.758  0.0998 -0.3310  0.2621
 1982TIP3    H227362   0.879   3.049   1.794  1.0340 -0.5772 -0.1115
 1983TIP3   OH227363   6.473   6.537   5.265  0.2632  0.4322  0.0224
 1983TIP3    H127364   6.488   6.509   5.355  1.8202 -0.0501 -0.3611
 1983TIP3    H227365   6.470   6.456   5.215  0.5549  0.7444 -0.5078
 1984TIP3   OH227366   0.492   3.301   0.238 -0.4699 -0.3650  0.2047
 1984TIP3    H127367   0.570   3.307   0.292 -0.5776 -1.2605  0.4708
 1984TIP3    H227368   0.420   3.295   0.301 -0.8028  0.8825 -0.0326
 1985TIP3   OH227369   6.279   5.034  15.011 -0.0077 -0.1986  0.2858
 1985TIP3    H127370   6.340   5.014  14.940 -0.5914  0.9245 -0.5681
 1985TIP3    H227371   6.289   5.128  15.025 -2.1958  0.2270 -0.5569
 1986TIP3   OH227372   4.642   6.014  12.400 -0.1153  0.4346  0.3241
 1986TIP3    H127373   4.724   5.974  12.370 -0.2962 -0.0040  0.4113
 1986TIP3    H227374   4.639   5.993  12.494 -0.2904  0.5185  0.3362
 1987TIP3   OH227375   5.868   5.513  12.014  0.7849 -0.4170  0.0732
 1987TIP3    H127376   5.850   5.436  12.067  2.2082 -1.1890 -0.4974
 1987TIP3    H227377   5.913   5.573  12.073 -0.4862  0.0642  0.5664
 1988TIP3   OH227378   5.242   2.703   5.028  0.5529 -0.0127  0.1326
 1988TIP3    H127379   5.321   2.716   4.976 -0.3767  2.8962 -0.7488
 1988TIP3    H227380   5.274   2.683   5.116  2.3640  2.3245  0.1057
 1989TIP3   OH227381   5.029   0.736   2.504 -0.3019  0.0703  0.0421
 1989TIP3    H127382   5.019   0.641   2.518  0.5263 -0.2918 -1.5954
 1989TIP3    H227383   5.012   0.774   2.590 -0.6996 -1.5598  0.7351
 1990TIP3   OH227384   1.868   4.527   5.612 -0.2084  0.2978 -0.2683
 1990TIP3    H127385   1.776   4.502   5.602 -0.7617  1.9505  0.3527
 1990TIP3    H227386   1.882   4.596   5.547  0.9552 -0.7553 -1.1803
 1991TIP3   OH227387   3.463   5.885   0.893  0.4207  0.4548  0.1739
 1991TIP3    H127388   3.450   5.914   0.984 -0.5255 -1.8973  0.8684
 1991TIP3    H227389   3.556   5.864   0.887  0.7623  1.8503  0.1623
 1992TIP3   OH227390   5.718   0.771  11.370 -0.1666 -0.1360  0.4087
 1992TIP3    H127391   5.645   0.832  11.379  0.2567  0.4834 -0.2355
 1992TIP3    H227392   5.683   0.699  11.317 -0.2572  0.2650 -0.0847
 1993TIP3   OH227393   0.983   0.668   4.474  0.0010  0.3434  0.7506
 1993TIP3    H127394   1.022   0.636   4.556  1.0185 -1.4316 -0.3507
 1993TIP3    H227395   1.057   0.673   4.414 -0.0971  4.6897  0.6702
 1994TIP3   OH227396   6.364   0.985  15.952  0.5187 -0.0259  0.5003
 1994TIP3    H127397   6.307   1.058  15.977  0.1935 -0.7545  2.0129
 1994TIP3    H227398   6.346   0.917  16.018  1.3722 -1.1849 -0.4185
 1995TIP3   OH227399   2.614   6.721   6.314 -0.1447 -0.5020  0.4010
 1995TIP3    H127400   2.708   6.718   6.334 -0.1938 -0.9541  0.5783
 1995TIP3    H227401   2.572   6.720   6.400 -0.2785  3.3207  0.5575
 1996TIP3   OH227402   3.386   4.224   1.661 -0.6424 -0.1532  0.2979
 1996TIP3    H127403   3.374   4.303   1.714  1.9810 -0.0985  0.9643
 1996TIP3    H227404   3.464   4.242   1.608 -0.5397 -1.9302 -0.2367
 1997TIP3   OH227405   1.616   3.753  16.088  0.5596  0.2763  0.5199
 1997TIP3    H127406   1.675   3.694  16.135  0.9102  0.0101 -0.2425
 1997TIP3    H227407   1.547   3.697  16.055 -0.0932  0.5756  1.3399
 1998TIP3   OH227408   5.835   4.568   5.415  0.2335 -0.0334  0.1362
 1998TIP3    H127409   5.858   4.586   5.506  1.7041  0.9982 -0.4031
 1998TIP3    H227410   5.917   4.580   5.367 -0.7347  0.4519 -1.4689
 1999TIP3   OH227411   4.657   3.225  16.847  0.0640 -0.0292  0.0686
 1999TIP3    H127412   4.662   3.140  16.891  0.1402 -1.2519 -2.1689
 1999TIP3    H227413   4.743   3.237  16.807  0.8551  2.2467  2.2092
 2000TIP3   OH227414   5.781   5.776  12.820  0.1408 -0.5213 -0.6541
 2000TIP3    H127415   5.687   5.777  12.804  0.0376 -3.6295 -0.8502
 2000TIP3    H227416   5.791   5.737  12.907  1.2576  0.4396 -0.3161
 2001TIP3   OH227417   4.398   6.731   2.546  0.1828 -0.0386  0.0753
 2001TIP3    H127418   4.347   6.807   2.518  1.7794  1.3307  0.7752
 2001TIP3    H227419   4.373   6.717   2.637  1.1223  0.7274  0.4652
 2002TIP3   OH227420   3.825   3.287  17.225 -0.2082  0.4985 -0.1946
 2002TIP3    H127421   3.836   3.381  17.231 -1.5689  0.6344  0.5963
 2002TIP3    H227422   3.777   3.272  17.144  0.9451  0.3756 -0.8706
 2003TIP3   OH227423   2.242   5.636   4.725 -0.8586 -0.1754  0.0045
 2003TIP3    H127424   2.319   5.588   4.694  0.3089  1.8539 -0.3799
 2003TIP3    H227425   2.263   5.728   4.712 -2.2658  0.5946  2.4018
 2004TIP3   OH227426   1.426   4.693   1.736  0.2280 -0.1687 -0.0320
 2004TIP3    H127427   1.460   4.712   1.824  2.6023 -1.0877 -0.6664
 2004TIP3    H227428   1.422   4.598   1.732 -0.2615 -0.1242 -0.7854
 2005TIP3   OH227429   0.501   6.404   2.441 -0.7911 -0.0893 -0.0451
 2005TIP3    H127430   0.444   6.465   2.393  0.1735 -1.1877 -2.7594
 2005TIP3    H227431   0.541   6.458   2.508 -0.9960  2.0012 -1.4908
 2006TIP3   OH227432   2.132   3.621   3.457 -0.8379  0.2999 -0.0138
 2006TIP3    H127433   2.224   3.623   3.428 -1.1358 -0.8168 -1.1189
 2006TIP3    H227434   2.090   3.691   3.408 -1.1753 -1.0930 -1.8282
 2007TIP3   OH227435   5.144   6.552   5.616 -0.1870 -0.3426 -0.5523
 2007TIP3    H127436   5.069   6.580   5.668  2.1399  0.4068  2.6811
 2007TIP3    H227437   5.155   6.622   5.551 -0.8256  0.7958  0.5328
 2008TIP3   OH227438   1.731   4.596   5.011 -0.1502 -0.2272 -0.1632
 2008TIP3    H127439   1.791   4.529   5.044  1.2390 -0.1176 -2.2830
 2008TIP3    H227440   1.774   4.679   5.029  0.8738 -0.1798 -2.4947
 2009TIP3   OH227441   5.705   4.371  15.313 -0.2712 -0.5810 -0.4394
 2009TIP3    H127442   5.628   4.416  15.348  1.0344  1.8746 -0.4847
 2009TIP3    H227443   5.717   4.407  15.226  2.1398  0.8604  0.3680
 2010TIP3   OH227444   4.581   2.810   2.361 -0.0720  0.1691 -0.1928
 2010TIP3    H127445   4.514   2.797   2.428  1.3636 -0.1658  1.2233
 2010TIP3    H227446   4.586   2.905   2.350  0.1842  0.2629  0.7027
 2011TIP3   OH227447   4.423   6.338  11.435 -0.0886 -0.2121  0.1987
 2011TIP3    H127448   4.427   6.249  11.469  1.6400  0.5764  2.3157
 2011TIP3    H227449   4.458   6.392  11.506  0.9314  1.9201 -1.7922
 2012TIP3   OH227450   0.332   5.879   5.604  0.2413 -0.3997  0.3525
 2012TIP3    H127451   0.265   5.844   5.545 -0.1771 -3.1034  2.2551
 2012TIP3    H227452   0.415   5.852   5.565  0.1177  0.4843 -0.5443
 2013TIP3   OH227453   5.393   1.083   1.101  0.1503 -0.2618  0.3487
 2013TIP3    H127454   5.463   1.038   1.148  0.9398 -0.2550 -0.7961
 2013TIP3    H227455   5.402   1.054   1.010 -1.1810 -0.0648  0.1319
 2014TIP3   OH227456   6.567   0.030  12.348  0.4142  0.1074  0.4450
 2014TIP3    H127457   6.640   0.017  12.288 -0.1165 -1.2421  0.0528
 2014TIP3    H227458   6.514   0.099  12.308  1.0280  0.5082  0.3152
 2015TIP3   OH227459   3.809   0.130   2.094 -0.3322 -0.2324  0.1046
 2015TIP3    H127460   3.757   0.189   2.038  1.0391  1.3168  0.3983
 2015TIP3    H227461   3.872   0.090   2.034 -0.2977 -0.2743  0.1693
 2016TIP3   OH227462   5.578   2.825   3.818  0.0661  0.3542 -0.0740
 2016TIP3    H127463   5.492   2.862   3.795 -0.2132  0.3710  0.9613
 2016TIP3    H227464   5.636   2.901   3.819  0.0290  0.3912 -0.4476
 2017TIP3   OH227465   1.621   6.389   4.560 -0.9425 -0.3807  0.6266
 2017TIP3    H127466   1.680   6.377   4.634 -0.1275  0.1333  0.0855
 2017TIP3    H227467   1.548   6.330   4.577  0.4986 -2.2688  0.5147
 2018TIP3   OH227468   6.286   3.035   1.145 -0.1973  0.1257  0.9380
 2018TIP3    H127469   6.319   3.034   1.055  0.6045 -1.1140  1.2181
 2018TIP3    H227470   6.358   3.071   1.197 -0.6765  0.8843  1.0877
 2019TIP3   OH227471   1.810   6.526   3.456  0.1556 -0.1338  0.4429
 2019TIP3    H127472   1.720   6.515   3.424 -0.0866  2.2183  0.1823
 2019TIP3    H227473   1.851   6.441   3.439 -2.2547 -1.6352  1.5034
 2020TIP3   OH227474   5.015   1.481   5.825  0.2324 -0.1185  0.1218
 2020TIP3    H127475   5.045   1.394   5.799  2.1127  0.4812  0.1544
 2020TIP3    H227476   5.000   1.474   5.919  2.0194  0.0027  0.4410
 2021TIP3   OH227477   6.628   3.256  11.942 -0.1562  0.5130 -0.3408
 2021TIP3    H127478   6.658   3.347  11.948  0.2212  0.3273  1.2735
 2021TIP3    H227479   6.535   3.263  11.919  0.0808  1.2639 -1.1294
 2022TIP3   OH227480   5.733   4.255   3.915  0.3683  0.0949  0.2461
 2022TIP3    H127481   5.646   4.238   3.951 -0.1746 -1.1232 -1.5100
 2022TIP3    H227482   5.734   4.349   3.900 -0.5108  0.1839  0.6537
 2023TIP3   OH227483   4.964   1.323   3.962 -0.5668  0.4582 -0.1910
 2023TIP3    H127484   4.945   1.382   3.889  1.0418 -0.4370 -1.4015
 2023TIP3    H227485   5.024   1.258   3.925  1.4392  0.7594  2.2527
 2024TIP3   OH227486   5.920   5.384  13.167 -0.1213  0.1139  0.2914
 2024TIP3    H127487   5.913   5.394  13.262 -0.4321  0.5198  0.2238
 2024TIP3    H227488   6.013   5.401  13.149  0.3302 -1.6732  0.7255
 2025TIP3   OH227489   5.280   5.595  11.288  0.9393  0.3423  0.0147
 2025TIP3    H127490   5.355   5.573  11.233  0.5929 -0.1013 -0.2818
 2025TIP3    H227491   5.205   5.596  11.228  0.5119 -0.4211  0.5213
 2026TIP3   OH227492   1.051   0.203  12.945  0.4218  0.0958 -0.4124
 2026TIP3    H127493   1.146   0.208  12.936  0.5551 -0.0330  0.7777
 2026TIP3    H227494   1.024   0.294  12.961  0.7444 -0.2112  2.4573
 2027TIP3   OH227495   6.085   2.766  15.632 -0.3005  0.1022 -0.1138
 2027TIP3    H127496   6.009   2.824  15.638  0.0404  0.6045 -0.6371
 2027TIP3    H227497   6.067   2.697  15.696 -0.5579  0.9460  0.7463
 2028TIP3   OH227498   5.920   5.547  12.506 -0.0933 -0.1858  0.2775
 2028TIP3    H127499   5.932   5.638  12.480 -0.2378 -0.0294  0.7483
 2028TIP3    H227500   5.990   5.530  12.569 -1.2046  0.1882  1.6530
 2029TIP3   OH227501   5.870   1.182   4.841  0.1721 -0.1012 -0.3784
 2029TIP3    H127502   5.909   1.225   4.765 -0.8875  0.1229 -0.8093
 2029TIP3    H227503   5.944   1.166   4.900  1.1147 -0.9609 -1.7633
 2030TIP3   OH227504   1.515   6.158  12.707  0.0700  0.1403  0.1825
 2030TIP3    H127505   1.451   6.086  12.704  0.7586 -0.6060  1.8605
 2030TIP3    H227506   1.480   6.223  12.646 -1.8091 -0.6293  0.3438
 2031TIP3   OH227507   5.108   1.713   1.553  0.2576  0.1457 -0.3048
 2031TIP3    H127508   5.046   1.650   1.589 -0.3101  1.2819  0.7621
 2031TIP3    H227509   5.159   1.663   1.489  0.2993 -1.5573  1.0030
 2032TIP3   OH227510   5.611   4.017   4.149 -0.8972 -0.7031 -0.3141
 2032TIP3    H127511   5.705   4.031   4.137 -0.4941 -2.2002  0.8719
 2032TIP3    H227512   5.589   3.950   4.084 -1.6031  0.9530 -1.9055
 2033TIP3   OH227513   1.345   0.658  13.679 -0.1673 -0.2589 -0.2296
 2033TIP3    H127514   1.330   0.738  13.729 -0.0696  0.1947 -0.9036
 2033TIP3    H227515   1.437   0.665  13.651  0.1076 -1.0389  0.4547
 2034TIP3   OH227516   3.346   1.185   1.654 -0.0099 -0.3633  0.0050
 2034TIP3    H127517   3.440   1.198   1.641 -0.3019  0.1327 -1.8468
 2034TIP3    H227518   3.324   1.112   1.596 -1.0272  0.5417 -0.7907
 2035TIP3   OH227519   4.947   0.485   0.651 -0.5649 -0.0909 -0.2241
 2035TIP3    H127520   4.880   0.531   0.701 -1.6778 -0.7954 -1.0162
 2035TIP3    H227521   4.904   0.404   0.622  0.0759  0.2036 -2.1596
 2036TIP3   OH227522   2.198   0.877   4.807 -0.3707 -0.3192 -0.1518
 2036TIP3    H127523   2.150   0.795   4.820 -0.2477 -0.0915  2.1398
 2036TIP3    H227524   2.130   0.941   4.784 -1.1848 -0.1147  2.5409
 2037TIP3   OH227525   1.103   3.799   0.228 -0.2800  0.2097 -0.0751
 2037TIP3    H127526   1.095   3.883   0.182 -1.1042  0.8760  1.2198
 2037TIP3    H227527   1.194   3.795   0.255  0.8070 -1.1788 -3.4776
 2038TIP3   OH227528   5.530   6.564   5.708  0.0711 -0.1339  0.2497
 2038TIP3    H127529   5.552   6.639   5.763  0.1066 -0.0887  0.1747
 2038TIP3    H227530   5.601   6.561   5.644 -0.9165  0.9441 -0.9462
 2039TIP3   OH227531   2.321   0.910  15.294 -0.2680  0.4138 -0.4249
 2039TIP3    H127532   2.280   0.980  15.345 -0.1231 -0.5503  1.1034
 2039TIP3    H227533   2.366   0.955  15.222  0.8346  2.0371  1.1784
 2040TIP3   OH227534   3.937   5.457  16.627 -0.1981 -0.0812 -0.3598
 2040TIP3    H127535   4.023   5.424  16.600  0.4881  0.0637  1.4947
 2040TIP3    H227536   3.908   5.395  16.693 -0.5503  1.0273  0.5439
 2041TIP3   OH227537   4.245   4.261  16.975  0.3692 -0.0362 -0.8638
 2041TIP3    H127538   4.298   4.325  17.022  2.5850 -0.4040 -2.6678
 2041TIP3    H227539   4.250   4.182  17.029  0.2830  0.3950 -0.2131
 2042TIP3   OH227540   1.856   0.944  13.781 -0.0495  0.2128 -0.2044
 2042TIP3    H127541   1.894   1.022  13.741 -2.2480  1.6351  0.2835
 2042TIP3    H227542   1.867   0.957  13.875 -0.8328  0.1752 -0.0991
 2043TIP3   OH227543   1.611   3.453   3.385 -0.1208 -0.2347 -0.1697
 2043TIP3    H127544   1.545   3.459   3.454  0.4806 -0.5621  0.4331
 2043TIP3    H227545   1.683   3.404   3.424  0.0961 -0.7092 -1.1271
 2044TIP3   OH227546   3.648   4.010  10.758 -0.1902  0.4639  0.3607
 2044TIP3    H127547   3.704   3.943  10.797 -0.8805  0.4318  1.3238
 2044TIP3    H227548   3.703   4.089  10.757  0.9780 -0.3056 -1.7099
 2045TIP3   OH227549   5.704   2.136   1.047 -0.6170 -1.1501  0.1238
 2045TIP3    H127550   5.706   2.118   0.953  2.3369 -0.4554 -0.0623
 2045TIP3    H227551   5.621   2.101   1.077 -1.3988 -1.9048 -2.6440
 2046TIP3   OH227552   0.624   4.184  17.038 -0.4486 -0.0170 -1.1313
 2046TIP3    H127553   0.618   4.279  17.033  1.8578  0.2104 -0.8571
 2046TIP3    H227554   0.540   4.156  17.074 -0.5658  2.0706  0.4036
 2047TIP3   OH227555   0.486   3.612   0.444  0.3939 -0.6020  0.2537
 2047TIP3    H127556   0.396   3.621   0.475 -0.0281  0.0544 -1.0949
 2047TIP3    H227557   0.532   3.687   0.481  0.2951 -0.7270  0.6317
 2048TIP3   OH227558   4.144   2.830   1.467 -0.0763 -0.3251 -0.1337
 2048TIP3    H127559   4.190   2.869   1.542  0.2295 -0.0111 -0.4812
 2048TIP3    H227560   4.055   2.862   1.474  0.0364 -0.0205 -0.0951
 2049TIP3   OH227561   4.518   0.882   1.449  0.1355 -0.2515  0.3673
 2049TIP3    H127562   4.597   0.851   1.406  0.1292 -1.9897  1.4894
 2049TIP3    H227563   4.549   0.928   1.527  0.1422 -3.1288  2.2361
 2050TIP3   OH227564   5.733   0.953  17.080 -0.0379  0.5433  0.2705
 2050TIP3    H127565   5.658   0.927  17.135  0.1960 -0.1462  0.2728
 2050TIP3    H227566   5.695   0.969  16.994 -0.2600  0.6440  0.3866
 2051TIP3   OH227567   0.342   2.542  15.246 -0.3872  0.3000  0.0999
 2051TIP3    H127568   0.368   2.633  15.260 -1.0363  0.4914  0.0943
 2051TIP3    H227569   0.277   2.546  15.175 -0.5741 -0.1415  0.2428
 2052TIP3   OH227570   6.325   1.115  13.773  0.3226 -0.6512 -0.3174
 2052TIP3    H127571   6.274   1.053  13.721 -0.8823  0.3992 -0.4343
 2052TIP3    H227572   6.307   1.200  13.734 -1.3431  0.3147  2.2681
 2053TIP3   OH227573   6.474   6.720  11.684 -0.7748  0.4652 -0.8426
 2053TIP3    H127574   6.455   6.809  11.655  0.0109  0.9899  0.1691
 2053TIP3    H227575   6.475   6.725  11.780 -0.3972 -0.5508 -0.7747
 2054TIP3   OH227576   0.876   1.871  12.979  0.5449 -0.2925  0.3395
 2054TIP3    H127577   0.821   1.947  12.961 -1.7571 -1.9477 -0.0635
 2054TIP3    H227578   0.936   1.900  13.048 -0.5346  1.7343  0.4970
 2055TIP3   OH227579   3.992   0.673  13.745 -0.4554  0.3262 -0.0611
 2055TIP3    H127580   3.945   0.627  13.675  1.9367 -1.5747 -0.5828
 2055TIP3    H227581   4.001   0.763  13.713 -1.2509  0.0309 -1.2078
 2056TIP3   OH227582   0.684   4.392  13.091  0.1574  0.0519 -0.3500
 2056TIP3    H127583   0.638   4.393  13.007 -0.3311 -0.5851 -0.0958
 2056TIP3    H227584   0.775   4.370  13.068  0.3932  1.4751 -0.8704
 2057TIP3   OH227585   6.339   4.770   1.417  0.2342  0.1817  0.7762
 2057TIP3    H127586   6.256   4.761   1.369 -0.4799  0.2231  1.9550
 2057TIP3    H227587   6.406   4.758   1.350 -0.7164  0.9027 -0.3538
 2058TIP3   OH227588   3.967   5.411   2.466  0.4371  0.1644  0.3594
 2058TIP3    H127589   4.059   5.384   2.468 -0.0155 -1.7551 -1.3387
 2058TIP3    H227590   3.933   5.381   2.551  1.0114 -0.6124  0.3323
 2059TIP3   OH227591   2.450   0.938  14.746  0.3741  0.5394 -0.2758
 2059TIP3    H127592   2.543   0.962  14.739  1.0428 -1.2656  1.4504
 2059TIP3    H227593   2.442   0.898  14.832 -1.7433 -0.5123 -0.8997
 2060TIP3   OH227594   3.356   0.298  11.542  0.4237 -0.1608  0.4348
 2060TIP3    H127595   3.438   0.327  11.501 -0.3296  0.7969 -0.4343
 2060TIP3    H227596   3.347   0.354  11.619  1.5702 -1.6054  1.6719
 2061TIP3   OH227597   0.703   3.796  16.274  0.4506 -0.1634 -0.0900
 2061TIP3    H127598   0.638   3.731  16.300  1.0876 -0.7485  0.0635
 2061TIP3    H227599   0.785   3.763  16.310  0.6760  1.0859  0.6221
 2062TIP3   OH227600   1.904   4.630  15.891  0.2340 -0.1922 -0.3605
 2062TIP3    H127601   1.927   4.541  15.920 -0.4280  0.1197  1.2153
 2062TIP3    H227602   1.987   4.678  15.891  0.6135 -0.8137 -1.3184
 2063TIP3   OH227603   0.409   3.318  13.137 -0.1481 -0.2594 -0.2469
 2063TIP3    H127604   0.337   3.270  13.096 -0.4691  0.4793 -0.5795
 2063TIP3    H227605   0.466   3.343  13.064 -1.6841  2.6893 -0.5961
 2064TIP3   OH227606   0.942   3.630   6.496  0.2240 -0.3955 -0.6313
 2064TIP3    H127607   0.918   3.540   6.517 -0.2452  0.0030  0.5995
 2064TIP3    H227608   0.925   3.638   6.402 -2.0954 -0.8915 -0.3132
 2065TIP3   OH227609   1.046   0.934   1.787 -0.1155 -0.0965 -0.1533
 2065TIP3    H127610   0.954   0.907   1.797 -0.4794  0.9109 -0.6416
 2065TIP3    H227611   1.073   0.960   1.875 -0.1289 -0.8840  0.0922
 2066TIP3   OH227612   5.450   1.190  14.937  0.0694  0.2426 -0.2586
 2066TIP3    H127613   5.507   1.127  14.982 -0.2328 -0.0492 -0.2808
 2066TIP3    H227614   5.425   1.253  15.005 -2.7257 -1.7796  0.7956
 2067TIP3   OH227615   0.061   3.799   2.914 -0.0688 -0.2017 -0.3136
 2067TIP3    H127616   0.105   3.715   2.901  0.5493  0.0311  0.2123
 2067TIP3    H227617  -0.024   3.789   2.871 -0.1127 -1.1873 -0.0142
 2068TIP3   OH227618   4.151   1.507  11.155 -0.1138  0.0459 -0.1560
 2068TIP3    H127619   4.139   1.554  11.072  0.5568  2.7352  1.1325
 2068TIP3    H227620   4.246   1.495  11.162  0.5274  4.1924  2.1634
 2069TIP3   OH227621   5.039   6.516   0.568 -0.5120  0.7014 -0.0955
 2069TIP3    H127622   4.983   6.439   0.552 -0.6122  1.0946 -1.7942
 2069TIP3    H227623   5.072   6.502   0.657 -0.1370 -1.5556 -0.5147
 2070TIP3   OH227624   2.912   4.599  13.364 -0.1736  0.4093  0.0556
 2070TIP3    H127625   2.919   4.695  13.372  1.4958  0.3257 -0.0835
 2070TIP3    H227626   2.999   4.567  13.385 -0.1531 -0.9577 -1.8827
 2071TIP3   OH227627   5.114   3.616  11.204 -0.0946  0.4405 -0.1850
 2071TIP3    H127628   5.067   3.657  11.277  0.4882  0.1337  0.3741
 2071TIP3    H227629   5.206   3.620  11.230 -0.0588 -1.8896  0.2583
 2072TIP3   OH227630   6.615   1.459   6.116 -0.2476 -0.1473 -0.5274
 2072TIP3    H127631   6.679   1.397   6.081 -1.7190 -1.2672 -1.3601
 2072TIP3    H227632   6.615   1.531   6.053 -1.2951 -1.1361 -1.7225
 2073TIP3   OH227633   5.631   3.393   0.958  0.2206  0.1074  0.0021
 2073TIP3    H127634   5.714   3.441   0.966  0.7596 -0.4625 -1.6803
 2073TIP3    H227635   5.574   3.434   1.023  1.8198  0.4827  1.2467
 2074TIP3   OH227636   6.426   0.131   5.424 -0.0629 -0.4893 -0.0960
 2074TIP3    H127637   6.461   0.198   5.483  0.0685  0.1487 -0.8758
 2074TIP3    H227638   6.363   0.083   5.477  0.0551  0.0599  0.5641
 2075TIP3   OH227639   5.407   0.554   5.610  0.1829 -0.0478  0.1379
 2075TIP3    H127640   5.464   0.505   5.551  0.9576 -0.9789  1.6011
 2075TIP3    H227641   5.325   0.564   5.562  0.6395 -1.1525 -0.9205
 2076TIP3   OH227642   5.470   3.139  16.523  0.0382  0.0968  0.2472
 2076TIP3    H127643   5.561   3.166  16.539 -0.8165  1.4958  3.6194
 2076TIP3    H227644   5.457   3.155  16.430  3.2137 -0.1833 -0.3754
 2077TIP3   OH227645   5.724   4.790   3.504  0.1078 -0.0617  0.2214
 2077TIP3    H127646   5.711   4.738   3.425  0.2783  0.8051 -0.3883
 2077TIP3    H227647   5.815   4.771   3.530  1.3495  2.4151 -1.8993
 2078TIP3   OH227648   1.307   3.328   5.792 -0.4702 -0.2848  0.3938
 2078TIP3    H127649   1.287   3.297   5.880 -1.4977 -0.7502  0.0076
 2078TIP3    H227650   1.232   3.301   5.739 -2.3842  4.3249  0.3230
 2079TIP3   OH227651   4.074   6.554   4.751  0.4301 -0.1306  0.4836
 2079TIP3    H127652   4.056   6.542   4.658 -0.1635 -1.8178  0.7843
 2079TIP3    H227653   4.033   6.638   4.773  1.0258  0.5497 -0.8639
 2080TIP3   OH227654   4.520   5.059   5.928 -0.2341  0.4456  0.1834
 2080TIP3    H127655   4.560   5.060   5.841 -0.0423 -0.6609  0.2507
 2080TIP3    H227656   4.489   5.149   5.940 -1.2644  0.3634 -1.4837
 2081TIP3   OH227657   3.201   1.833  12.126  0.1214 -0.3496 -0.3178
 2081TIP3    H127658   3.250   1.890  12.067  1.2074 -0.0213  0.8524
 2081TIP3    H227659   3.167   1.892  12.193 -2.0897 -0.5487 -1.2097
 2082TIP3   OH227660   0.502   1.672  16.206  0.8729  0.3985  0.3655
 2082TIP3    H127661   0.527   1.728  16.132  1.9740  0.0867  0.4716
 2082TIP3    H227662   0.577   1.613  16.216  0.2762 -0.2454  1.0667
 2083TIP3   OH227663   3.851   6.235   4.796  0.7837  0.0551  0.2566
 2083TIP3    H127664   3.834   6.330   4.796  0.1574 -0.0332  1.5703
 2083TIP3    H227665   3.778   6.198   4.845  0.7375 -1.1836 -0.7005
 2084TIP3   OH227666   2.349   4.211   4.549 -0.5739  0.0737 -0.1042
 2084TIP3    H127667   2.370   4.196   4.457  0.0079  1.6056 -0.2662
 2084TIP3    H227668   2.255   4.227   4.550 -0.2794  2.1836 -0.8128
 2085TIP3   OH227669   3.829   2.677  11.239  0.0575  0.5659  0.5336
 2085TIP3    H127670   3.882   2.680  11.159  1.3698 -0.3202  1.3407
 2085TIP3    H227671   3.773   2.601  11.228 -1.6684  1.9376 -0.6580
 2086TIP3   OH227672   5.658   6.012   4.518 -0.7411  0.0017  0.3396
 2086TIP3    H127673   5.670   5.978   4.606  0.1752  1.2150  0.7103
 2086TIP3    H227674   5.596   6.084   4.528 -1.7220 -0.7336 -0.2439
 2087TIP3   OH227675   1.444   4.628  13.338 -0.3610  0.4013  0.6248
 2087TIP3    H127676   1.535   4.630  13.367  0.3568 -2.0224 -1.0839
 2087TIP3    H227677   1.396   4.593  13.413  0.4357 -0.0035  0.9621
 2088TIP3   OH227678   3.950   0.506  10.532  0.1435  0.1655 -0.3450
 2088TIP3    H127679   3.897   0.459  10.468 -2.7112  0.4015  1.6500
 2088TIP3    H227680   3.934   0.598  10.514  1.8079  0.3150 -1.1764
 2089TIP3   OH227681   2.575   2.233  14.174 -0.2306 -0.2565 -0.5099
 2089TIP3    H127682   2.582   2.272  14.261  0.2337 -0.7867 -0.3052
 2089TIP3    H227683   2.489   2.191  14.174 -0.6182  0.5143 -0.6338
 2090TIP3   OH227684   0.114   6.480   0.473 -0.2699 -0.2419  0.1389
 2090TIP3    H127685   0.027   6.494   0.436  0.6262  1.4331 -1.4759
 2090TIP3    H227686   0.163   6.558   0.449  1.3217 -0.5149  2.2029
 2091TIP3   OH227687   1.429   0.525  14.380  0.2381  0.8010 -0.0495
 2091TIP3    H127688   1.443   0.479  14.297  0.1707  1.1707 -0.2702
 2091TIP3    H227689   1.510   0.510  14.429  0.5372  1.0901 -0.4354
 2092TIP3   OH227690   2.284   2.032  14.423  0.1828 -0.0960  0.2254
 2092TIP3    H127691   2.247   2.110  14.465  1.2495 -0.1679  1.3454
 2092TIP3    H227692   2.214   1.967  14.428  0.0174  0.1391  1.2237
 2093TIP3   OH227693   6.715   3.841  15.573  0.2557  0.1415 -0.1035
 2093TIP3    H127694   6.638   3.797  15.538 -0.1619 -0.8512  1.9067
 2093TIP3    H227695   6.719   3.814  15.665  2.7993  0.4433 -0.0301
 2094TIP3   OH227696   2.887   6.479   1.174 -0.4144 -0.0414 -0.3129
 2094TIP3    H127697   2.981   6.472   1.160 -0.4599 -1.5155 -0.0784
 2094TIP3    H227698   2.853   6.392   1.151 -1.6707  0.3551 -0.0563
 2095TIP3   OH227699   1.528   4.275   4.019 -0.3040 -0.7510 -0.3487
 2095TIP3    H127700   1.570   4.254   3.936 -0.3608 -2.3611 -0.0095
 2095TIP3    H227701   1.452   4.216   4.023 -2.1806  1.4960 -0.5772
 2096TIP3   OH227702   1.032   0.682  15.848 -0.3732  0.8343  0.1272
 2096TIP3    H127703   1.042   0.604  15.793  2.3199  1.1630  0.0354
 2096TIP3    H227704   0.955   0.663  15.901 -0.4346 -1.4384 -0.6422
 2097TIP3   OH227705   0.353   5.545   5.220  0.1794 -0.3908 -0.4580
 2097TIP3    H127706   0.317   5.478   5.163 -0.4129  0.0233 -0.5840
 2097TIP3    H227707   0.439   5.512   5.245 -0.7639 -2.0077  0.8635
 2098TIP3   OH227708   0.369   5.345  14.363  0.1130 -0.0781 -0.5962
 2098TIP3    H127709   0.461   5.350  14.388 -0.4532  0.5171  1.5684
 2098TIP3    H227710   0.365   5.270  14.303  2.1058  0.3772 -1.3856
 2099TIP3   OH227711   6.637   4.067  17.196  0.0125 -0.5361 -1.0388
 2099TIP3    H127712   6.644   4.024  17.110 -0.3484 -1.0353 -0.8203
 2099TIP3    H227713   6.723   4.053  17.236 -0.4575 -2.0406 -0.5175
 2100TIP3   OH227714   4.120   5.616   1.311 -0.2544 -0.0465 -0.6979
 2100TIP3    H127715   4.208   5.601   1.278 -0.3667  2.4023 -2.3973
 2100TIP3    H227716   4.070   5.642   1.234 -2.1828 -0.2651  0.4232
 2101TIP3   OH227717   4.438   6.792   1.630 -0.1768  0.3185 -0.4796
 2101TIP3    H127718   4.386   6.843   1.568  1.2105 -0.6741 -2.5764
 2101TIP3    H227719   4.495   6.856   1.672 -0.4281  0.8909 -0.9912
 2102TIP3   OH227720   0.710   4.410   3.096  0.1531 -0.6742  0.6084
 2102TIP3    H127721   0.627   4.427   3.052 -0.8138 -2.2188  1.7173
 2102TIP3    H227722   0.717   4.314   3.097  1.6885 -0.5778  1.0029
 2103TIP3   OH227723   1.666   1.844  14.123  0.0875  0.1838  0.2297
 2103TIP3    H127724   1.611   1.920  14.111 -0.2598  0.0961  1.1848
 2103TIP3    H227725   1.666   1.800  14.037  0.6534  1.4694 -0.4542
 2104TIP3   OH227726   4.796   3.250  16.118  0.4066 -0.7714  0.5255
 2104TIP3    H127727   4.878   3.259  16.071  0.3427 -2.5667  0.0018
 2104TIP3    H227728   4.781   3.337  16.157  1.7791 -0.0005 -0.5722
 2105TIP3   OH227729   2.826   6.462  13.728  0.1168 -1.2533 -0.0708
 2105TIP3    H127730   2.823   6.478  13.822  2.0473  0.7439 -0.2606
 2105TIP3    H227731   2.774   6.532  13.689  1.3287 -0.6057 -0.5717
 2106TIP3   OH227732   4.218   5.315   2.223  0.3409 -0.0821  0.3817
 2106TIP3    H127733   4.125   5.309   2.203  0.5903  0.1420 -0.9096
 2106TIP3    H227734   4.221   5.324   2.319 -1.1467  3.5665  0.2408
 2107TIP3   OH227735   0.796   4.601  15.190  0.7391 -0.6090 -0.5315
 2107TIP3    H127736   0.739   4.565  15.123  0.5845  0.0938 -0.7885
 2107TIP3    H227737   0.826   4.685  15.154 -0.4575  0.4624  0.8351
 2108TIP3   OH227738   0.585   6.048  13.126 -0.4294 -0.7162  0.2947
 2108TIP3    H127739   0.619   5.959  13.140  2.2013 -0.0068 -1.0080
 2108TIP3    H227740   0.629   6.101  13.193 -1.4121 -0.2343  0.5809
 2109TIP3   OH227741   5.815   5.921   4.315 -0.1100 -0.0485 -0.1336
 2109TIP3    H127742   5.882   5.983   4.285 -0.2104  0.0119 -0.2368
 2109TIP3    H227743   5.784   5.958   4.397 -0.4045  0.2174 -0.3596
 2110TIP3   OH227744   6.621   1.095   5.139 -0.5895  0.6731 -0.0686
 2110TIP3    H127745   6.700   1.123   5.185 -0.3452  1.0390 -0.7056
 2110TIP3    H227746   6.615   1.001   5.158  0.1543  0.5800 -0.2480
 2111TIP3   OH227747   6.249   0.567  11.296 -0.1595  0.3679 -0.2391
 2111TIP3    H127748   6.287   0.651  11.272  1.2198 -0.9098 -2.9265
 2111TIP3    H227749   6.163   0.566  11.254  0.4283 -0.0931 -1.4811
 2112TIP3   OH227750   3.049   4.516   3.640 -0.0442  0.0109  0.2411
 2112TIP3    H127751   3.051   4.423   3.616 -0.2004 -0.0518  0.4705
 2112TIP3    H227752   3.107   4.558   3.576 -1.4848  0.0378 -1.1115
 2113TIP3   OH227753   5.312   0.283   6.735  0.2774  0.5905  0.2418
 2113TIP3    H127754   5.349   0.248   6.654 -0.5995  1.6761 -0.6817
 2113TIP3    H227755   5.304   0.208   6.793 -0.0632 -0.4257 -1.0745
 2114TIP3   OH227756   4.582   0.217   4.801  0.2982  0.5989  0.0797
 2114TIP3    H127757   4.677   0.210   4.795  0.6236  2.2079  2.1209
 2114TIP3    H227758   4.550   0.179   4.719  2.5473 -2.0535  0.2643
 2115TIP3   OH227759   5.277   5.219   2.283 -0.0598  0.1204 -0.1615
 2115TIP3    H127760   5.227   5.267   2.217  0.7901 -0.5889 -1.3513
 2115TIP3    H227761   5.220   5.145   2.307 -0.6689  0.7701  0.4536
 2116TIP3   OH227762   4.368   2.694   5.884  0.3852  0.1169 -0.0475
 2116TIP3    H127763   4.418   2.691   5.966  1.7420 -0.4016 -0.8576
 2116TIP3    H227764   4.388   2.780   5.847  2.1261 -0.7115 -1.1906
 2117TIP3   OH227765   4.458   4.678  15.385  0.0195  0.0753  0.4030
 2117TIP3    H127766   4.371   4.643  15.367 -0.6175  1.4221  0.7526
 2117TIP3    H227767   4.442   4.765  15.420  1.5295  0.4541  0.2085
 2118TIP3   OH227768   5.858   4.419  10.996 -0.0927  0.7142  0.0822
 2118TIP3    H127769   5.809   4.406  10.915  0.9448 -0.7993 -0.3411
 2118TIP3    H227770   5.920   4.490  10.976  2.0599 -1.4291 -1.4519
 2119TIP3   OH227771   4.276   3.822   0.159  0.0287 -1.2021 -0.0761
 2119TIP3    H127772   4.281   3.905   0.112 -0.2836 -1.0995  0.0657
 2119TIP3    H227773   4.194   3.828   0.209  0.7490 -0.9741  1.1167
 2120TIP3   OH227774   1.243   4.069   2.319  0.3233 -0.6559  0.6645
 2120TIP3    H127775   1.210   4.034   2.236 -0.0976  2.5420 -0.6759
 2120TIP3    H227776   1.338   4.058   2.314  0.3394 -0.1784 -0.4614
 2121TIP3   OH227777   5.609   5.077  16.444 -0.3104  0.2720 -0.1128
 2121TIP3    H127778   5.660   5.092  16.365 -1.2179  1.5267 -0.4851
 2121TIP3    H227779   5.645   5.138  16.509 -0.8459  0.6452 -0.1599
 2122TIP3   OH227780   1.669   4.287   2.029 -0.1914 -0.1174  0.5656
 2122TIP3    H127781   1.689   4.339   2.106  0.5030  2.3807 -1.1877
 2122TIP3    H227782   1.743   4.301   1.970 -2.0616  0.5841 -1.7692
 2123TIP3   OH227783   0.331   4.492  15.317  0.2275 -0.4147  0.1512
 2123TIP3    H127784   0.322   4.584  15.290 -2.6337 -0.5807  0.2384
 2123TIP3    H227785   0.419   4.487  15.355  0.8559  2.0207 -0.7457
 2124TIP3   OH227786   1.421   2.477   0.297 -0.3117 -0.0837  0.3543
 2124TIP3    H127787   1.362   2.508   0.365 -0.5037  0.8585 -0.2215
 2124TIP3    H227788   1.489   2.429   0.344 -0.5188  0.4203  1.1887
 2125TIP3   OH227789   6.103   6.104  14.415 -0.0501  0.5126 -0.3141
 2125TIP3    H127790   6.111   6.137  14.505 -2.0781  1.8666 -0.5384
 2125TIP3    H227791   6.179   6.140  14.369 -0.2561  1.8622  0.3362
 2126TIP3   OH227792   4.872   6.310  13.924  0.2530 -0.0843 -0.5602
 2126TIP3    H127793   4.958   6.343  13.951  0.2385  0.2002 -0.8585
 2126TIP3    H227794   4.861   6.229  13.974  0.9408 -0.4177 -0.9318
 2127TIP3   OH227795   2.956   4.949   1.081  0.0548 -0.3227  0.7262
 2127TIP3    H127796   2.940   4.888   1.009  0.5233 -0.5030  0.7751
 2127TIP3    H227797   2.872   4.954   1.126 -0.3789  0.1372 -0.0895
 2128TIP3   OH227798   2.840   4.857   4.735  0.1910 -0.5226 -0.2928
 2128TIP3    H127799   2.762   4.912   4.736  0.8281  0.5892 -2.8803
 2128TIP3    H227800   2.810   4.772   4.702  0.2666  0.5060 -3.3526
 2129TIP3   OH227801   1.087   1.841   0.516  0.2333 -0.2040  0.0825
 2129TIP3    H127802   1.107   1.934   0.504 -0.8136 -0.0707 -0.8952
 2129TIP3    H227803   1.113   1.801   0.433 -2.0205 -0.2582 -0.6536
 2130TIP3   OH227804   1.749   0.503  12.173 -0.2943 -0.5263  0.0874
 2130TIP3    H127805   1.791   0.510  12.259 -0.3621 -0.3627  0.1068
 2130TIP3    H227806   1.673   0.560  12.178 -1.0465 -1.5151  0.3610
 2131TIP3   OH227807   3.135   2.808   5.177 -0.0279  0.1060  0.0373
 2131TIP3    H127808   3.152   2.859   5.098  1.5936  0.1844  0.3904
 2131TIP3    H227809   3.214   2.821   5.231 -0.3216 -1.3749  0.8816
 2132TIP3   OH227810   4.880   5.578   2.919  0.5742 -0.0023 -0.9130
 2132TIP3    H127811   4.837   5.511   2.866  1.1523 -1.6585  0.6002
 2132TIP3    H227812   4.822   5.654   2.913 -1.8114 -1.6333 -0.2407
 2133TIP3   OH227813   0.100   3.962  13.997 -0.3995  0.0253 -0.1262
 2133TIP3    H127814   0.080   4.025  14.066  1.0795  0.7261 -0.2847
 2133TIP3    H227815   0.119   3.881  14.043  1.2479  0.6653  0.3937
 2134TIP3   OH227816   3.441   0.303   2.771  0.1702 -0.1572  0.3115
 2134TIP3    H127817   3.465   0.322   2.861 -0.3778  1.1684  0.2100
 2134TIP3    H227818   3.524   0.287   2.726  0.4395 -0.8957  1.0561
 2135TIP3   OH227819   5.094   5.288  16.857  0.1326 -0.3738 -0.0873
 2135TIP3    H127820   5.171   5.280  16.914 -0.1464 -1.3499  0.1765
 2135TIP3    H227821   5.021   5.257  16.911 -0.3290 -0.1689 -0.5817
 2136TIP3   OH227822   0.163   4.359   0.143 -0.0120  0.2241 -0.5974
 2136TIP3    H127823   0.076   4.319   0.136 -0.4797  1.3931 -1.8679
 2136TIP3    H227824   0.218   4.309   0.083  0.5976 -1.4514  1.2842
 2137TIP3   OH227825   4.993   1.922   4.848  0.6117 -0.1841 -0.1270
 2137TIP3    H127826   5.022   1.855   4.786  0.4767 -0.1523 -0.2231
 2137TIP3    H227827   5.071   1.974   4.865 -0.0585  1.8365 -2.7682
 2138TIP3   OH227828   2.822   1.792   2.180 -0.5464  0.1736  0.1811
 2138TIP3    H127829   2.826   1.772   2.086 -2.2222  2.5100 -0.5037
 2138TIP3    H227830   2.865   1.718   2.223 -0.6299 -1.4677 -2.3556
 2139TIP3   OH227831   1.627   2.108  11.700  0.3678  0.6584  0.7507
 2139TIP3    H127832   1.604   2.139  11.612  1.1394  0.3348  0.4252
 2139TIP3    H227833   1.610   2.184  11.757 -0.0808  0.8888  0.3211
 2140TIP3   OH227834   1.057   5.360   4.402 -0.3677 -0.5170 -0.1706
 2140TIP3    H127835   1.111   5.414   4.460  0.1417 -2.3132  1.1246
 2140TIP3    H227836   0.981   5.415   4.381  0.4243  0.9098  0.5647
 2141TIP3   OH227837   1.443   4.650  13.725  0.1240 -0.0020  0.4447
 2141TIP3    H127838   1.524   4.647  13.673 -0.4623  0.1269 -0.4999
 2141TIP3    H227839   1.468   4.697  13.805  1.8329 -2.8275  1.7630
 2142TIP3   OH227840   4.676   5.434   5.524  0.1708  0.5414 -0.2226
 2142TIP3    H127841   4.669   5.372   5.452  0.5453  0.6330 -0.3414
 2142TIP3    H227842   4.662   5.519   5.483  0.0046  0.5647 -0.1187
 2143TIP3   OH227843   4.879   5.954  14.709 -0.0449 -0.3088  0.3403
 2143TIP3    H127844   4.806   5.924  14.762 -0.3967  0.9743  0.5929
 2143TIP3    H227845   4.839   5.989  14.629  0.2941  0.2281  0.3986
 2144TIP3   OH227846   2.002   3.467  14.264 -0.0252 -0.0715  0.6127
 2144TIP3    H127847   1.942   3.419  14.207  0.7862 -0.2955 -0.0778
 2144TIP3    H227848   2.058   3.400  14.303  0.7089  0.2470  0.1276
 2145TIP3   OH227849   3.434   4.314  13.283  0.4546  0.5322  0.0813
 2145TIP3    H127850   3.360   4.364  13.250  0.9213  0.3270 -1.3463
 2145TIP3    H227851   3.395   4.251  13.345 -0.8306 -0.6633 -1.8263
 2146TIP3   OH227852   5.286   0.053   3.046  0.4932  0.7671  0.5400
 2146TIP3    H127853   5.246   0.139   3.035 -0.5846  0.9689  4.3453
 2146TIP3    H227854   5.302   0.046   3.141  0.5671 -3.1970  0.4178
 2147TIP3   OH227855   2.345   6.151  14.097 -0.1792  0.3832 -0.0386
 2147TIP3    H127856   2.324   6.232  14.052  3.4847 -0.8510 -4.7237
 2147TIP3    H227857   2.292   6.084  14.053  1.9550 -0.5811 -1.3114
 2148TIP3   OH227858   3.306   1.559   3.767  0.1887  0.1414 -0.3143
 2148TIP3    H127859   3.398   1.571   3.743  0.9477 -2.1999  0.9950
 2148TIP3    H227860   3.310   1.500   3.842 -2.3590  1.0804  0.6363
 2149TIP3   OH227861   6.325   1.044   3.107 -0.0010  0.2756 -0.3069
 2149TIP3    H127862   6.388   0.973   3.113  0.7454  0.9726  0.4402
 2149TIP3    H227863   6.265   1.029   3.180 -1.6367 -1.2086 -1.8576
 2150TIP3   OH227864   2.745   1.295   4.366  0.3419 -0.2805 -0.1150
 2150TIP3    H127865   2.754   1.231   4.437  0.8474  0.6557  0.7063
 2150TIP3    H227866   2.651   1.311   4.360  0.3785  0.7364  1.4141
 2151TIP3   OH227867   4.401   6.573   3.931 -0.5212 -0.0643 -0.5914
 2151TIP3    H127868   4.406   6.504   3.996  0.3670 -0.0718 -0.6624
 2151TIP3    H227869   4.313   6.564   3.893 -0.0927 -1.7440 -1.2513
 2152TIP3   OH227870   5.464   1.063  11.613  0.1658  0.5010 -0.2784
 2152TIP3    H127871   5.532   1.112  11.658  0.7282 -0.2806 -0.2661
 2152TIP3    H227872   5.475   1.084  11.520  0.0411  0.8326 -0.2204
 2153TIP3   OH227873   4.086   0.307  14.389  0.2023 -0.5803  0.6426
 2153TIP3    H127874   4.004   0.284  14.346  0.4773  0.9928 -0.8477
 2153TIP3    H227875   4.068   0.388  14.436  0.4822 -1.1229  1.7114
 2154TIP3   OH227876   5.927   1.822   6.215 -0.5498 -0.5600 -0.1306
 2154TIP3    H127877   5.845   1.846   6.171 -0.7440 -0.3978  0.3177
 2154TIP3    H227878   5.934   1.727   6.202  0.5303 -0.2441 -2.4427
 2155TIP3   OH227879   6.053   1.067   1.842  0.2674  0.3344  0.2569
 2155TIP3    H127880   6.001   1.145   1.824 -0.8657 -0.4425 -0.0123
 2155TIP3    H227881   5.989   0.995   1.839  1.3166 -0.6285  0.2296
 2156TIP3   OH227882   4.455   2.529  15.150  0.5882 -0.7504  1.1673
 2156TIP3    H127883   4.475   2.449  15.101  3.1740 -0.4912  1.6441
 2156TIP3    H227884   4.421   2.590  15.085  1.4629 -1.2758  0.1819
 2157TIP3   OH227885   4.394   6.618  14.903  0.2763 -0.2532  0.2150
 2157TIP3    H127886   4.405   6.710  14.925  0.3261 -0.1783 -0.1269
 2157TIP3    H227887   4.479   6.590  14.870 -0.3921  0.2252 -2.0484
 2158TIP3   OH227888   0.080   0.765   3.026 -0.1533 -0.2507 -0.6926
 2158TIP3    H127889   0.147   0.828   3.002  0.3381  0.7983  2.8679
 2158TIP3    H227890   0.010   0.818   3.064 -0.4401 -1.6725  0.9058
 2159TIP3   OH227891   4.589   5.667  13.189  0.3527 -0.0359  0.1189
 2159TIP3    H127892   4.500   5.670  13.224  0.0087  2.6757 -0.7699
 2159TIP3    H227893   4.581   5.619  13.107 -0.4800  0.8648 -0.3468
 2160TIP3   OH227894   5.691   5.199   1.353  0.0346  0.6233  0.5381
 2160TIP3    H127895   5.669   5.177   1.444  0.1911  0.7124  0.5985
 2160TIP3    H227896   5.741   5.123   1.322 -1.7475 -0.3354 -0.1315
 2161TIP3   OH227897   4.208   3.593  11.483 -0.7932  0.3233 -0.3165
 2161TIP3    H127898   4.269   3.657  11.520 -0.5668 -0.2148  0.2404
 2161TIP3    H227899   4.258   3.512  11.477 -1.2637  0.0368 -0.4627
 2162TIP3   OH227900   6.755   3.256   2.121 -0.5298 -0.0692  0.8485
 2162TIP3    H127901   6.758   3.167   2.156  3.0117 -0.1046  0.8183
 2162TIP3    H227902   6.712   3.247   2.036  2.0921 -2.3286 -0.3758
 2163TIP3   OH227903   6.244   0.402  10.474  0.2069  0.5867 -0.2216
 2163TIP3    H127904   6.299   0.479  10.492 -1.1117  1.1571  1.8260
 2163TIP3    H227905   6.204   0.420  10.389  2.2330  0.6841 -1.2133
 2164TIP3   OH227906   4.896   4.908   4.303 -0.2592 -0.3220 -0.2600
 2164TIP3    H127907   4.825   4.964   4.334  0.4272  0.4029 -0.0013
 2164TIP3    H227908   4.962   4.911   4.372 -0.3798 -1.7748 -0.0480
 2165TIP3   OH227909   2.610   6.733  14.022 -0.0076  0.0851  0.5991
 2165TIP3    H127910   2.566   6.674  13.960 -1.1362  1.9426 -0.4401
 2165TIP3    H227911   2.697   6.695  14.032  0.1479 -0.4315 -1.9810
 2166TIP3   OH227912   1.061   4.042   0.119 -0.1547 -0.0448 -0.0307
 2166TIP3    H127913   0.984   4.100   0.120 -0.3790 -0.3450  0.8014
 2166TIP3    H227914   1.120   4.083   0.055 -0.3609  1.0403  0.4391
 2167TIP3   OH227915   1.094   6.199  16.636  0.4645  0.0549  0.5830
 2167TIP3    H127916   1.169   6.140  16.628 -0.1179 -0.4677 -1.8990
 2167TIP3    H227917   1.133   6.286  16.645  1.4405 -0.1604 -1.0985
 2168TIP3   OH227918   6.198   5.276   5.896 -0.1297 -0.9685 -0.7645
 2168TIP3    H127919   6.243   5.302   5.977  1.5189 -2.4495 -1.1418
 2168TIP3    H227920   6.168   5.187   5.912  0.1073 -1.2371 -1.7127
 2169TIP3   OH227921   1.570   0.622  16.263  0.3072 -0.0919 -0.0188
 2169TIP3    H127922   1.530   0.671  16.334  0.6596  0.3345 -0.1088
 2169TIP3    H227923   1.658   0.658  16.255  0.6272 -0.8394  0.0099
 2170TIP3   OH227924   5.871   1.927   5.587 -0.0280  0.1612  0.6485
 2170TIP3    H127925   5.800   1.983   5.619 -0.6504 -1.0064  1.4049
 2170TIP3    H227926   5.842   1.838   5.608  0.6624 -0.5017 -1.0313
 2171TIP3   OH227927   3.410   3.891   0.789 -0.1334 -0.3289  0.5381
 2171TIP3    H127928   3.432   3.917   0.878 -0.3664 -0.3677  0.6071
 2171TIP3    H227929   3.427   3.969   0.736  2.1491 -0.9388  0.2680
 2172TIP3   OH227930   6.201   3.029   4.145 -0.5732 -0.1516 -0.3452
 2172TIP3    H127931   6.136   2.983   4.198 -0.4658 -1.0086 -0.9401
 2172TIP3    H227932   6.155   3.050   4.064 -0.4681  0.3410 -0.2811
 2173TIP3   OH227933   0.658   0.729   4.672  0.5643  0.5498 -0.2836
 2173TIP3    H127934   0.711   0.807   4.652  2.4316 -0.9884 -1.7214
 2173TIP3    H227935   0.668   0.717   4.766  1.8489  0.9796 -0.3420
 2174TIP3   OH227936   4.863   1.619   1.963 -0.0855 -0.1541 -0.1107
 2174TIP3    H127937   4.833   1.570   2.039 -0.6153  1.2220  0.6080
 2174TIP3    H227938   4.787   1.672   1.937  0.8336  1.2917  0.0062
 2175TIP3   OH227939   0.655   4.340  11.168  0.3184  0.0193  0.4959
 2175TIP3    H127940   0.633   4.249  11.184  3.2487 -0.6964  1.0530
 2175TIP3    H227941   0.723   4.337  11.100  0.8644  1.7209  0.9126
 2176TIP3   OH227942   2.403   1.051  16.033 -0.2924  0.0840  0.0461
 2176TIP3    H127943   2.431   0.971  16.077  0.1003 -1.6650 -3.0927
 2176TIP3    H227944   2.315   1.067  16.065 -0.1066 -1.1681  1.2938
 2177TIP3   OH227945   4.533   4.448  12.922  0.6638 -0.2252 -0.0574
 2177TIP3    H127946   4.524   4.448  12.827  1.3519  0.8537 -0.1347
 2177TIP3    H227947   4.598   4.517  12.941  0.4254 -0.3132  1.1957
 2178TIP3   OH227948   6.589   0.325   5.253 -0.0142  0.0090  0.0996
 2178TIP3    H127949   6.521   0.276   5.299  0.4823  1.0950  2.1124
 2178TIP3    H227950   6.586   0.291   5.163 -2.2429 -0.9438  0.4598
 2179TIP3   OH227951   2.807   5.452   2.812 -0.2617 -0.0088  0.3979
 2179TIP3    H127952   2.740   5.384   2.800 -2.0863  1.5849  1.0707
 2179TIP3    H227953   2.860   5.420   2.885 -0.6469 -1.0500  0.2366
 2180TIP3   OH227954   0.937   3.521  12.731  0.0327 -0.1416  0.2688
 2180TIP3    H127955   0.921   3.441  12.781  2.3126  0.2620  1.8364
 2180TIP3    H227956   1.027   3.545  12.753 -0.5996  2.9357 -0.0316
 2181TIP3   OH227957   5.028   1.136   6.702 -0.0183  0.9132  0.1618
 2181TIP3    H127958   5.090   1.200   6.665  0.3307  0.6783  0.3340
 2181TIP3    H227959   5.080   1.057   6.714 -0.3418  0.7300  0.3666
 2182TIP3   OH227960   1.926   3.305  15.435 -0.3792 -0.4634 -0.6229
 2182TIP3    H127961   1.852   3.365  15.424 -0.0883  0.4524  1.9089
 2182TIP3    H227962   1.885   3.221  15.458 -0.7294 -1.0668 -3.1076
 2183TIP3   OH227963   5.009   1.382  16.097  0.3804  0.6795 -0.3019
 2183TIP3    H127964   4.959   1.409  16.020  0.6998  2.9974  0.2012
 2183TIP3    H227965   4.949   1.398  16.170 -0.1024 -1.9708 -0.0231
 2184TIP3   OH227966   3.918   0.273  11.729  0.0485 -0.3729  0.0634
 2184TIP3    H127967   3.837   0.310  11.766  0.7262 -0.7120  1.9878
 2184TIP3    H227968   3.919   0.182  11.759  0.3497 -0.8568 -1.3427
 2185TIP3   OH227969   6.374   0.909  14.540  0.0337 -0.5138 -0.3392
 2185TIP3    H127970   6.436   0.953  14.598 -0.5144  1.5853 -1.2367
 2185TIP3    H227971   6.292   0.908  14.589  0.4330 -2.1120  0.3369
 2186TIP3   OH227972   3.513   5.013  11.474  1.4844  0.1836  0.1161
 2186TIP3    H127973   3.469   5.024  11.558  1.8735  3.4728  0.0239
 2186TIP3    H227974   3.600   4.981  11.496  2.0388  2.2493  1.1694
 2187TIP3   OH227975   6.180   5.369   5.254  0.1362 -0.6682 -0.1535
 2187TIP3    H127976   6.245   5.338   5.192 -0.7410  0.4685 -1.7258
 2187TIP3    H227977   6.136   5.441   5.208 -2.2166 -1.3820  0.8195
 2188TIP3   OH227978   5.191   2.032   1.603  0.2247  0.4156  0.0203
 2188TIP3    H127979   5.270   2.019   1.655 -0.5709  0.0043  1.1633
 2188TIP3    H227980   5.175   1.948   1.561  0.5948  0.6062 -0.5072
 2189TIP3   OH227981   5.043   6.757  10.841  0.5956  0.2777 -0.3584
 2189TIP3    H127982   4.965   6.753  10.896  0.0178 -0.5880 -1.2189
 2189TIP3    H227983   5.103   6.814  10.890 -0.6238  1.1113  0.2376
 2190TIP3   OH227984   0.752   5.627  11.771 -0.2770 -0.7689  0.3103
 2190TIP3    H127985   0.742   5.581  11.854  0.5831 -0.9809  0.3063
 2190TIP3    H227986   0.837   5.670  11.778 -0.7114  0.1564 -0.0086
 2191TIP3   OH227987   3.318   1.489  11.063 -0.4544 -0.5334  0.2402
 2191TIP3    H127988   3.349   1.401  11.084  0.2701 -0.5901 -0.9656
 2191TIP3    H227989   3.394   1.545  11.077  0.5120 -0.7300 -3.1638
 2192TIP3   OH227990   0.372   6.063  11.510 -0.2442 -0.3955 -0.0934
 2192TIP3    H127991   0.440   5.997  11.524 -1.1455 -1.3957 -0.3493
 2192TIP3    H227992   0.421   6.144  11.495  0.8785 -0.9508  0.4081
 2193TIP3   OH227993   6.731   2.552  14.908  0.4696 -0.4798  0.3885
 2193TIP3    H127994   6.725   2.621  14.842  0.9853  0.1887  1.0262
 2193TIP3    H227995   6.681   2.479  14.871 -0.0723  0.2274 -0.2959
 2194TIP3   OH227996   4.873   5.475  11.093 -0.2248 -0.3662 -0.3379
 2194TIP3    H127997   4.913   5.399  11.134  0.1877 -1.4138 -2.5380
 2194TIP3    H227998   4.947   5.528  11.063 -0.4051 -1.2245 -2.4805
 2195TIP3   OH227999   3.633   2.919   0.642 -0.0679 -0.0096 -0.4814
 2195TIP3    H128000   3.572   2.981   0.682 -1.6020 -2.2538  0.9029
 2195TIP3    H228001   3.621   2.930   0.548 -4.2017 -1.6083 -0.3557
 2196TIP3   OH228002   3.909   1.007   6.051 -0.1777  0.1011  0.2516
 2196TIP3    H128003   3.821   1.037   6.027  0.5966  1.2245 -1.3283
 2196TIP3    H228004   3.893   0.933   6.110 -2.1719  0.6477  0.4855
 2197TIP3   OH228005   5.834   5.019  12.344  0.7584 -0.0433  0.6348
 2197TIP3    H128006   5.899   5.013  12.414  1.1296 -0.1637  0.2830
 2197TIP3    H228007   5.811   4.929  12.324  1.5031 -0.0645 -0.1767
 2198TIP3   OH228008   4.280   0.403   6.122 -0.5044  0.2848 -0.3279
 2198TIP3    H128009   4.191   0.415   6.090  0.5443  0.4365 -3.5145
 2198TIP3    H228010   4.284   0.456   6.201 -3.6209 -0.9537  0.8252
 2199TIP3   OH228011   5.406   4.586   1.147  0.0517  0.0569 -0.3389
 2199TIP3    H128012   5.327   4.638   1.158 -0.6093 -0.8402 -0.7835
 2199TIP3    H228013   5.464   4.615   1.218 -0.5606  0.8982 -0.1688
 2200TIP3   OH228014   3.544   4.281  12.987 -0.3903  0.0654 -0.1081
 2200TIP3    H128015   3.564   4.288  13.080 -0.1018 -0.7705 -0.0977
 2200TIP3    H228016   3.457   4.242  12.984 -0.3144 -0.1018 -0.1825
 2201TIP3   OH228017   4.629   4.789  13.401  0.2713  0.1038  0.3263
 2201TIP3    H128018   4.707   4.812  13.350 -0.2406 -0.6832 -0.8630
 2201TIP3    H228019   4.655   4.711  13.449  0.6602  0.6718  1.0548
 2202TIP3   OH228020   2.006   6.688  12.612  0.1784  0.4337  0.4780
 2202TIP3    H128021   2.099   6.675  12.630  0.5430 -0.8128 -1.9064
 2202TIP3    H228022   2.003   6.748  12.538 -0.6380 -2.1308 -1.7628
 2203TIP3   OH228023   6.013   1.177  12.640 -0.5565 -0.9231 -0.0340
 2203TIP3    H128024   5.988   1.109  12.577 -2.4308  0.8766 -1.3775
 2203TIP3    H228025   5.954   1.163  12.714  0.3928 -1.9084  0.5625
 2204TIP3   OH228026   2.461   3.200   2.686 -0.0208 -0.0446  0.5919
 2204TIP3    H128027   2.372   3.171   2.703 -1.7252  3.2741 -1.5522
 2204TIP3    H228028   2.478   3.268   2.752  0.1508  0.6046 -0.0987
 2205TIP3   OH228029   2.515   1.097   5.128  0.4478  0.0410  0.2083
 2205TIP3    H128030   2.420   1.113   5.125  0.4338 -0.0639  0.0308
 2205TIP3    H228031   2.528   1.023   5.068  0.3655 -1.3515  1.8303
 2206TIP3   OH228032   1.234   1.966   1.061  0.1486  0.0011  0.2064
 2206TIP3    H128033   1.298   1.937   1.126  0.3185 -0.0717  0.0082
 2206TIP3    H228034   1.208   1.886   1.016 -0.6490 -0.0793  0.7881
 2207TIP3   OH228035   3.505   0.571  12.642  0.0861  0.0929  0.2488
 2207TIP3    H128036   3.411   0.587  12.632 -0.3679 -0.8679  2.4031
 2207TIP3    H228037   3.533   0.633  12.710  1.3569  1.3412 -1.3291
 2208TIP3   OH228038   3.695   4.725  15.795  0.4409 -0.1626  0.7076
 2208TIP3    H128039   3.607   4.722  15.834 -0.1317  1.3834 -0.3642
 2208TIP3    H228040   3.753   4.693  15.865 -0.9774 -1.4451  1.3522
 2209TIP3   OH228041   5.625   5.797   5.967 -0.1614 -0.3364  0.1621
 2209TIP3    H128042   5.701   5.855   5.961 -0.0713 -0.5494 -1.2066
 2209TIP3    H228043   5.574   5.818   5.889 -1.3732 -0.3967  0.9247
 2210TIP3   OH228044   5.040   4.449  12.032 -0.2251 -0.2674 -0.0711
 2210TIP3    H128045   5.037   4.473  11.940  0.5703  0.9230  0.1807
 2210TIP3    H228046   5.063   4.357  12.033 -1.7715 -0.7011 -1.0799
 2211TIP3   OH228047   2.039   1.376  15.582  0.0204  0.0149  0.4949
 2211TIP3    H128048   2.094   1.438  15.533 -0.0518  0.8740  1.4788
 2211TIP3    H228049   1.994   1.429  15.647 -0.5038 -0.9831  0.9722
 2212TIP3   OH228050   2.936   5.549   3.852 -0.0887  0.3322 -0.4133
 2212TIP3    H128051   2.871   5.541   3.782 -0.0525  0.4926 -0.4663
 2212TIP3    H228052   2.969   5.638   3.844  1.4691 -0.2913 -1.5732
 2213TIP3   OH228053   1.558   4.833   1.933  0.0014  0.4960  0.0568
 2213TIP3    H128054   1.646   4.830   1.895 -0.6317 -0.4544 -1.3948
 2213TIP3    H228055   1.567   4.892   2.008  2.2222 -0.6918  0.8395
 2214TIP3   OH228056   2.484   5.917   6.819  0.4832 -0.1757 -0.4129
 2214TIP3    H128057   2.486   6.011   6.837  1.0074 -0.0866 -0.8755
 2214TIP3    H228058   2.558   5.903   6.759  0.2944 -0.8506 -0.4983
 2215TIP3   OH228059   2.924   6.511   1.449  0.5239 -0.6964  0.1980
 2215TIP3    H128060   3.013   6.481   1.468  0.1162 -2.6375 -0.7470
 2215TIP3    H228061   2.915   6.499   1.355 -0.5930 -0.0878  0.2196
 2216TIP3   OH228062   0.457   3.632  13.025  0.4148  0.0392  0.4296
 2216TIP3    H128063   0.476   3.720  12.994  0.8519  0.1815  1.0739
 2216TIP3    H228064   0.413   3.645  13.109 -1.1088 -0.3288 -0.2711
 2217TIP3   OH228065   5.629   6.588  11.516  0.2379  0.2383 -0.4247
 2217TIP3    H128066   5.678   6.665  11.488  2.4688 -0.9755 -0.0610
 2217TIP3    H228067   5.600   6.609  11.605  0.6946  0.7223 -0.3880
 2218TIP3   OH228068   4.213   1.793   6.061 -0.2097  0.2260 -0.2075
 2218TIP3    H128069   4.234   1.870   6.113  0.5064 -0.1708  0.1041
 2218TIP3    H228070   4.266   1.723   6.099 -1.0510 -0.4811 -0.3121
 2219TIP3   OH228071   4.441   2.093  16.863  0.8849 -0.2250 -0.5151
 2219TIP3    H128072   4.367   2.055  16.816 -0.1029  1.0986 -0.0771
 2219TIP3    H228073   4.402   2.148  16.931  2.2740 -0.6757  0.7238
 2220TIP3   OH228074   6.691   2.896  12.811  0.2099 -0.2044  0.0311
 2220TIP3    H128075   6.667   2.808  12.841 -0.5154 -0.1662 -0.4260
 2220TIP3    H228076   6.722   2.940  12.890  1.1337 -1.0485  0.1597
 2221TIP3   OH228077   2.934   0.488  12.755  0.0878  0.7224 -0.3210
 2221TIP3    H128078   3.029   0.477  12.749  0.2091  0.5571  1.3529
 2221TIP3    H228079   2.920   0.581  12.738  0.5736  0.7858 -0.3961
 2222TIP3   OH228080   2.683   3.885   5.354  0.3738 -0.1635  0.1015
 2222TIP3    H128081   2.759   3.924   5.396  0.8581 -0.5207 -0.4172
 2222TIP3    H228082   2.668   3.939   5.276  0.4726 -0.4468 -0.1181
 2223TIP3   OH228083   3.200   1.194  17.196  0.2828 -0.2741 -0.5161
 2223TIP3    H128084   3.223   1.260  17.131  1.2759 -1.3219 -1.2735
 2223TIP3    H228085   3.142   1.133  17.150 -0.6101  0.0410  0.1688
 2224TIP3   OH228086   1.095   5.328   0.383  0.7409  0.2092  0.2334
 2224TIP3    H128087   1.116   5.300   0.294  1.9799  0.4862  0.4113
 2224TIP3    H228088   1.026   5.394   0.373  0.5179 -0.1319 -0.4795
 2225TIP3   OH228089   4.896   5.100   0.839 -0.9395  0.3015 -0.2009
 2225TIP3    H128090   4.874   5.192   0.825  0.5594  0.7742  0.3466
 2225TIP3    H228091   4.941   5.099   0.923 -1.2828 -1.0135 -0.0010
 2226TIP3   OH228092   0.904   1.123   4.012 -0.5373 -0.3410 -0.2977
 2226TIP3    H128093   0.950   1.132   4.095 -2.5893  2.3857  0.7181
 2226TIP3    H228094   0.821   1.082   4.034 -2.4546  3.1982 -0.2458
 2227TIP3   OH228095   3.296   3.098   3.677  0.4345  0.3062  0.5902
 2227TIP3    H128096   3.303   3.192   3.695  0.1449  0.4695 -0.1192
 2227TIP3    H228097   3.227   3.067   3.736 -0.7136  0.8904 -0.4122
 2228TIP3   OH228098   1.244   1.904  17.207  0.1540 -0.2512 -0.9578
 2228TIP3    H128099   1.311   1.914  17.140 -0.6120  0.6908 -1.5911
 2228TIP3    H228100   1.191   1.983  17.202 -0.8574 -0.8532 -0.2907
 2229TIP3   OH228101   4.853   3.479   1.384 -0.0332 -0.0221  0.7405
 2229TIP3    H128102   4.832   3.569   1.360 -1.1568 -0.0904  1.4286
 2229TIP3    H228103   4.910   3.486   1.460 -0.2090  0.1017  0.8587
 2230TIP3   OH228104   3.349   6.782  16.399 -0.1133  0.1160  0.1930
 2230TIP3    H128105   3.389   6.701  16.369 -2.4211  0.1658 -3.8546
 2230TIP3    H228106   3.319   6.763  16.488 -1.2069 -3.7911 -0.8214
 2231TIP3   OH228107   4.459   2.519  12.083 -0.1486 -0.4877 -0.4216
 2231TIP3    H128108   4.391   2.494  12.020  1.3416 -1.4142 -1.7470
 2231TIP3    H228109   4.453   2.453  12.152 -0.3031 -0.8683 -0.7894
 2232TIP3   OH228110   3.192   5.123   5.333 -0.2875 -0.4914 -0.2904
 2232TIP3    H128111   3.156   5.211   5.324 -0.4497 -0.6453 -1.1588
 2232TIP3    H228112   3.275   5.136   5.379 -0.3384  0.1037 -0.3605
 2233TIP3   OH228113   2.233   5.619   2.548 -0.1889 -0.1626 -0.1872
 2233TIP3    H128114   2.293   5.552   2.516 -1.1484 -1.7568  1.1446
 2233TIP3    H228115   2.159   5.617   2.487  0.3311  0.5930 -0.8563
 2234TIP3   OH228116   6.021   5.806   2.676  0.2030 -0.1321 -0.5689
 2234TIP3    H128117   6.114   5.787   2.666  0.3332  1.0219 -1.9930
 2234TIP3    H228118   5.991   5.748   2.746  1.4760 -2.2429 -1.6555
 2235TIP3   OH228119   6.561   1.926  12.643 -0.5019  0.4870  0.4863
 2235TIP3    H128120   6.513   1.844  12.654 -0.9342  0.6474 -0.1483
 2235TIP3    H228121   6.506   1.992  12.685  0.5724  0.2525  2.3902
 2236TIP3   OH228122   3.474   3.082  13.454 -0.7039 -0.2340  0.1367
 2236TIP3    H128123   3.506   3.096  13.543  2.0829 -0.1758 -0.7785
 2236TIP3    H228124   3.453   3.170  13.422  1.3602  0.1658 -0.2618
 2237TIP3   OH228125   5.304   0.078   3.363  0.3569  0.1257  0.3152
 2237TIP3    H128126   5.314   0.173   3.351  0.5367 -0.0749 -1.3896
 2237TIP3    H228127   5.210   0.062   3.353  0.3728  0.0880  0.2199
 2238TIP3   OH228128   2.761   3.495   1.766 -0.1796  0.1751  0.2772
 2238TIP3    H128129   2.742   3.447   1.847  0.9831 -0.6412  0.0819
 2238TIP3    H228130   2.807   3.574   1.796  0.7496 -0.3948  0.3950
 2239TIP3   OH228131   1.983   2.948  13.167  0.6738 -0.1716 -0.1237
 2239TIP3    H128132   1.986   2.985  13.079  0.3075 -0.4037 -0.2334
 2239TIP3    H228133   1.991   2.853  13.153  0.7494 -0.2001  0.1038
 2240TIP3   OH228134   5.730   1.812  14.365  0.5666  0.3488  0.0280
 2240TIP3    H128135   5.779   1.877  14.416 -0.5207  0.6057  0.7900
 2240TIP3    H228136   5.751   1.728  14.406  0.5843  0.4251  0.1769
 2241TIP3   OH228137   3.780   3.813   2.447  0.5681  0.6938  0.3328
 2241TIP3    H128138   3.690   3.792   2.470  0.7072 -0.5663 -0.1457
 2241TIP3    H228139   3.832   3.746   2.492  0.9869 -0.5648 -1.8531
 2242TIP3   OH228140   4.010   2.792  15.047 -0.0037 -0.1360  0.1875
 2242TIP3    H128141   4.104   2.781  15.060 -0.0991 -0.0893  0.9697
 2242TIP3    H228142   3.974   2.704  15.060 -0.3689  0.3354  2.7922
 2243TIP3   OH228143   0.346   5.149   0.741  0.0263 -0.1345  0.5831
 2243TIP3    H128144   0.416   5.113   0.686 -0.0869 -1.4068  1.2457
 2243TIP3    H228145   0.387   5.221   0.789  0.9060 -0.9302  1.0329
 2244TIP3   OH228146   1.611   6.189  16.529  0.3642 -0.2238  0.0217
 2244TIP3    H128147   1.691   6.154  16.490  1.0517  1.2573  0.0248
 2244TIP3    H228148   1.581   6.255  16.466  1.9942  2.8734  2.2512
 2245TIP3   OH228149   4.154   4.072   2.998 -0.4188 -0.1527 -0.1350
 2245TIP3    H128150   4.211   4.074   2.922 -0.1270 -0.5811  0.0660
 2245TIP3    H228151   4.154   4.163   3.030  1.9982 -0.5205  1.1941
 2246TIP3   OH228152   0.064   6.114  14.826  0.2821 -0.4600 -0.0002
 2246TIP3    H128153   0.115   6.195  14.822 -1.1088  0.5638  1.7415
 2246TIP3    H228154   0.118   6.050  14.780  1.6603  1.3122 -0.9870
 2247TIP3   OH228155   1.542   1.035  16.848  0.7721 -0.1160 -0.0729
 2247TIP3    H128156   1.453   1.044  16.883  0.7130  1.9130 -0.6008
 2247TIP3    H228157   1.593   1.002  16.922 -0.0961  0.4153  0.7981
 2248TIP3   OH228158   3.426   0.278   0.496  0.2215 -0.4641 -0.3656
 2248TIP3    H128159   3.375   0.356   0.476 -0.7928 -1.1478 -0.5272
 2248TIP3    H228160   3.377   0.235   0.566  1.6184 -0.1514  0.8612
 2249TIP3   OH228161   4.143   5.088  15.881  0.5205 -0.5114  0.4300
 2249TIP3    H128162   4.092   5.084  15.963  1.6500  0.0855  1.1862
 2249TIP3    H228163   4.099   5.026  15.823 -1.2592  0.1928  0.9385
 2250TIP3   OH228164   4.676   5.043   0.155  0.0811  0.1092 -0.5393
 2250TIP3    H128165   4.756   5.048   0.103  1.5970 -1.4778  1.4892
 2250TIP3    H228166   4.660   4.949   0.165 -0.8240  0.3811  0.8609
 2251TIP3   OH228167   5.024   6.460   1.861 -0.2687 -0.4501 -0.8541
 2251TIP3    H128168   4.977   6.542   1.844  0.6260  0.3052  0.1221
 2251TIP3    H228169   5.101   6.465   1.804 -0.8949 -1.2702 -1.8009
 2252TIP3   OH228170   6.628   1.018   2.771  0.0949  0.6731 -0.6344
 2252TIP3    H128171   6.642   1.109   2.797  0.0073  0.3636  0.5479
 2252TIP3    H228172   6.575   1.024   2.692  1.3782  1.6780 -1.4467
 2253TIP3   OH228173   1.091   1.528   1.520 -0.0042  0.4501 -0.3641
 2253TIP3    H128174   1.082   1.582   1.599  0.1865  0.5222 -0.3921
 2253TIP3    H228175   1.015   1.469   1.524 -0.7489  1.3453 -0.8206
 2254TIP3   OH228176   3.222   3.374   3.076  0.3004 -0.8125 -0.3998
 2254TIP3    H128177   3.141   3.424   3.073  1.7500  2.0894  1.9499
 2254TIP3    H228178   3.278   3.415   3.010  0.9078 -0.4821  0.2981
 2255TIP3   OH228179   1.915   5.224   2.975  0.7726  0.6443 -0.5577
 2255TIP3    H128180   1.823   5.217   3.000  0.5199  0.9050 -1.3811
 2255TIP3    H228181   1.945   5.133   2.967  0.9200  0.5471  0.8400
 2256TIP3   OH228182   3.859   3.268   3.251 -0.1285  0.2949 -0.1785
 2256TIP3    H128183   3.820   3.223   3.326 -0.0733 -0.6188 -0.6789
 2256TIP3    H228184   3.851   3.205   3.179  0.7162  0.7633 -0.6973
 2257TIP3   OH228185   0.797   1.274   5.122  0.2551  0.1647  0.1751
 2257TIP3    H128186   0.876   1.286   5.176  0.2954 -0.9899  0.3899
 2257TIP3    H228187   0.729   1.247   5.183 -0.4390  1.5490  0.0515
 2258TIP3   OH228188   1.392   0.978   1.514  0.6691 -0.2806 -0.0912
 2258TIP3    H128189   1.362   0.900   1.561  0.7711  0.1407  0.6953
 2258TIP3    H228190   1.476   0.999   1.555  1.9643 -1.2747 -2.0658
 2259TIP3   OH228191   1.835   0.187   3.543 -0.3028 -0.5535 -0.3065
 2259TIP3    H128192   1.845   0.150   3.631  1.6999 -1.9093 -1.0319
 2259TIP3    H228193   1.819   0.280   3.557 -0.1532 -0.7732  1.4922
 2260TIP3   OH228194   0.373   1.957   2.006  0.1788  0.1665  0.0271
 2260TIP3    H128195   0.422   1.916   2.078  2.5691 -1.2641 -2.2087
 2260TIP3    H228196   0.406   2.047   2.003  1.6746 -0.3557 -0.4904
 2261TIP3   OH228197   3.663   5.215   5.697  0.1947 -1.0145 -0.3129
 2261TIP3    H128198   3.644   5.205   5.790 -0.6569 -1.8754 -0.5577
 2261TIP3    H228199   3.650   5.308   5.680  0.8666 -0.7578  0.5290
 2262TIP3   OH228200   4.894   4.314  16.994 -0.5127  0.1247  0.2755
 2262TIP3    H128201   4.931   4.244  17.047 -0.9951  0.9444  1.7352
 2262TIP3    H228202   4.966   4.340  16.935  0.0239 -0.8001  0.5028
 2263TIP3   OH228203   1.610   6.382  11.495 -0.0290 -0.7351  0.1191
 2263TIP3    H128204   1.555   6.321  11.545  0.2367 -2.6410 -1.8129
 2263TIP3    H228205   1.641   6.444  11.561 -0.3046 -2.6727  2.2049
 2264TIP3   OH228206   1.790   0.498   4.410  0.2194  0.0243  0.0175
 2264TIP3    H128207   1.704   0.537   4.427  0.6201  0.0613  2.2835
 2264TIP3    H228208   1.770   0.413   4.371 -0.9405 -0.4326  1.4948
 2265TIP3   OH228209   4.340   2.666   3.795 -0.1178  0.4891 -0.4882
 2265TIP3    H128210   4.323   2.750   3.753  2.0568  0.6377 -1.1940
 2265TIP3    H228211   4.316   2.601   3.728  1.8623  0.6894 -1.4636
 2266TIP3   OH228212   5.620   1.658   6.254 -0.2376 -0.1224 -0.3060
 2266TIP3    H128213   5.688   1.663   6.321 -1.9545  0.4510  1.4804
 2266TIP3    H228214   5.572   1.740   6.262 -1.3805 -0.6633 -1.2589
 2267TIP3   OH228215   4.006   2.881  15.993 -0.2190 -0.1082  0.5479
 2267TIP3    H128216   3.982   2.964  15.952 -0.1623 -0.0921  0.5471
 2267TIP3    H228217   4.095   2.894  16.025 -0.7856  0.3643  1.9940
 2268TIP3   OH228218   6.005   3.191  13.348  0.2604  0.6072 -0.2451
 2268TIP3    H128219   6.073   3.132  13.315  0.6586  1.1469 -0.3897
 2268TIP3    H228220   5.979   3.243  13.273 -0.7560 -0.0020 -0.3388
 2269TIP3   OH228221   1.893   4.107  16.677 -0.5314 -0.2551  0.4374
 2269TIP3    H128222   1.962   4.154  16.629 -0.9117 -1.1840 -1.1125
 2269TIP3    H228223   1.902   4.017  16.648 -2.4641 -0.3812  0.0979
 2270TIP3   OH228224   0.273   1.765   5.634 -0.1578 -0.0815  0.4506
 2270TIP3    H128225   0.248   1.843   5.683  0.4112  0.2107  0.2830
 2270TIP3    H228226   0.209   1.699   5.660 -1.9677  1.0221 -1.0480
 2271TIP3   OH228227   3.988   0.237  15.726 -0.5582 -0.1469 -0.1976
 2271TIP3    H128228   3.969   0.227  15.633 -0.6320 -0.2701 -0.1690
 2271TIP3    H228229   3.911   0.283  15.761 -1.5587 -2.0143  0.2140
 2272TIP3   OH228230   0.103   4.221   2.059  0.3091 -0.4452  0.5581
 2272TIP3    H128231   0.175   4.178   2.106  0.8079  0.7433  0.9095
 2272TIP3    H228232   0.094   4.306   2.101 -0.9327 -0.3463  0.1365
 2273TIP3   OH228233   4.277   5.740  17.089  0.0002 -0.2588  0.2080
 2273TIP3    H128234   4.359   5.694  17.105  0.1979 -0.4674 -1.3332
 2273TIP3    H228235   4.230   5.686  17.026 -1.2387 -0.0233  0.8761
 2274TIP3   OH228236   3.945   1.058  14.359  0.9028 -0.4847 -0.2122
 2274TIP3    H128237   3.953   1.068  14.454 -1.1610  0.8317 -0.1354
 2274TIP3    H228238   3.877   0.992  14.348  0.9697 -0.4576 -0.7736
 2275TIP3   OH228239   4.978   4.058  15.464 -0.3348  0.5105  0.1581
 2275TIP3    H128240   5.033   3.984  15.438 -0.2338 -0.2192  2.2168
 2275TIP3    H228241   4.992   4.124  15.396  2.3716 -0.0172  0.0788
 2276TIP3   OH228242   6.571   0.957  10.713 -0.5677  0.1788 -0.2662
 2276TIP3    H128243   6.603   0.925  10.798 -0.7784  0.7274  0.0258
 2276TIP3    H228244   6.599   0.890  10.650 -1.3111 -0.7698  0.3781
 2277TIP3   OH228245   2.258   1.560   3.315 -0.5801 -0.0389 -0.0679
 2277TIP3    H128246   2.334   1.509   3.343 -0.9477 -0.5829 -0.0325
 2277TIP3    H228247   2.201   1.562   3.393 -1.7000 -1.7237 -0.7782
 2278TIP3   OH228248   6.016   4.662  13.511  0.1290  0.7320 -0.3190
 2278TIP3    H128249   6.105   4.666  13.547  0.3239  3.2518 -0.9007
 2278TIP3    H228250   6.029   4.653  13.417 -0.3749 -3.5119 -0.1995
 2279TIP3   OH228251   4.110   6.422  11.000 -0.5509  0.2144  0.6028
 2279TIP3    H128252   4.160   6.500  10.974 -0.7287  0.6718  1.5730
 2279TIP3    H228253   4.173   6.367  11.045 -0.2603 -0.5430 -0.6892
 2280TIP3   OH228254   0.565   3.306  14.586 -0.3949 -0.1143 -0.3952
 2280TIP3    H128255   0.540   3.266  14.669 -1.7264  0.1573 -0.6524
 2280TIP3    H228256   0.658   3.328  14.597 -0.6165  0.1505  1.0995
 2281TIP3   OH228257   5.002   3.755  13.975  0.1300 -0.0365 -0.1885
 2281TIP3    H128258   4.998   3.839  13.929 -1.8627 -1.2601 -2.4900
 2281TIP3    H228259   4.978   3.776  14.065  0.7574  1.9867 -0.4462
 2282TIP3   OH228260   6.496   2.331   4.407 -0.2354 -0.2055 -0.1349
 2282TIP3    H128261   6.524   2.265   4.472  1.8359  2.5454  2.0021
 2282TIP3    H228262   6.543   2.307   4.327 -2.8899 -3.7201 -0.8837
 2283TIP3   OH228263   1.375   2.127  12.898 -0.3807 -0.1824  0.0126
 2283TIP3    H128264   1.282   2.142  12.911 -0.2353  0.1706  0.6667
 2283TIP3    H228265   1.418   2.203  12.939  0.1699 -0.0519 -0.7747
 2284TIP3   OH228266   1.631   0.648   3.669 -0.0909  0.1092  0.5348
 2284TIP3    H128267   1.645   0.691   3.754 -2.0309 -0.9651  1.4471
 2284TIP3    H228268   1.664   0.712   3.605 -0.5987  1.9069  1.9713
 2285TIP3   OH228269   4.711   5.632   2.023 -0.0566  0.1029  0.5362
 2285TIP3    H128270   4.805   5.642   2.035 -0.0775  0.2386  0.5804
 2285TIP3    H228271   4.671   5.702   2.074 -0.1530  0.4993 -0.0657
 2286TIP3   OH228272   5.373   6.454  13.653 -0.3307  0.0604  0.6183
 2286TIP3    H128273   5.282   6.473  13.632 -0.1207  0.2668 -0.1463
 2286TIP3    H228274   5.414   6.439  13.568  0.6585  1.3653  0.8392
 2287TIP3   OH228275   6.013   0.027  12.762 -0.1815 -0.0212  0.1002
 2287TIP3    H128276   5.923  -0.007  12.767 -1.2159  2.3246 -1.2294
 2287TIP3    H228277   6.047  -0.008  12.680  0.3055 -1.1791  0.7589
 2288TIP3   OH228278   3.771   3.737  15.162 -0.3420 -0.9842  0.2125
 2288TIP3    H128279   3.705   3.668  15.176  0.9608 -2.3444 -0.0472
 2288TIP3    H228280   3.841   3.693  15.114  0.8170  0.3838  0.5896
 2289TIP3   OH228281   5.851   4.839   4.863  0.7235 -0.1877  0.7595
 2289TIP3    H128282   5.818   4.905   4.923  1.4963  0.5971  0.3405
 2289TIP3    H228283   5.942   4.864   4.848  0.0143  0.9101 -2.3995
 2290TIP3   OH228284   5.549   1.896   3.077 -0.4443 -0.3914 -0.4229
 2290TIP3    H128285   5.457   1.908   3.055 -0.6707 -0.4125  0.4856
 2290TIP3    H228286   5.595   1.961   3.024 -1.2766  1.8102  1.3816
 2291TIP3   OH228287   4.539   4.279   6.086 -0.2245  0.8259  0.5179
 2291TIP3    H128288   4.566   4.278   6.178 -1.2558 -2.8798  0.9395
 2291TIP3    H228289   4.574   4.198   6.049 -0.0454  2.0754 -2.3573
 2292TIP3   OH228290   0.777   2.155   1.830  0.2549  0.5591 -0.2207
 2292TIP3    H128291   0.799   2.211   1.756 -0.6027  1.2920  0.0676
 2292TIP3    H228292   0.723   2.086   1.792  1.2765 -0.0877 -0.5667
 2293TIP3   OH228293   5.026   6.039   0.672 -0.3375 -0.0061 -0.3768
 2293TIP3    H128294   5.064   6.083   0.595 -0.8653  0.2979 -0.4663
 2293TIP3    H228295   4.971   5.970   0.636  0.6319 -0.8756 -0.2302
 2294TIP3   OH228296   4.228   5.987   3.842  0.0458  0.1154  0.1090
 2294TIP3    H128297   4.151   5.930   3.845  2.0187 -2.7296  1.9785
 2294TIP3    H228298   4.192   6.075   3.832 -3.3622 -1.1593 -0.2106
 2295TIP3   OH228299   3.203   3.385   4.171 -0.1067  0.7813  0.3293
 2295TIP3    H128300   3.241   3.297   4.173  0.1555  0.9061  1.4673
 2295TIP3    H228301   3.278   3.443   4.161 -0.2450  0.8958 -0.0387
 2296TIP3   OH228302   3.137   5.564   3.335 -0.0235  0.1906  0.3077
 2296TIP3    H128303   3.074   5.631   3.361  0.1538  0.7697 -0.7117
 2296TIP3    H228304   3.202   5.565   3.406 -0.0850  1.0177  0.3641
 2297TIP3   OH228305   2.105   3.540  15.549 -0.3688 -0.4265 -0.4323
 2297TIP3    H128306   2.026   3.585  15.579 -0.6795 -1.3859  0.2361
 2297TIP3    H228307   2.087   3.518  15.457 -0.8935 -0.6577 -0.2769
 2298TIP3   OH228308   0.063   0.043  12.864  0.0252 -0.5537 -0.6685
 2298TIP3    H128309   0.044  -0.042  12.825  0.0323  0.4980 -3.1107
 2298TIP3    H228310   0.150   0.066  12.832 -0.5302  0.9646 -1.1785
 2299TIP3   OH228311   4.199   3.056   5.063 -0.6461 -0.2540 -0.7249
 2299TIP3    H128312   4.156   3.011   4.990 -0.3577 -1.3618 -0.2182
 2299TIP3    H228313   4.182   3.001   5.139 -1.0544  0.9534  0.0957
 2300TIP3   OH228314   1.387   6.361  14.254 -0.6515  0.0442  0.9801
 2300TIP3    H128315   1.378   6.423  14.182 -1.4077  0.4333  1.3940
 2300TIP3    H228316   1.481   6.342  14.258 -0.7064 -0.6613 -0.6437
 2301TIP3   OH228317   1.018   6.671  13.500  0.1490  0.0729  0.0974
 2301TIP3    H128318   1.054   6.755  13.529 -0.8416  0.8367 -0.8207
 2301TIP3    H228319   0.953   6.694  13.434 -0.2017 -1.4222 -0.1135
 2302TIP3   OH228320   1.554   2.196  13.866 -0.2621  0.4645 -0.3792
 2302TIP3    H128321   1.524   2.109  13.892 -0.5239  0.8154  0.5689
 2302TIP3    H228322   1.490   2.256  13.907  1.1890  1.1957  0.9417
 2303TIP3   OH228323   0.799   4.642   1.457  0.1649  0.5827  0.3066
 2303TIP3    H128324   0.734   4.578   1.430  0.8480 -0.2961  0.6823
 2303TIP3    H228325   0.847   4.599   1.528 -0.3076  2.0625  1.5792
 2304TIP3   OH228326   4.807   0.987  11.397 -0.3425  0.4782 -0.0160
 2304TIP3    H128327   4.830   0.895  11.402  0.6791  0.6317 -1.3438
 2304TIP3    H228328   4.880   1.033  11.438 -0.5310  0.7367  0.0393
 2305TIP3   OH228329   0.489   2.828  13.293 -0.0157 -0.0927  0.4548
 2305TIP3    H128330   0.398   2.840  13.267 -0.0796 -0.6274  0.4147
 2305TIP3    H228331   0.539   2.875  13.226 -0.2659  0.4534  0.6402
 2306TIP3   OH228332   6.623   2.769  16.855  0.2706  0.4804 -0.3146
 2306TIP3    H128333   6.710   2.805  16.840  0.2116  1.5955  1.6708
 2306TIP3    H228334   6.638   2.689  16.906  0.1337  0.9793  0.5301
 2307TIP3   OH228335   2.800   3.644  12.330 -0.7691 -0.2235 -0.1082
 2307TIP3    H128336   2.782   3.656  12.237 -0.8824 -0.7270 -0.1526
 2307TIP3    H228337   2.756   3.718  12.373 -1.8808 -0.7404 -0.3297
 2308TIP3   OH228338   0.759   2.599  13.488 -0.0602  0.4572 -0.2574
 2308TIP3    H128339   0.745   2.690  13.517  0.7600  0.0330  1.6115
 2308TIP3    H228340   0.673   2.571  13.456 -0.7776  1.3467  0.7975
 2309TIP3   OH228341   2.467   3.987   3.365  0.2240  0.0584 -0.2347
 2309TIP3    H128342   2.538   3.926   3.387  1.3486  0.1570 -3.0785
 2309TIP3    H228343   2.424   4.005   3.448  3.1195 -0.5296  1.5424
 2310TIP3   OH228344   0.124   6.643  14.673 -0.4972  0.0771 -0.1112
 2310TIP3    H128345   0.035   6.629  14.704 -0.1899 -0.0218  0.7463
 2310TIP3    H228346   0.113   6.669  14.581 -1.3683 -0.4817 -0.1810
 2311TIP3   OH228347   6.665   2.366  13.356 -0.6414  0.5368 -0.1401
 2311TIP3    H128348   6.597   2.350  13.422  1.2620 -0.5964  1.6454
 2311TIP3    H228349   6.663   2.288  13.300 -0.0677 -0.0483  0.6313
 2312TIP3   OH228350   4.462   6.571  15.231  0.3769 -0.0001  0.3539
 2312TIP3    H128351   4.556   6.568  15.214  0.0671  0.5369 -1.8746
 2312TIP3    H228352   4.448   6.656  15.273  0.7992  0.3129 -0.1246
 2313TIP3   OH228353   2.392   4.859  10.732  0.0393 -0.2101 -0.1050
 2313TIP3    H128354   2.476   4.854  10.687  1.1986  0.6671  1.8395
 2313TIP3    H228355   2.381   4.952  10.752 -1.2518 -0.3562 -0.0279
 2314TIP3   OH228356   3.890   5.980  11.889  0.2174  0.2049 -0.3358
 2314TIP3    H128357   3.904   5.887  11.905 -1.6684 -0.2546 -1.0296
 2314TIP3    H228358   3.913   5.993  11.797 -0.2146  0.2414 -0.4448
 2315TIP3   OH228359   2.616   6.428   5.979  0.7871 -0.3144  0.7145
 2315TIP3    H128360   2.560   6.351   5.986  1.0295 -0.5722 -0.0169
 2315TIP3    H228361   2.567   6.498   6.022 -0.0793 -0.5441  0.1263
 2316TIP3   OH228362   3.841   4.525  11.761 -0.1496 -0.3794 -0.3617
 2316TIP3    H128363   3.795   4.476  11.829 -0.1068  0.4158  0.2566
 2316TIP3    H228364   3.848   4.614  11.796 -2.9313  0.9302 -2.6978
 2317TIP3   OH228365   3.696   0.543   5.087  0.0216  0.2828 -0.1099
 2317TIP3    H128366   3.667   0.472   5.029  1.0128 -0.3420  0.1242
 2317TIP3    H228367   3.698   0.620   5.031 -0.7955  0.0719 -0.4446
 2318TIP3   OH228368   5.396   4.113  12.574 -0.4353 -0.0622 -0.2414
 2318TIP3    H128369   5.468   4.174  12.558 -1.3929  1.3710  0.6757
 2318TIP3    H228370   5.414   4.077  12.660 -0.7396  0.1896 -0.0727
 2319TIP3   OH228371   4.321   4.327   4.756 -0.2140  0.3821 -0.0095
 2319TIP3    H128372   4.361   4.244   4.732  1.1381  1.7808 -3.1833
 2319TIP3    H228373   4.227   4.313   4.743 -0.1459 -0.9720  0.7575
 2320TIP3   OH228374   1.725   6.574  13.991 -0.5035  0.3876  0.0793
 2320TIP3    H128375   1.712   6.668  13.982 -0.0348  0.7938  2.7134
 2320TIP3    H228376   1.820   6.563  13.992 -0.5273  0.1381  1.4648
 2321TIP3   OH228377   6.050   4.460  15.758  0.0011  0.2583  0.7296
 2321TIP3    H128378   6.021   4.530  15.700 -2.3848 -0.4258  0.9687
 2321TIP3    H228379   6.101   4.401  15.702 -0.2605  0.8115 -0.1048
 2322TIP3   OH228380   0.311   5.016  12.407  0.0584  0.4330 -0.4801
 2322TIP3    H128381   0.292   4.973  12.491 -0.5250 -2.6402 -2.0360
 2322TIP3    H228382   0.395   4.979  12.380  0.5495  1.8824 -0.9903
 2323TIP3   OH228383   2.488   5.732  11.890  0.2166  0.9119  0.4354
 2323TIP3    H128384   2.456   5.716  11.801  1.1509  0.2123  0.2072
 2323TIP3    H228385   2.426   5.796  11.927 -0.0849  1.3489 -0.7724
 2324TIP3   OH228386   2.659   3.664  15.762  0.3744  0.7117  0.1349
 2324TIP3    H128387   2.668   3.742  15.816 -0.9768  0.3568  0.9179
 2324TIP3    H228388   2.599   3.607  15.811 -1.6013  0.7208 -2.0698
 2325TIP3   OH228389   6.021   0.213   0.481 -0.0825  0.0075 -0.2012
 2325TIP3    H128390   6.046   0.215   0.573  0.5884 -0.7954 -0.3528
 2325TIP3    H228391   6.078   0.147   0.442 -1.3627 -0.7389 -0.8983
 2326TIP3   OH228392   2.698   1.045  14.689  0.3261 -0.4281 -0.3122
 2326TIP3    H128393   2.778   0.995  14.708  1.4325  1.3456 -0.0430
 2326TIP3    H228394   2.714   1.085  14.604 -0.7047 -0.8225 -0.7084
 2327TIP3   OH228395   5.299   1.969  15.032 -0.2971 -0.1352 -0.5829
 2327TIP3    H128396   5.237   1.994  15.100 -1.9917  1.2937 -2.5393
 2327TIP3    H228397   5.383   1.964  15.077 -1.4934 -0.2555  1.7777
 2328TIP3   OH228398   4.877   4.947  10.461 -0.2157 -0.0874 -0.3932
 2328TIP3    H128399   4.792   4.904  10.464 -0.7419  0.6999 -2.4135
 2328TIP3    H228400   4.938   4.878  10.436 -0.7666 -0.0632 -1.8723
 2329TIP3   OH228401   2.678   0.247   5.356  0.5921 -0.4413 -0.2849
 2329TIP3    H128402   2.615   0.282   5.293 -0.1012 -3.0029 -1.1442
 2329TIP3    H228403   2.698   0.321   5.413 -2.5236  0.7198 -0.5058
 2330TIP3   OH228404   4.558   4.479  12.354  0.0801 -0.3904  0.2302
 2330TIP3    H128405   4.504   4.553  12.382  1.2458  0.5058  0.1500
 2330TIP3    H228406   4.597   4.446  12.435 -1.1932 -1.5716  0.4072
 2331TIP3   OH228407   4.773   1.835  14.898  0.6458 -0.1472  0.2958
 2331TIP3    H128408   4.845   1.862  14.841  0.0825 -0.7311 -0.7419
 2331TIP3    H228409   4.761   1.907  14.959 -0.0855  1.4916 -1.6663
 2332TIP3   OH228410   1.006   4.989  13.697  0.1927 -0.8393 -0.0799
 2332TIP3    H128411   0.914   4.980  13.669  0.6528 -0.6329 -1.8039
 2332TIP3    H228412   1.050   5.025  13.620  1.6892 -0.7265  0.8037
 2333TIP3   OH228413   3.578   1.722   3.943  0.1568  0.2646  0.3465
 2333TIP3    H128414   3.594   1.677   3.860  0.3084  1.1413 -0.1106
 2333TIP3    H228415   3.621   1.668   4.008 -0.1471 -0.5505 -0.1177
 2334TIP3   OH228416   0.663   1.567  11.983  0.8201 -0.0843  0.4510
 2334TIP3    H128417   0.708   1.577  12.066  0.1563 -1.0588  0.9397
 2334TIP3    H228418   0.592   1.632  11.987  0.3442 -0.6199  0.9693
 2335TIP3   OH228419   0.324   3.086  15.576  0.4521  0.4036 -0.7967
 2335TIP3    H128420   0.244   3.110  15.623  1.2403 -0.3423  1.0258
 2335TIP3    H228421   0.363   3.170  15.552 -0.5247  0.7846 -1.1030
 2336TIP3   OH228422   5.353   6.559   2.970 -0.4654  0.2091 -0.5053
 2336TIP3    H128423   5.276   6.540   3.023  0.5774  1.8950  1.7917
 2336TIP3    H228424   5.347   6.652   2.949  1.8722  0.9281  1.5307
 2337TIP3   OH228425   4.941   4.232   6.080  0.2377 -0.0532 -0.1117
 2337TIP3    H128426   4.878   4.302   6.066 -0.1958 -0.7853 -2.1148
 2337TIP3    H228427   5.008   4.247   6.014  0.4979 -1.1300 -0.1011
 2338TIP3   OH228428   0.728   2.918  12.529  0.3624 -0.1752  0.6112
 2338TIP3    H128429   0.659   2.891  12.590  2.1163  0.5067  3.0189
 2338TIP3    H228430   0.780   2.839  12.514 -0.2443 -0.4213 -0.3478
 2339TIP3   OH228431   4.027   0.229  13.343 -0.1133 -0.4340  0.1900
 2339TIP3    H128432   4.119   0.220  13.318 -0.3837  0.2059 -1.1336
 2339TIP3    H228433   4.029   0.289  13.419  0.5261  0.0401 -0.1887
 2340TIP3   OH228434   4.487   5.795   3.000 -0.1865  0.9236  0.1171
 2340TIP3    H128435   4.477   5.700   3.005 -0.0454  0.9329  0.6044
 2340TIP3    H228436   4.559   5.807   2.938  0.4488  0.6739  0.7887
 2341TIP3   OH228437   3.951   0.504   6.192 -0.2780  0.1897 -0.1817
 2341TIP3    H128438   3.954   0.409   6.178  3.1818  0.3920 -1.7923
 2341TIP3    H228439   3.934   0.514   6.285  0.3019 -2.0476  0.2320
 2342TIP3   OH228440   6.751   1.598   6.319  0.3403  0.7238 -0.3316
 2342TIP3    H128441   6.737   1.531   6.252 -0.9272  1.7779 -1.1572
 2342TIP3    H228442   6.782   1.674   6.270 -0.7483  1.5512  0.2399
 2343TIP3   OH228443   1.791   0.288  12.875 -0.1904  0.3715  0.3683
 2343TIP3    H128444   1.783   0.354  12.943 -1.3436  0.5810  0.0477
 2343TIP3    H228445   1.704   0.284  12.835  0.4068  0.0990 -0.9488
 2344TIP3   OH228446   6.637   2.882  14.722 -0.1548 -0.1858  0.9163
 2344TIP3    H128447   6.725   2.909  14.747 -0.0354 -1.4308  1.9599
 2344TIP3    H228448   6.648   2.844  14.634 -0.0151  1.3509  0.2292
 2345TIP3   OH228449   0.177   6.056  16.077 -0.0898 -0.2089 -0.0398
 2345TIP3    H128450   0.121   6.009  16.139 -0.3726  0.2209  0.0341
 2345TIP3    H228451   0.223   6.120  16.131  0.5522 -0.6253 -0.0836
 2346TIP3   OH228452   6.196   6.370   5.064 -0.1062 -0.2116  0.1463
 2346TIP3    H128453   6.152   6.288   5.085 -0.2943  0.5605  3.2279
 2346TIP3    H228454   6.157   6.434   5.123 -0.6284  2.3894 -2.7396
 2347TIP3   OH228455   2.624   3.728   0.459  0.1334 -0.4763  0.0231
 2347TIP3    H128456   2.536   3.690   0.464 -0.7855  1.1791 -1.9761
 2347TIP3    H228457   2.626   3.792   0.530 -0.0640 -0.8943  0.4128
 2348TIP3   OH228458   4.187   1.151   2.105 -0.6091 -0.7730  0.3588
 2348TIP3    H128459   4.161   1.172   2.195 -1.5395  0.2213 -0.1188
 2348TIP3    H228460   4.154   1.224   2.053  0.5916 -0.9482 -0.6971
 2349TIP3   OH228461   4.586   6.646   4.841  0.0190  0.1017 -0.2813
 2349TIP3    H128462   4.623   6.612   4.922  0.5891  0.5522 -0.3464
 2349TIP3    H228463   4.662   6.664   4.786 -0.3925 -1.4959 -1.4606
 2350TIP3   OH228464   6.760   3.284  13.679 -0.1923  0.4618  0.4528
 2350TIP3    H128465   6.677   3.290  13.632 -0.7652 -0.8260  1.2501
 2350TIP3    H228466   6.798   3.201  13.650  0.0423  0.2604  1.3026
 2351TIP3   OH228467   0.272   5.413   3.707 -0.3388 -0.0800  0.1190
 2351TIP3    H128468   0.322   5.350   3.656 -0.1875 -0.9448  1.2793
 2351TIP3    H228469   0.300   5.399   3.797 -1.7808  0.2469  0.6559
 2352TIP3   OH228470   6.392   4.503  16.480 -0.8472 -0.4130 -0.2137
 2352TIP3    H128471   6.423   4.531  16.566 -0.4540 -0.8808 -0.2004
 2352TIP3    H228472   6.459   4.534  16.419 -0.4156 -1.2762 -0.2018
 2353TIP3   OH228473   3.556   6.613   1.295 -0.6089 -0.3321  0.2071
 2353TIP3    H128474   3.601   6.622   1.211  0.3965  2.4831  0.9574
 2353TIP3    H228475   3.476   6.666   1.285 -0.9229 -0.6915  0.7522
 2354TIP3   OH228476   0.698   4.694  11.788 -0.7283  0.9524  0.1458
 2354TIP3    H128477   0.767   4.719  11.849 -0.4915 -2.0575  1.2513
 2354TIP3    H228478   0.742   4.643  11.720 -1.7145 -0.1188  0.2927
 2355TIP3   OH228479   5.383   1.647   2.645 -0.2556  0.0932 -0.0974
 2355TIP3    H128480   5.289   1.650   2.661 -0.3747  1.2355 -0.8860
 2355TIP3    H228481   5.423   1.655   2.731 -0.8859  0.5982  0.1492
 2356TIP3   OH228482   6.435   6.669   5.651 -0.7548 -0.3813  0.3045
 2356TIP3    H128483   6.490   6.733   5.697  1.0911  0.9895 -3.4427
 2356TIP3    H228484   6.352   6.715   5.638  0.2947  1.1010 -1.6656
 2357TIP3   OH228485   1.049   3.382   3.707  0.2211 -0.0023 -0.1845
 2357TIP3    H128486   1.101   3.462   3.709  1.2785 -0.6278 -1.2928
 2357TIP3    H228487   1.108   3.314   3.738 -0.6398 -0.3932  0.6448
 2358TIP3   OH228488   0.772   3.559  14.698  0.6237  0.0353  0.3658
 2358TIP3    H128489   0.834   3.629  14.676  0.3654  0.6555  1.5420
 2358TIP3    H228490   0.794   3.534  14.788 -1.4844  1.0425  1.2466
 2359TIP3   OH228491   4.120   2.863   2.983  0.0328  0.1170 -0.0439
 2359TIP3    H128492   4.196   2.805   2.992  0.1272  0.0339 -1.2624
 2359TIP3    H228493   4.133   2.907   2.899 -0.4795  1.2834  0.4584
 2360TIP3   OH228494   3.526   3.146  12.604 -0.2270 -0.5707  0.1310
 2360TIP3    H128495   3.456   3.188  12.554  0.6209  1.1732  0.3534
 2360TIP3    H228496   3.482   3.106  12.679 -0.9014  1.2498  0.7405
 2361TIP3   OH228497   6.646   5.638  11.708 -0.1186  0.0290  0.1135
 2361TIP3    H128498   6.589   5.687  11.650 -0.0634  1.1197  0.9553
 2361TIP3    H228499   6.690   5.575  11.651  0.0895  1.2000 -1.0571
 2362TIP3   OH228500   4.884   0.523  12.461  0.3825 -0.4049  0.0699
 2362TIP3    H128501   4.841   0.550  12.380 -1.2966 -1.0896  0.7109
 2362TIP3    H228502   4.813   0.505  12.522  1.6066 -0.2442  1.6090
 2363TIP3   OH228503   2.535   6.490  14.535 -0.1307 -0.2819  0.8005
 2363TIP3    H128504   2.462   6.541  14.570 -0.5565 -1.0462  1.0524
 2363TIP3    H228505   2.557   6.428  14.605 -0.2053 -1.0287  0.1755
 2364TIP3   OH228506   2.309   0.075   5.984  0.2296 -0.4228 -0.2633
 2364TIP3    H128507   2.292   0.057   5.891  1.1856 -0.4268 -0.4447
 2364TIP3    H228508   2.376   0.143   5.984  2.1803 -2.2618  0.3994
 2365TIP3   OH228509   3.628   1.826   5.887 -0.2766 -0.2131 -0.1901
 2365TIP3    H128510   3.569   1.880   5.940 -0.8405 -0.1053 -0.9045
 2365TIP3    H228511   3.570   1.782   5.825  0.4575  0.3920 -1.3430
 2366TIP3   OH228512   6.734   4.856   0.819  0.2053  0.0295 -0.2563
 2366TIP3    H128513   6.772   4.778   0.780 -0.7360 -0.1180 -0.9109
 2366TIP3    H228514   6.741   4.923   0.752 -2.6607 -0.5761 -1.3291
 2367TIP3   OH228515   0.242   3.520  13.977  0.5353  0.4460  0.4689
 2367TIP3    H128516   0.242   3.615  13.990  0.3649  0.3405  1.3181
 2367TIP3    H228517   0.157   3.502  13.936 -0.2847  0.4658  2.0637
 2368TIP3   OH228518   5.111   5.202   4.758  0.3105 -0.7655  0.0057
 2368TIP3    H128519   5.084   5.114   4.786  0.5913 -1.4171 -1.6202
 2368TIP3    H228520   5.072   5.212   4.671  0.4096  0.6822  0.0995
 2369TIP3   OH228521   4.999   3.646  14.634 -0.0140  0.3975  0.0087
 2369TIP3    H128522   5.074   3.600  14.673 -1.6828 -1.3668  1.3407
 2369TIP3    H228523   4.940   3.662  14.708 -1.3724  0.8881 -1.1421
 2370TIP3   OH228524   0.655   6.190   5.571  0.8088 -0.0778  0.2905
 2370TIP3    H128525   0.701   6.256   5.520  2.1837 -1.1970  0.0159
 2370TIP3    H228526   0.626   6.126   5.506  1.6190 -0.9614  0.7707
 2371TIP3   OH228527   5.671   3.162   4.056  0.4067  0.0728 -0.0925
 2371TIP3    H128528   5.741   3.175   3.992  0.5920  1.7341  0.3934
 2371TIP3    H228529   5.706   3.198   4.138 -0.1470 -1.2234  0.7415
 2372TIP3   OH228530   6.015   4.642  12.871  0.0036 -0.0846  0.2322
 2372TIP3    H128531   5.965   4.565  12.899 -0.6932  0.4256  0.4374
 2372TIP3    H228532   6.053   4.677  12.952 -1.2357  0.8498  0.4531
 2373TIP3   OH228533   5.116   4.353   1.802  0.3860  0.1541  0.3468
 2373TIP3    H128534   5.130   4.417   1.732  0.6516 -0.9722 -0.6718
 2373TIP3    H228535   5.140   4.399   1.882  0.2235  1.4353 -0.3116
 2374TIP3   OH228536   3.206   5.484  13.557  0.3025 -0.4673 -0.5451
 2374TIP3    H128537   3.254   5.537  13.620 -0.1903  1.1171 -1.4555
 2374TIP3    H228538   3.136   5.444  13.608 -0.2827  1.0390 -0.1195
 2375TIP3   OH228539   2.590   5.487   5.859  0.2004  0.4543 -0.1489
 2375TIP3    H128540   2.547   5.406   5.830  1.1717 -0.7583  1.5951
 2375TIP3    H228541   2.541   5.557   5.816 -2.7715 -0.8854  0.7802
 2376TIP3   OH228542   1.717   4.883  13.041  0.6257 -0.5909  0.0387
 2376TIP3    H128543   1.804   4.909  13.012  0.2784  2.1178  1.1171
 2376TIP3    H228544   1.722   4.882  13.137 -0.4944 -0.4463  0.1173
 2377TIP3   OH228545   2.527   0.970   1.274  0.3040  0.2423 -0.0592
 2377TIP3    H128546   2.459   1.022   1.318  0.8933  1.0002 -0.0172
 2377TIP3    H228547   2.607   0.991   1.321  0.5098 -0.9840  0.1713
 2378TIP3   OH228548   2.307   3.059  13.192  0.1912  0.3124  0.3360
 2378TIP3    H128549   2.256   3.081  13.114 -1.7774 -0.7306  1.2594
 2378TIP3    H228550   2.354   3.140  13.213 -2.7328  2.0807  0.6285
 2379TIP3   OH228551   1.915   3.856   4.997  0.2653  0.0113  0.1601
 2379TIP3    H128552   1.862   3.791   5.044 -0.3301 -0.1625 -0.7188
 2379TIP3    H228553   1.910   3.828   4.906 -0.3545  1.5293 -0.2914
 2380TIP3   OH228554   3.686   1.737   0.893  0.0903  0.5114 -0.0226
 2380TIP3    H128555   3.722   1.697   0.973  0.6520  1.1234  0.0386
 2380TIP3    H228556   3.762   1.771   0.847 -0.2094 -0.0639 -0.9586
 2381TIP3   OH228557   4.736   5.480  15.969 -0.2879  0.4198 -0.3216
 2381TIP3    H128558   4.732   5.388  15.946 -0.1412  0.1747  0.6201
 2381TIP3    H228559   4.644   5.506  15.981 -0.3470  0.4746 -0.8621
 2382TIP3   OH228560   5.718   5.792   1.149  0.1870  0.0938  0.5827
 2382TIP3    H128561   5.786   5.841   1.194 -0.0529  0.7530  0.2442
 2382TIP3    H228562   5.761   5.757   1.071  0.1224  0.5773  0.3277
 2383TIP3   OH228563   0.623   4.052   5.491 -0.0894  0.1652 -0.2225
 2383TIP3    H128564   0.666   4.126   5.448 -0.8917  0.8155  0.0730
 2383TIP3    H228565   0.560   4.092   5.551 -3.9737 -0.5999 -3.3270
 2384TIP3   OH228566   4.546   3.497  10.885 -0.8608  0.4033  0.1416
 2384TIP3    H128567   4.536   3.466  10.795  1.1706 -2.7118  0.8328
 2384TIP3    H228568   4.620   3.558  10.882  0.6250 -1.3321 -0.0617
 2385TIP3   OH228569   0.713   3.843  15.682  0.0351 -0.4030 -0.4174
 2385TIP3    H128570   0.635   3.789  15.691 -1.5627  2.0244  1.6262
 2385TIP3    H228571   0.751   3.845  15.770 -0.0003  1.7422 -0.4040
 2386TIP3   OH228572   6.132   1.685   4.220  0.1272 -0.3404 -0.8933
 2386TIP3    H128573   6.063   1.751   4.220 -0.6792 -1.1356  0.2375
 2386TIP3    H228574   6.212   1.733   4.198 -0.6513  0.7492 -1.4070
 2387TIP3   OH228575   2.397   3.667  14.729  0.2824  0.7350 -0.0782
 2387TIP3    H128576   2.425   3.609  14.801 -1.1093 -1.8354 -1.4552
 2387TIP3    H228577   2.302   3.674  14.740  0.2792  1.7275 -0.6902
 2388TIP3   OH228578   3.423   1.869  16.815  0.2074  0.3065 -0.3449
 2388TIP3    H128579   3.329   1.885  16.828  0.2151 -0.1090  0.2572
 2388TIP3    H228580   3.451   1.939  16.757 -0.4384  0.5586 -0.3613
 2389TIP3   OH228581   1.868   4.789   5.915 -0.1527  0.1452  0.6163
 2389TIP3    H128582   1.807   4.739   5.969 -0.9995  1.4595  0.9214
 2389TIP3    H228583   1.930   4.724   5.883 -0.4889 -0.8944  1.9813
 2390TIP3   OH228584   3.008   6.525  15.315 -0.4674 -0.1559 -0.3630
 2390TIP3    H128585   2.965   6.449  15.355 -1.1204  0.1805 -0.4157
 2390TIP3    H228586   3.093   6.529  15.357 -1.2020  0.2986  1.1472
 2391TIP3   OH228587   6.745   5.596   5.416 -0.1124 -0.3238  0.6064
 2391TIP3    H128588   6.751   5.543   5.495  0.0789 -0.0307  0.7929
 2391TIP3    H228589   6.797   5.675   5.436 -0.2759 -0.1318  0.2864
 2392TIP3   OH228590   3.373   5.992  10.864 -0.0849  0.6502 -0.8225
 2392TIP3    H128591   3.368   6.018  10.956  0.1064  1.7475 -1.1069
 2392TIP3    H228592   3.416   6.066  10.820 -2.7857  1.4956 -2.2918
 2393TIP3   OH228593   2.254   2.729  11.833  0.3815  0.0435 -0.2504
 2393TIP3    H128594   2.179   2.742  11.776 -0.4084 -0.6906  0.5692
 2393TIP3    H228595   2.275   2.636  11.824  0.6891  0.0734  0.1180
 2394TIP3   OH228596   0.110   2.212  14.319  0.2246 -0.1865 -0.3598
 2394TIP3    H128597   0.084   2.168  14.400 -2.2207  1.2240 -0.2760
 2394TIP3    H228598   0.043   2.279  14.305  1.6305  0.9087 -2.5483
 2395TIP3   OH228599   0.812   1.079   2.570 -0.1405  0.1107 -0.0165
 2395TIP3    H128600   0.756   1.001   2.567  1.0215 -0.7283 -0.8830
 2395TIP3    H228601   0.788   1.122   2.652 -2.4575  0.1321 -0.6440
 2396TIP3   OH228602   2.081   1.984  13.648 -0.3786 -0.3052  0.1556
 2396TIP3    H128603   2.009   1.944  13.697 -0.3224  0.8074  1.2114
 2396TIP3    H228604   2.134   2.028  13.714  0.0707  0.7085 -0.8276
 2397TIP3   OH228605   0.404   3.992  12.186  0.3041 -0.1917 -0.9428
 2397TIP3    H128606   0.437   3.932  12.120  1.2820 -1.8938  0.9828
 2397TIP3    H228607   0.473   4.057  12.197  0.1196  0.1224 -1.5998
 2398TIP3   OH228608   4.978   1.838  14.518 -0.5023  0.3360 -0.5810
 2398TIP3    H128609   5.044   1.775  14.491  0.0197  0.3730  0.5538
 2398TIP3    H228610   4.896   1.789  14.518  0.0999 -0.7901  1.6971
 2399TIP3   OH228611   5.728   3.392  16.648 -0.5341  0.7624  0.3338
 2399TIP3    H128612   5.684   3.319  16.691  0.2830 -0.4567 -0.8102
 2399TIP3    H228613   5.687   3.398  16.562  1.9562 -0.9798 -1.1138
 2400TIP3   OH228614   5.460   2.853   5.399 -0.4738  0.4667  0.7111
 2400TIP3    H128615   5.504   2.823   5.478 -0.5359 -1.3032  0.1211
 2400TIP3    H228616   5.519   2.918   5.361  1.2724 -1.2439  0.3767
 2401TIP3   OH228617   0.004   4.790  15.926  0.1244  0.4627  0.3512
 2401TIP3    H128618   0.093   4.767  15.899 -1.0966 -0.5857 -3.2821
 2401TIP3    H228619  -0.052   4.727  15.881 -2.5834  2.3031  0.9225
 2402TIP3   OH228620   4.776   3.567  13.804 -0.0821  0.2432 -0.5159
 2402TIP3    H128621   4.797   3.496  13.743 -0.1606 -0.8718  0.7086
 2402TIP3    H228622   4.846   3.563  13.870  0.5972  2.1063 -1.0673
 2403TIP3   OH228623   6.284   6.729  17.158  0.7917  0.3127  0.1622
 2403TIP3    H128624   6.311   6.665  17.091  2.7390 -0.5928  1.7127
 2403TIP3    H228625   6.199   6.697  17.189  0.3672  0.1551 -1.0988
 2404TIP3   OH228626   1.548   0.952   4.879 -0.4419  0.9447  0.2236
 2404TIP3    H128627   1.465   0.961   4.834 -0.7281  1.9187  0.9181
 2404TIP3    H228628   1.530   0.976   4.970  0.3626  0.1129  0.6304
 2405TIP3   OH228629   5.492   4.996   5.230 -0.0163  0.8420 -0.4660
 2405TIP3    H128630   5.550   4.930   5.268 -0.5631  0.7278  0.2061
 2405TIP3    H228631   5.535   5.079   5.248 -0.0030  0.7503 -0.0541
 2406TIP3   OH228632   4.435   6.584   0.947 -0.3746  0.3413  0.0735
 2406TIP3    H128633   4.475   6.547   0.868  0.7642  0.2212  0.6848
 2406TIP3    H228634   4.380   6.514   0.981  1.8062 -0.8911  1.2543
 2407TIP3   OH228635   4.133   4.128  11.189  0.1688 -0.3552  0.5927
 2407TIP3    H128636   4.062   4.189  11.212  0.8004  0.6576 -0.0687
 2407TIP3    H228637   4.094   4.069  11.126 -0.0904  0.2244  0.1986
 2408TIP3   OH228638   3.835   0.337   6.620 -0.0559 -0.8711  0.1305
 2408TIP3    H128639   3.812   0.262   6.565 -1.9547 -0.2835  0.0338
 2408TIP3    H228640   3.929   0.329   6.634  0.4018 -1.3531 -2.6957
 2409TIP3   OH228641   1.858   4.704   4.524 -0.1525 -0.3909  0.5073
 2409TIP3    H128642   1.808   4.634   4.568 -0.1709 -0.5508  0.2373
 2409TIP3    H228643   1.793   4.749   4.470 -0.1572 -0.1099  0.7471
 2410TIP3   OH228644   1.729   2.276   0.819 -0.3321 -0.2435  0.1240
 2410TIP3    H128645   1.779   2.260   0.899  0.4538 -2.2556 -0.6939
 2410TIP3    H228646   1.647   2.227   0.831  0.0262 -1.0283 -0.4808
 2411TIP3   OH228647   0.427   1.470   4.254 -0.1134  0.2059 -0.1167
 2411TIP3    H128648   0.398   1.478   4.345 -0.0839 -1.2393  0.0294
 2411TIP3    H228649   0.470   1.554   4.236  0.9804  0.0593  1.5978
 2412TIP3   OH228650   4.967   6.441  11.666 -0.5625  0.0277  0.0408
 2412TIP3    H128651   4.888   6.387  11.653 -0.6616  0.3330 -0.6537
 2412TIP3    H228652   5.017   6.393  11.731 -2.7197  1.3184  2.8636
 2413TIP3   OH228653   1.965   6.749   5.333  0.1101  0.1027 -0.5805
 2413TIP3    H128654   2.025   6.739   5.407 -1.6969 -1.9059  0.7413
 2413TIP3    H228655   1.913   6.827   5.354  0.5930  0.4023 -0.4907
 2414TIP3   OH228656   5.496   4.160  14.795  0.8692 -0.1639  0.0264
 2414TIP3    H128657   5.525   4.251  14.787  2.7879 -0.5915  1.3536
 2414TIP3    H228658   5.411   4.166  14.839  0.3315  1.0189 -1.1087
 2415TIP3   OH228659   0.160   4.310   1.343 -0.0806 -0.4627  0.7631
 2415TIP3    H128660   0.096   4.312   1.272 -0.4988 -1.6854  1.0640
 2415TIP3    H228661   0.245   4.314   1.299 -0.3198 -1.8262  0.1212
 2416TIP3   OH228662   1.088   0.455   5.660  0.5146  0.1243 -0.2523
 2416TIP3    H128663   1.120   0.371   5.693  1.3025  1.0932  1.5650
 2416TIP3    H228664   0.993   0.452   5.675  0.2871 -1.0132 -1.6381
 2417TIP3   OH228665   3.066   6.073   1.159  0.4013  0.4817 -0.3461
 2417TIP3    H128666   3.109   6.149   1.119  0.6495  1.2669  1.3315
 2417TIP3    H228667   3.121   5.999   1.134  0.5130  0.9151 -1.4763
 2418TIP3   OH228668   1.071   3.227   5.016  0.3559  0.5065  0.1588
 2418TIP3    H128669   1.058   3.305   4.961  0.4607  1.2179  1.1293
 2418TIP3    H228670   1.135   3.254   5.081 -0.7234  0.0795  1.4322
 2419TIP3   OH228671   3.033   5.929  14.162  0.2390  0.1037 -0.5727
 2419TIP3    H128672   3.092   5.873  14.110 -0.5344 -3.8866  2.3357
 2419TIP3    H228673   3.091   5.972  14.224  0.5706  0.2616 -0.9847
 2420TIP3   OH228674   5.233   2.504   0.597  0.0781  0.4010  0.7220
 2420TIP3    H128675   5.220   2.513   0.691 -0.8913 -3.4358  1.0989
 2420TIP3    H228676   5.294   2.431   0.587 -1.6780 -0.9237 -1.5816
 2421TIP3   OH228677   1.282   1.102  11.622 -0.2504  0.1309  0.2789
 2421TIP3    H128678   1.195   1.116  11.585  0.1835  0.5723 -0.5970
 2421TIP3    H228679   1.267   1.046  11.699 -1.1233 -1.2081 -0.8166
 2422TIP3   OH228680   6.495   1.516   3.256 -1.1818  0.4817 -0.1099
 2422TIP3    H128681   6.475   1.584   3.192  1.4596 -1.0401 -2.7747
 2422TIP3    H228682   6.425   1.452   3.246  0.1400 -0.6850 -3.1071
 2423TIP3   OH228683   1.771   2.207  12.607  0.8519 -0.1197 -0.5459
 2423TIP3    H128684   1.826   2.240  12.678  1.2425 -0.4283 -0.7014
 2423TIP3    H228685   1.831   2.158  12.551  0.2225 -1.4277 -0.1199
 2424TIP3   OH228686   5.952   5.638   1.643 -0.2771  1.0197  0.0698
 2424TIP3    H128687   5.967   5.656   1.736 -0.2697  0.0728  0.2605
 2424TIP3    H228688   5.968   5.544   1.633  1.2719  1.3766 -1.2118
 2425TIP3   OH228689   2.829   0.094   5.781  0.0930 -0.3740  0.0900
 2425TIP3    H128690   2.837   0.128   5.870 -0.5437  0.0429 -0.0059
 2425TIP3    H228691   2.751   0.039   5.783  0.3046 -0.6838 -0.1108
 2426TIP3   OH228692   0.514   6.291   0.364 -0.1568  0.0020 -0.6838
 2426TIP3    H128693   0.580   6.346   0.406  0.4581  0.0446 -1.6786
 2426TIP3    H228694   0.540   6.202   0.386  0.2199  0.0201 -1.0343
 2427TIP3   OH228695   3.045   1.688   6.429  0.5258 -0.3184  0.5802
 2427TIP3    H128696   3.022   1.753   6.495 -0.7556 -0.3507  0.1966
 2427TIP3    H228697   3.118   1.727   6.380  0.3347  0.4513  0.9000
 2428TIP3   OH228698   2.272   1.245  15.677  0.0841 -0.1342 -0.0941
 2428TIP3    H128699   2.308   1.184  15.613  0.2869  0.9416 -1.0442
 2428TIP3    H228700   2.219   1.305  15.625 -1.4669 -0.4851  1.0366
 2429TIP3   OH228701   5.522   0.433   2.111  0.2177 -0.3060 -0.0983
 2429TIP3    H128702   5.528   0.359   2.052 -1.6962  0.4484 -1.3237
 2429TIP3    H228703   5.430   0.438   2.136  0.5981  0.6787  1.2753
 2430TIP3   OH228704   4.908   3.392  15.741  0.0669 -0.0965  0.2862
 2430TIP3    H128705   4.983   3.401  15.800  0.2877  0.7869 -0.1051
 2430TIP3    H228706   4.868   3.479  15.741  0.4434  0.1133 -1.3527
 2431TIP3   OH228707   4.815   4.972   5.938 -0.3031 -0.4023  0.5222
 2431TIP3    H128708   4.761   4.901   5.906 -0.5035  0.4282 -1.1055
 2431TIP3    H228709   4.760   5.019   6.001 -1.7601  0.7770 -1.5359
 2432TIP3   OH228710   3.737   4.449   1.005 -0.4668  0.3271  0.2831
 2432TIP3    H128711   3.676   4.477   1.072 -0.1510 -0.5311  0.9507
 2432TIP3    H228712   3.724   4.354   1.000 -0.9374  0.4391 -1.3201
 2433TIP3   OH228713   2.615   6.184  13.898 -0.0871  0.0688 -0.2040
 2433TIP3    H128714   2.602   6.089  13.888  0.2241  0.1248 -1.3412
 2433TIP3    H228715   2.583   6.204  13.986  2.2249 -1.5208  1.1126
 2434TIP3   OH228716   5.374   3.106   1.347  0.3656  0.6419  0.0755
 2434TIP3    H128717   5.464   3.121   1.319  0.9919 -3.1448 -0.4555
 2434TIP3    H228718   5.322   3.160   1.287  2.1619  0.8706 -1.3894
 2435TIP3   OH228719   1.151   4.684  17.089 -0.8058 -0.0216 -0.2779
 2435TIP3    H128720   1.088   4.748  17.055 -1.4745  0.1751  1.2280
 2435TIP3    H228721   1.236   4.722  17.068 -1.1685  1.9472  1.4644
 2436TIP3   OH228722   2.059   2.444  16.860  0.6801 -0.7576 -0.6881
 2436TIP3    H128723   2.057   2.420  16.953  0.7385  2.3496  0.2413
 2436TIP3    H228724   1.968   2.436  16.832  0.6332 -1.5862 -0.3275
 2437TIP3   OH228725   2.654   5.581   3.101  0.4411  0.5289 -0.1096
 2437TIP3    H128726   2.646   5.501   3.152 -2.3693  1.2684  0.7538
 2437TIP3    H228727   2.592   5.570   3.028  0.3088  1.7311 -0.2066
 2438TIP3   OH228728   2.574   4.965  14.092  0.0441  0.7160 -0.1619
 2438TIP3    H128729   2.572   4.988  14.185 -2.3966  0.5084 -0.1065
 2438TIP3    H228730   2.517   5.029  14.049 -0.6545 -0.5081 -1.1525
 2439TIP3   OH228731   0.338   3.398   0.787 -0.2078  0.2424 -0.0743
 2439TIP3    H128732   0.320   3.470   0.847  0.5508  0.7146 -0.3990
 2439TIP3    H228733   0.342   3.320   0.844 -0.0907  0.5973  0.4093
 2440TIP3   OH228734   5.176   5.797  15.482  0.0829  0.6510 -0.6420
 2440TIP3    H128735   5.242   5.728  15.476 -1.0276 -0.5744  0.4982
 2440TIP3    H228736   5.197   5.844  15.563 -0.0100  0.7264 -0.6612
 2441TIP3   OH228737   2.783   3.869   2.900 -0.0296  0.2795 -0.4013
 2441TIP3    H128738   2.712   3.844   2.958  1.2230 -0.0737  1.0661
 2441TIP3    H228739   2.780   3.965   2.898 -0.0715  0.3041  0.3267
 2442TIP3   OH228740   3.765   3.792  16.937 -0.0795 -0.5471  0.4219
 2442TIP3    H128741   3.707   3.827  17.005 -0.4055  0.9312 -0.5553
 2442TIP3    H228742   3.717   3.808  16.855  1.0181 -0.7769 -0.2756
 2443TIP3   OH228743   0.324   0.632  13.431 -0.0654 -0.4764 -0.4429
 2443TIP3    H128744   0.320   0.545  13.389 -2.6636 -0.2600 -0.8413
 2443TIP3    H228745   0.240   0.672  13.410 -0.2663  0.8798  2.4727
 2444TIP3   OH228746   3.974   1.770   3.072 -0.0518 -0.1797 -0.5712
 2444TIP3    H128747   3.921   1.740   2.999 -0.2965 -3.6426  0.8400
 2444TIP3    H228748   3.913   1.773   3.146  0.3869  2.3725 -0.2127
 2445TIP3   OH228749   2.412   1.045  16.637 -0.1162 -0.1759  0.1872
 2445TIP3    H128750   2.366   1.126  16.659 -3.1473 -1.6032 -0.3027
 2445TIP3    H228751   2.390   0.985  16.707  0.6776 -1.0729 -0.3106
 2446TIP3   OH228752   4.056   1.597   1.994 -0.2348  0.1092 -0.3096
 2446TIP3    H128753   4.105   1.648   1.930  0.3582 -0.3444 -0.2187
 2446TIP3    H228754   3.974   1.646   2.006 -0.0337  0.5840 -0.8559
 2447TIP3   OH228755   0.557   4.905   0.784  0.0033  0.6063 -0.1254
 2447TIP3    H128756   0.520   4.831   0.737  2.4020  0.6577 -2.3056
 2447TIP3    H228757   0.652   4.897   0.773  0.4521  3.0010  1.1172
 2448TIP3   OH228758   1.083   0.203   0.891  0.3516  0.4687 -0.4519
 2448TIP3    H128759   1.050   0.114   0.901  1.1790  0.1287 -0.6658
 2448TIP3    H228760   1.006   0.255   0.869 -0.1554 -0.1711 -0.2149
 2449TIP3   OH228761   4.645   3.926  12.509  0.3716 -0.5971  0.3074
 2449TIP3    H128762   4.611   3.850  12.555 -2.5881 -0.1796 -0.9569
 2449TIP3    H228763   4.705   3.890  12.444  1.3192 -1.5214  1.6335
 2450TIP3   OH228764   2.810   3.554  16.294  0.7547  0.1590 -0.1853
 2450TIP3    H128765   2.829   3.619  16.227 -3.2439 -0.4841 -2.2106
 2450TIP3    H228766   2.778   3.477  16.246 -1.2231 -0.7500  2.3405
 2451TIP3   OH228767   3.884   5.246  13.946  0.1691  0.0290 -0.0598
 2451TIP3    H128768   3.951   5.310  13.971  0.5611 -0.2631 -0.3332
 2451TIP3    H228769   3.801   5.286  13.970  0.4554  0.3206  0.4572
 2452TIP3   OH228770   5.945   6.788   2.113 -0.3040 -0.3382  0.3817
 2452TIP3    H128771   5.927   6.727   2.042 -0.0449  0.8180 -0.7074
 2452TIP3    H228772   5.875   6.852   2.109 -1.1644 -1.0735  2.1790
 2453TIP3   OH228773   0.196   5.070  10.420 -0.1747 -0.0218  0.0966
 2453TIP3    H128774   0.258   5.138  10.446  1.2459 -0.7901 -1.1256
 2453TIP3    H228775   0.124   5.078  10.483 -0.0317  2.5140  0.0600
 2454TIP3   OH228776   1.813   2.046   3.068  0.2504  0.2800 -0.8628
 2454TIP3    H128777   1.889   2.022   3.015  0.1708 -0.6215 -0.5881
 2454TIP3    H228778   1.835   2.132   3.103 -0.8575  2.2769 -4.5341
 2455TIP3   OH228779   4.431   3.262   0.253  0.3834  0.1412 -0.1143
 2455TIP3    H128780   4.357   3.285   0.308  0.2198 -1.1096  0.2297
 2455TIP3    H228781   4.392   3.227   0.173  0.6007 -0.0436 -0.1423
 2456TIP3   OH228782   2.221   2.670  16.923  0.0974  0.1671 -0.1879
 2456TIP3    H128783   2.201   2.581  16.896  2.4138  0.2651 -2.6670
 2456TIP3    H228784   2.147   2.722  16.891  0.2300 -0.4835 -1.6346
 2457TIP3   OH228785   1.752   0.443  14.963  0.5282  0.1537 -0.5626
 2457TIP3    H128786   1.833   0.394  14.949  1.0240  0.5770  0.6973
 2457TIP3    H228787   1.741   0.493  14.882  0.3048 -1.5622 -1.6639
 2458TIP3   OH228788   1.499   3.908   2.779  0.1808 -0.2204  0.5491
 2458TIP3    H128789   1.490   3.998   2.750  1.2717  0.1874  1.4251
 2458TIP3    H228790   1.427   3.895   2.841  1.1817  0.7223  1.9818
 2459TIP3   OH228791   2.833   0.618  15.662  0.4664  0.4318  0.0081
 2459TIP3    H128792   2.762   0.681  15.670  0.1009  0.3247 -1.8594
 2459TIP3    H228793   2.912   0.669  15.679  0.1161  1.2314 -0.6631
 2460TIP3   OH228794   2.619   5.717   0.161  0.0665 -0.0713  0.3422
 2460TIP3    H128795   2.645   5.762   0.241  1.4576  0.7752 -0.5478
 2460TIP3    H228796   2.549   5.772   0.125 -0.6915 -0.5529  1.0441
 2461TIP3   OH228797   1.135   2.558  14.736  0.5352 -0.2557 -0.7799
 2461TIP3    H128798   1.221   2.585  14.768  0.7994 -0.9696 -0.8722
 2461TIP3    H228799   1.074   2.620  14.775  0.6217 -2.0482  2.5816
 2462TIP3   OH228800   6.713   4.167  12.919  0.7847 -0.0848 -0.1826
 2462TIP3    H128801   6.764   4.247  12.929 -0.2023  0.3503  2.1330
 2462TIP3    H228802   6.623   4.197  12.908  0.4635 -0.8753  0.2030
 2463TIP3   OH228803   6.561   2.764   1.110 -0.8159  0.5628  0.4105
 2463TIP3    H128804   6.471   2.793   1.099 -0.7400  1.1739  1.3407
 2463TIP3    H228805   6.613   2.843   1.100 -0.3963  0.2527  0.1169
 2464TIP3   OH228806   0.239   2.295   5.991 -1.0051  0.1908 -0.4325
 2464TIP3    H128807   0.292   2.215   5.991  0.7811  1.2878  1.7106
 2464TIP3    H228808   0.229   2.317   5.898 -0.6010 -1.8735 -1.0279
 2465TIP3   OH228809   3.645   2.381  14.213 -0.2783 -0.0554 -0.5820
 2465TIP3    H128810   3.740   2.376  14.221 -0.3029 -0.3762 -0.4577
 2465TIP3    H228811   3.624   2.472  14.230 -0.0248 -0.0635 -0.2164
 2466TIP3   OH228812   4.056   0.149  14.650  0.8466 -0.5277  1.0793
 2466TIP3    H128813   4.044   0.206  14.574  2.8542 -0.1897  0.9525
 2466TIP3    H228814   3.998   0.186  14.717  0.5069  0.3562  0.3221
 2467TIP3   OH228815   3.700   1.754   4.576  0.9248  0.5236 -0.6101
 2467TIP3    H128816   3.688   1.696   4.501  0.0936 -0.2548  0.0934
 2467TIP3    H228817   3.711   1.695   4.651 -0.8267  1.2249  0.2627
 2468TIP3   OH228818   2.722   3.408  11.877 -0.0707  0.6160 -0.3072
 2468TIP3    H128819   2.651   3.392  11.815  0.2487 -0.0380 -0.5237
 2468TIP3    H228820   2.801   3.409  11.822  0.3255 -0.8902  0.1664
 2469TIP3   OH228821   4.146   4.762   0.671  0.2969  0.1625  0.9942
 2469TIP3    H128822   4.134   4.856   0.656  2.0924  0.6799  2.4634
 2469TIP3    H228823   4.223   4.756   0.727  0.1703 -2.2067  1.0201
 2470TIP3   OH228824   3.915   0.783   5.586  0.2871  0.6590 -0.1397
 2470TIP3    H128825   3.957   0.702   5.615 -1.5448  0.0056  0.8673
 2470TIP3    H228826   3.961   0.806   5.505  0.7593 -1.4903 -0.5608
 2471TIP3   OH228827   1.642   1.706   3.017  0.4459  0.1222 -0.1035
 2471TIP3    H128828   1.718   1.673   2.969 -0.2333  0.5780 -1.5521
 2471TIP3    H228829   1.579   1.635   3.014  0.1139  0.4317 -0.5706
 2472TIP3   OH228830   5.621   3.202  12.816 -0.0285  0.2851 -0.1600
 2472TIP3    H128831   5.542   3.149  12.828 -0.4799  0.8401 -0.5828
 2472TIP3    H228832   5.693   3.139  12.813 -0.3678 -0.1726  0.9885
 2473TIP3   OH228833   3.069   4.475  12.602 -0.0989 -0.1900 -0.3316
 2473TIP3    H128834   3.009   4.401  12.611 -0.3038 -0.1078 -0.9598
 2473TIP3    H228835   3.084   4.505  12.692 -1.0467 -0.1856 -0.1605
 2474TIP3   OH228836   0.379   3.103  16.122  0.4807 -0.5154  0.3077
 2474TIP3    H128837   0.328   3.063  16.052 -2.9780  0.2873  2.1551
 2474TIP3    H228838   0.352   3.056  16.201  1.3928  1.0888  1.6323
 2475TIP3   OH228839   2.545   0.206   6.195  0.2146  0.4809  0.0989
 2475TIP3    H128840   2.518   0.120   6.227 -0.5526  1.1879  1.4332
 2475TIP3    H228841   2.632   0.219   6.232  0.4255  0.2045 -0.2854
 2476TIP3   OH228842   5.418   4.281   0.383 -0.2219  0.3618 -0.1358
 2476TIP3    H128843   5.352   4.304   0.316 -1.9557 -0.7404  1.1166
 2476TIP3    H228844   5.410   4.350   0.448  0.6899  0.8308 -0.5035
 2477TIP3   OH228845   6.168   5.338   4.056 -0.1872  0.9646  0.2292
 2477TIP3    H128846   6.159   5.415   4.001  1.9110  0.2384 -1.2417
 2477TIP3    H228847   6.241   5.359   4.115 -1.7586  1.3415  2.1508
 2478TIP3   OH228848   3.690   1.662  15.135 -0.0624 -0.4879  0.6681
 2478TIP3    H128849   3.652   1.610  15.064 -1.4153  0.7836  0.4210
 2478TIP3    H228850   3.773   1.619  15.154 -0.3227 -1.6824 -0.7242
 2479TIP3   OH228851   1.168   2.671   4.265 -0.3305 -0.3606 -0.7981
 2479TIP3    H128852   1.085   2.715   4.248 -0.9149 -1.1530 -0.0887
 2479TIP3    H228853   1.220   2.736   4.313 -1.3982 -0.5771  0.7433
 2480TIP3   OH228854   3.816   1.504   5.397 -0.7504 -0.5310 -0.3279
 2480TIP3    H128855   3.755   1.494   5.324 -0.0782 -0.3552 -0.9245
 2480TIP3    H228856   3.788   1.584   5.441 -1.4769 -0.9182 -0.0826
 2481TIP3   OH228857   4.219   1.770   1.853 -0.5087  0.3303 -0.1985
 2481TIP3    H128858   4.276   1.740   1.924 -2.2227 -0.9596  0.6880
 2481TIP3    H228859   4.274   1.762   1.775  1.0077  0.5757  0.7915
 2482TIP3   OH228860   4.978   1.932  11.156 -0.0680  0.2334 -0.0947
 2482TIP3    H128861   4.929   1.974  11.226 -1.8817 -0.4068 -0.9050
 2482TIP3    H228862   5.015   1.853  11.195 -2.3661 -0.9539 -0.1494
 2483TIP3   OH228863   3.975   4.449  16.026  0.7301 -0.0952 -0.8449
 2483TIP3    H128864   3.965   4.422  15.935  1.4350  2.6838 -1.8347
 2483TIP3    H228865   3.986   4.544  16.022  0.5936  0.1399  2.1704
 2484TIP3   OH228866   4.909   4.235   1.938 -0.0471  0.1786  0.1344
 2484TIP3    H128867   4.874   4.316   1.977 -0.1145 -0.1980  0.8700
 2484TIP3    H228868   4.976   4.265   1.877 -0.3958  0.8158  0.0521
 2485TIP3   OH228869   6.528   2.398   2.120  0.3615 -0.1169  0.5814
 2485TIP3    H128870   6.592   2.435   2.182 -0.9091 -0.6968  2.3148
 2485TIP3    H228871   6.564   2.419   2.034  3.2395 -0.9869  1.4340
 2486TIP3   OH228872   1.627   6.171  14.124 -0.1177 -0.2652 -0.0668
 2486TIP3    H128873   1.687   6.148  14.053  1.1891 -1.7820  1.4400
 2486TIP3    H228874   1.677   6.233  14.178 -2.0060  2.9755 -1.6834
 2487TIP3   OH228875   1.560   2.472   0.066  0.0277  0.1790  0.2138
 2487TIP3    H128876   1.495   2.452   0.133  1.3272  0.7242  1.7196
 2487TIP3    H228877   1.525   2.435  -0.014 -2.0618  0.3446  0.9893
 2488TIP3   OH228878   2.859   2.311   5.643 -0.2307  0.0819 -0.0171
 2488TIP3    H128879   2.843   2.236   5.701  0.1249  0.8052  1.0446
 2488TIP3    H228880   2.774   2.327   5.602  0.0005 -1.7236 -1.2957
 2489TIP3   OH228881   5.123   4.180   5.878 -0.0851 -0.4938  0.1408
 2489TIP3    H128882   5.137   4.199   5.785 -2.2893  0.9186  0.0277
 2489TIP3    H228883   5.177   4.245   5.924 -1.1025  0.6580 -0.2202
 2490TIP3   OH228884   2.985   4.981   5.000  0.1062  0.3147 -0.3475
 2490TIP3    H128885   3.022   4.918   5.062 -2.3716 -0.6755  0.2485
 2490TIP3    H228886   2.932   4.927   4.941 -0.9588  1.6940 -0.6941
 2491TIP3   OH228887   1.482   3.459  13.599  0.2393  0.3273 -0.2879
 2491TIP3    H128888   1.465   3.552  13.582 -0.0240  0.2542 -0.4200
 2491TIP3    H228889   1.542   3.433  13.529  1.3961  0.7333  0.5156
 2492TIP3   OH228890   2.738   4.691   4.492 -0.1632  0.3391 -0.3623
 2492TIP3    H128891   2.765   4.742   4.415  3.0918 -0.1466  0.2863
 2492TIP3    H228892   2.745   4.600   4.465 -1.1287  0.1834 -0.1063
 2493TIP3   OH228893   4.999   5.477  10.506  0.3599 -0.0688  0.0287
 2493TIP3    H128894   4.956   5.420  10.442  0.0324  2.1956 -1.8948
 2493TIP3    H228895   5.092   5.464  10.489  0.4196 -1.9473  1.4462
 2494TIP3   OH228896   5.860   3.554   3.615  0.4164  0.5138  0.0014
 2494TIP3    H128897   5.869   3.641   3.575  0.0489  0.0830 -1.0702
 2494TIP3    H228898   5.940   3.543   3.667  0.0006  1.8970  0.9923
 2495TIP3   OH228899   2.959   5.965   0.210 -0.1057  0.3837 -0.9264
 2495TIP3    H128900   2.873   5.964   0.252  0.8164 -0.2724  1.0371
 2495TIP3    H228901   2.970   5.877   0.175  0.1872  0.1551 -0.2656
 2496TIP3   OH228902   3.139   0.118   1.104  0.7127  0.1201 -0.3169
 2496TIP3    H128903   3.064   0.110   1.162 -0.7656  0.2893 -2.1270
 2496TIP3    H228904   3.125   0.199   1.056  0.9017 -0.9043 -2.2123
 2497TIP3   OH228905   1.009   5.769   1.358  0.2042  0.5197  0.1752
 2497TIP3    H128906   0.956   5.694   1.387  1.3224 -0.9483 -1.3838
 2497TIP3    H228907   0.968   5.844   1.399 -1.3573 -0.8760  1.3125
 2498TIP3   OH228908   1.012   0.115  11.570  0.4076 -0.2401 -0.2564
 2498TIP3    H128909   1.071   0.095  11.643 -2.2526 -1.1279  1.8131
 2498TIP3    H228910   0.987   0.207  11.583  1.7086  0.3296 -1.4938
 2499TIP3   OH228911   4.446   5.038  11.636 -0.5560  0.9794 -0.3227
 2499TIP3    H128912   4.470   5.004  11.722 -0.8102  1.9035  0.1278
 2499TIP3    H228913   4.375   5.100  11.654 -0.2848  1.5441 -1.1457
 2500TIP3   OH228914   5.954   2.073  10.788  0.2428  0.3634  0.0432
 2500TIP3    H128915   5.955   2.055  10.694  0.7679 -0.7668  0.2383
 2500TIP3    H228916   5.862   2.079  10.811  0.1253  1.6308 -0.7089
 2501TIP3   OH228917   3.646   0.626   0.734  0.0188 -0.5866  0.6453
 2501TIP3    H128918   3.624   0.643   0.643 -1.4687 -2.5762  0.5526
 2501TIP3    H228919   3.564   0.598   0.774  0.1862  2.0253  3.1391
 2502TIP3   OH228920   1.669   5.489  14.536 -0.1694 -0.0939  0.6891
 2502TIP3    H128921   1.679   5.464  14.444  2.8252 -0.2829  0.9485
 2502TIP3    H228922   1.674   5.406  14.584  1.4953  0.2164  1.1244
 2503TIP3   OH228923   4.323   2.178  13.383  0.3423  0.6022 -0.3683
 2503TIP3    H128924   4.293   2.107  13.441  0.5554  0.0686 -0.8954
 2503TIP3    H228925   4.417   2.164  13.376  0.2595  0.3947 -1.1790
 2504TIP3   OH228926   2.135   6.371  15.162 -0.3348 -0.2511 -0.3670
 2504TIP3    H128927   2.158   6.464  15.161  0.5884 -0.3638  2.1748
 2504TIP3    H228928   2.042   6.370  15.184 -0.0324  0.1112  1.0721
 2505TIP3   OH228929   3.881   3.894   4.405  0.0022 -0.2188  0.1784
 2505TIP3    H128930   3.805   3.911   4.459 -0.9765 -0.4449 -1.0890
 2505TIP3    H228931   3.876   3.800   4.385  0.0118 -0.0311 -0.7680
 2506TIP3   OH228932   0.804   0.285  15.063 -0.3779  0.0469 -0.0335
 2506TIP3    H128933   0.852   0.368  15.065 -0.5715  0.1735 -0.5891
 2506TIP3    H228934   0.782   0.271  14.971 -0.4302 -0.5770  0.0651
 2507TIP3   OH228935   5.770   6.749  11.974 -0.1690 -0.1453 -0.3991
 2507TIP3    H128936   5.737   6.839  11.979 -0.5248 -0.3123  0.5556
 2507TIP3    H228937   5.725   6.704  12.045 -0.0218 -1.0931 -0.8973
 2508TIP3   OH228938   0.601   2.923   0.407  0.0959 -0.0626 -0.5516
 2508TIP3    H128939   0.678   2.977   0.391 -0.1798  1.0541  1.4859
 2508TIP3    H228940   0.572   2.896   0.320  2.4174 -0.0393 -1.3948
 2509TIP3   OH228941   5.065   6.172  11.722 -0.1623  0.1924  0.1610
 2509TIP3    H128942   5.048   6.090  11.767  0.5088 -0.0363  0.0191
 2509TIP3    H228943   5.160   6.181  11.724 -0.3040  1.8396  1.7008
 2510TIP3   OH228944   1.990   1.564  15.234  0.2923  0.3157 -0.0586
 2510TIP3    H128945   1.953   1.487  15.277  1.4062  0.5312  1.3915
 2510TIP3    H228946   1.983   1.634  15.300 -1.6215  1.7918 -1.6817
 2511TIP3   OH228947   1.249   2.753   5.162  0.6977  0.1983 -0.0082
 2511TIP3    H128948   1.269   2.780   5.252  1.9626  0.4647 -0.3437
 2511TIP3    H228949   1.211   2.830   5.122  1.0348  0.3902  0.0335
 2512TIP3   OH228950   5.807   1.662  14.655 -0.0659  0.4395 -0.3337
 2512TIP3    H128951   5.740   1.628  14.596  0.4470 -0.2997 -0.5128
 2512TIP3    H228952   5.779   1.635  14.742  0.3285 -0.4646 -0.4734
 2513TIP3   OH228953   1.180   6.655   2.949 -0.0601 -0.0078 -0.3089
 2513TIP3    H128954   1.093   6.651   2.909  0.3539  0.2123 -1.2710
 2513TIP3    H228955   1.184   6.741   2.989 -1.3098 -1.0436  2.2444
 2514TIP3   OH228956   6.317   6.559  12.001  0.6580  0.5512  0.0887
 2514TIP3    H128957   6.311   6.651  12.028 -0.6823  0.3962  0.4104
 2514TIP3    H228958   6.389   6.523  12.054  2.0890  1.7058 -0.9929
 2515TIP3   OH228959   1.960   3.981  15.247  0.1838 -0.5780  0.4703
 2515TIP3    H128960   2.038   4.036  15.253  0.7850 -1.3360 -0.1889
 2515TIP3    H228961   1.907   4.022  15.179  0.1860 -0.2848  0.6413
 2516TIP3   OH228962   4.370   6.029   5.052 -0.5279 -0.3838  0.1774
 2516TIP3    H128963   4.332   5.952   5.010 -1.1160 -0.3048  0.5697
 2516TIP3    H228964   4.298   6.091   5.060  0.1925  0.7417 -1.3177
 2517TIP3   OH228965   1.374   3.752   0.102  0.1217  0.6719 -0.3205
 2517TIP3    H128966   1.289   3.735   0.062  0.1360  1.0186 -0.4938
 2517TIP3    H228967   1.370   3.844   0.129 -0.5526  0.0287  2.0562
 2518TIP3   OH228968   5.201   3.820  15.819  0.0895 -0.2964  0.2179
 2518TIP3    H128969   5.274   3.767  15.786 -1.3061 -1.8567 -0.4783
 2518TIP3    H228970   5.224   3.910  15.793  1.1719 -0.9036 -1.0750
 2519TIP3   OH228971   1.913   3.720  14.411  0.0497  0.1237 -0.1253
 2519TIP3    H128972   1.931   3.643  14.357 -1.0766  0.1857 -0.6310
 2519TIP3    H228973   1.975   3.715  14.483  1.9196  0.2525 -1.6289
 2520TIP3   OH228974   5.174   0.014  11.810 -0.0151 -0.2274 -0.0917
 2520TIP3    H128975   5.172  -0.040  11.731  1.7097  0.3002 -0.5428
 2520TIP3    H228976   5.090   0.061  11.810  0.1676  0.1739 -1.9256
 2521TIP3   OH228977   2.687   1.637  15.218  0.2315  0.1735 -0.1671
 2521TIP3    H128978   2.719   1.657  15.130 -1.1232 -0.8505 -0.9351
 2521TIP3    H228979   2.722   1.707  15.273 -0.5321  1.9987 -1.8789
 2522TIP3   OH228980   1.129   5.157  15.611  0.3979 -0.1087 -0.8830
 2522TIP3    H128981   1.068   5.160  15.538  0.2926 -1.6997 -0.9007
 2522TIP3    H228982   1.076   5.130  15.686  0.6625  0.6807 -0.3973
 2523TIP3   OH228983   1.732   6.347   4.797 -0.2250 -0.1842  0.6210
 2523TIP3    H128984   1.823   6.343   4.828 -0.5151 -0.7178  1.4333
 2523TIP3    H228985   1.681   6.304   4.866 -0.9215 -1.2323 -0.5052
 2524TIP3   OH228986   0.509   4.608   3.877  0.4538 -0.7612 -0.2718
 2524TIP3    H128987   0.509   4.562   3.960  3.0785  1.1956  0.9662
 2524TIP3    H228988   0.507   4.540   3.810  1.2315 -2.5084  1.4219
 2525TIP3   OH228989   0.378   3.768  16.868 -0.6558  0.8091  0.0463
 2525TIP3    H128990   0.318   3.719  16.813 -0.1055  2.0123 -1.7326
 2525TIP3    H228991   0.333   3.777  16.952 -1.1790 -1.7864  0.1189
 2526TIP3   OH228992   6.480   2.145   3.622 -0.0742  0.5558  0.3267
 2526TIP3    H128993   6.391   2.110   3.628  0.5422 -0.9901  0.8802
 2526TIP3    H228994   6.477   2.226   3.674 -1.5531  1.4797 -1.0736
 2527TIP3   OH228995   5.943   0.445  14.692  0.1091  0.2126 -0.2081
 2527TIP3    H128996   5.935   0.516  14.628  0.0590 -0.5346 -1.0475
 2527TIP3    H228997   5.854   0.424  14.718  0.1184  0.3785 -0.0368
 2528TIP3   OH228998   2.553   1.779  11.031 -0.0905 -0.2922 -0.1437
 2528TIP3    H128999   2.473   1.729  11.012 -1.6495  2.2928 -0.8373
 2528TIP3    H229000   2.563   1.837  10.955  1.2864  0.8627  0.8809
 2529TIP3   OH229001   5.328   4.889  16.829  0.3019  0.1787 -0.0631
 2529TIP3    H129002   5.403   4.889  16.889  0.7466  0.9096 -0.5945
 2529TIP3    H229003   5.272   4.959  16.862  0.6194  0.6796 -0.5840
 2530TIP3   OH229004   0.856   6.501  15.385 -0.4310  0.1950  0.5047
 2530TIP3    H129005   0.800   6.565  15.339 -1.5477  1.2176  3.1025
 2530TIP3    H229006   0.944   6.535  15.375 -0.7252  0.7732 -0.2652
 2531TIP3   OH229007   2.419   5.133  16.534 -0.1101 -0.1703  0.0221
 2531TIP3    H129008   2.442   5.081  16.457 -2.0281 -0.4840 -0.3741
 2531TIP3    H229009   2.327   5.156  16.522  0.0434  1.3398  1.3448
 2532TIP3   OH229010   2.256   5.108  14.310  0.5076 -0.2785 -0.1474
 2532TIP3    H129011   2.338   5.107  14.261  1.4588 -1.0233  1.3616
 2532TIP3    H229012   2.283   5.124  14.400 -1.0376 -0.3131  0.3389
 2533TIP3   OH229013   1.317   0.810   3.852 -0.3121  0.1391 -0.1265
 2533TIP3    H129014   1.234   0.772   3.824 -0.5774  1.0949 -0.6861
 2533TIP3    H229015   1.343   0.757   3.928 -0.9862 -0.7167 -0.4709
 2534TIP3   OH229016   3.335   3.799  12.395 -0.3140  0.0169 -0.4069
 2534TIP3    H129017   3.380   3.750  12.465 -0.5775  0.8373  0.3558
 2534TIP3    H229018   3.268   3.739  12.364  1.4093 -1.3233 -1.7233
 2535TIP3   OH229019   6.380   5.990  14.543 -0.3897 -0.0622  0.3583
 2535TIP3    H129020   6.373   5.957  14.454  0.8407  1.2548 -0.2686
 2535TIP3    H229021   6.461   6.041  14.544  0.1751 -0.8900  2.5222
 2536TIP3   OH229022   2.144   4.865   5.213  0.2474 -0.3411 -0.1532
 2536TIP3    H129023   2.233   4.876   5.246 -0.5381  1.9637  1.4230
 2536TIP3    H229024   2.094   4.830   5.287 -0.1922 -1.7253 -1.0541
 2537TIP3   OH229025   0.924   1.429   1.113 -0.0372 -0.1679  0.1061
 2537TIP3    H129026   0.947   1.363   1.179  1.1357  0.3680  0.2671
 2537TIP3    H229027   0.932   1.383   1.030 -1.1929 -0.7561  0.2966
 2538TIP3   OH229028   6.154   4.368  16.492 -0.2028  0.0427 -0.0996
 2538TIP3    H129029   6.238   4.414  16.496 -1.2908  2.3419 -1.6049
 2538TIP3    H229030   6.099   4.412  16.556 -1.2280  0.8131 -1.4636
 2539TIP3   OH229031   2.253   1.490   1.829  0.2168 -0.3948  0.1114
 2539TIP3    H129032   2.180   1.525   1.881  0.3747  1.2698 -0.7293
 2539TIP3    H229033   2.231   1.397   1.817 -1.0403 -0.2550  1.0750
 2540TIP3   OH229034   0.639   4.916  14.268  0.0960  0.1704 -0.3190
 2540TIP3    H129035   0.586   4.836  14.275  0.5218 -0.0801  0.0784
 2540TIP3    H229036   0.698   4.899  14.195  0.2647  0.0764 -0.1607
 2541TIP3   OH229037   6.178   0.206  17.111 -0.6307 -0.0198  0.0644
 2541TIP3    H129038   6.232   0.129  17.092 -0.7468 -0.0311 -0.2178
 2541TIP3    H229039   6.140   0.188  17.197  1.3487  0.8231  1.2039
 2542TIP3   OH229040   2.376   1.895   3.792 -0.6067  0.1097 -0.3205
 2542TIP3    H129041   2.293   1.878   3.835 -1.3547  2.5995 -0.5996
 2542TIP3    H229042   2.352   1.928   3.705  0.6978  0.2161 -0.6613
 2543TIP3   OH229043   2.160   3.790  11.096 -0.4617  0.3597 -0.2542
 2543TIP3    H129044   2.091   3.857  11.089  0.3190  1.3078  0.7375
 2543TIP3    H229045   2.237   3.832  11.057 -0.0061 -0.0206  0.2342
 2544TIP3   OH229046   1.205   6.007  11.714 -0.2899 -0.0446 -0.6158
 2544TIP3    H129047   1.211   5.997  11.619 -1.4375  0.6576 -0.7853
 2544TIP3    H229048   1.234   6.096  11.731  2.3926 -0.9613  0.0109
 2545TIP3   OH229049   2.045   2.179  12.314  0.1906 -0.3272 -0.6307
 2545TIP3    H129050   1.985   2.237  12.267 -2.2188 -1.8369  0.3728
 2545TIP3    H229051   1.988   2.110  12.349  2.3358 -1.0526  1.6789
 2546TIP3   OH229052   3.071   2.900  14.426 -0.6922 -0.1263 -0.1878
 2546TIP3    H129053   3.166   2.897  14.415 -0.7103  0.4849 -0.5431
 2546TIP3    H229054   3.058   2.900  14.521 -0.4824 -3.6415 -0.0225
 2547TIP3   OH229055   1.015   3.990   5.874 -0.1296 -0.8999  0.5068
 2547TIP3    H129056   0.921   3.986   5.857 -0.0912  1.7107 -0.7184
 2547TIP3    H229057   1.023   4.022   5.964 -0.4366 -0.2813  0.3187
 2548TIP3   OH229058   2.261   0.811   5.785  0.9712  0.0641  0.0885
 2548TIP3    H129059   2.216   0.733   5.818  0.1007  0.2936 -0.4999
 2548TIP3    H229060   2.298   0.852   5.863  1.0904 -0.7131  0.4537
 2549TIP3   OH229061   4.189   5.105  15.436  0.1677 -0.5497  0.0814
 2549TIP3    H129062   4.095   5.099  15.454  0.6139 -0.1284  3.0901
 2549TIP3    H229063   4.209   5.198  15.446  1.2922 -0.9595  2.3434
 2550TIP3   OH229064   5.029   3.579   0.870  0.4274  0.1462  0.0670
 2550TIP3    H129065   5.053   3.669   0.849 -3.0521  1.1540 -0.0618
 2550TIP3    H229066   5.037   3.532   0.788  0.7040  0.7083 -0.2337
 2551TIP3   OH229067   3.231   2.203   1.514  0.1591  0.3040  0.1788
 2551TIP3    H129068   3.324   2.189   1.494  0.4397 -1.2871  2.1644
 2551TIP3    H229069   3.228   2.291   1.553  1.1686 -0.2306  1.5619
 2552TIP3   OH229070   0.400   3.993  10.500 -0.0110  0.2138 -0.3112
 2552TIP3    H129071   0.327   4.034  10.546 -1.9884 -2.8885 -0.3903
 2552TIP3    H229072   0.456   3.958  10.570 -0.1901  0.0280 -0.2616
 2553TIP3   OH229073   2.976   4.570  15.366  0.2795 -0.2071 -0.0308
 2553TIP3    H129074   2.933   4.577  15.452  0.0788  0.0645 -0.1513
 2553TIP3    H229075   3.017   4.484  15.367 -1.3213 -1.0221 -0.3840
 2554TIP3   OH229076   1.323   2.994  16.925 -0.0570  0.5891  0.0996
 2554TIP3    H129077   1.251   3.044  16.886 -2.0069 -2.0994 -0.0057
 2554TIP3    H229078   1.333   2.918  16.867 -0.0057 -1.2335  2.3441
 2555TIP3   OH229079   3.405   5.279  17.223 -0.3390  0.3371  0.1257
 2555TIP3    H129080   3.322   5.309  17.259  0.8509  2.0260  1.7043
 2555TIP3    H229081   3.419   5.336  17.146 -1.5944 -1.4301 -1.5065
 2556TIP3   OH229082   2.755   4.741  12.712  0.3981  0.3234 -0.1525
 2556TIP3    H129083   2.697   4.699  12.649 -0.1037  0.8498 -0.0479
 2556TIP3    H229084   2.843   4.723  12.680  0.1498  0.5335 -0.9707
 2557TIP3   OH229085   6.167   2.745  12.513  0.0451  0.7395 -0.6426
 2557TIP3    H129086   6.201   2.722  12.426  0.5116  0.3980 -0.3759
 2557TIP3    H229087   6.197   2.834  12.528  1.0834  0.3486 -0.2950
 2558TIP3   OH229088   6.016   5.452   3.218 -0.2017 -0.6297 -0.5441
 2558TIP3    H129089   6.094   5.420   3.262 -0.4160 -0.7986 -0.2887
 2558TIP3    H229090   6.042   5.538   3.183  0.0880 -0.6743 -0.4441
 2559TIP3   OH229091   6.361   0.042  11.262  0.5538  0.0933 -0.0572
 2559TIP3    H129092   6.336   0.131  11.285  0.3049  1.1094 -3.5912
 2559TIP3    H229093   6.421   0.053  11.188  1.4489 -2.6717  0.1410
 2560TIP3   OH229094   2.234   1.628   4.455  0.9448  0.2383 -0.4760
 2560TIP3    H129095   2.246   1.682   4.533 -1.4479 -1.5455  1.2810
 2560TIP3    H229096   2.323   1.604   4.429  1.8356  0.6046  1.9179
 2561TIP3   OH229097   1.403   4.319   1.088  0.0338  0.2628 -0.3764
 2561TIP3    H129098   1.460   4.246   1.068  0.1655  0.2015  0.2045
 2561TIP3    H229099   1.447   4.366   1.159 -1.0343 -0.2835  0.6982
 2562TIP3   OH229100   2.918   3.704  14.491  0.1488 -0.0670  0.0448
 2562TIP3    H129101   2.877   3.627  14.531  1.0353  0.1986  1.5511
 2562TIP3    H229102   2.850   3.771  14.489  0.1238 -0.0430  1.2774
 2563TIP3   OH229103   2.691   0.301  12.243  0.1789 -0.2280 -0.3889
 2563TIP3    H129104   2.770   0.348  12.215  0.1607  0.3363  0.4764
 2563TIP3    H229105   2.722   0.214  12.264  0.3859 -0.3235 -1.0503
 2564TIP3   OH229106   3.717   1.992   2.909 -0.4792 -0.2755 -0.2325
 2564TIP3    H129107   3.786   2.043   2.866 -1.2159  0.6373 -0.3668
 2564TIP3    H229108   3.734   1.902   2.883 -0.0650  0.0900 -1.2690
 2565TIP3   OH229109   2.344   6.398  16.133  0.2287 -0.3008  0.1969
 2565TIP3    H129110   2.339   6.484  16.090 -1.9670  0.2031  1.2942
 2565TIP3    H229111   2.265   6.394  16.188  0.7357 -2.6647  0.8768
 2566TIP3   OH229112   5.798   6.439  15.316 -0.0862  0.0362 -0.0321
 2566TIP3    H129113   5.751   6.366  15.355 -0.3659  0.6299  0.7610
 2566TIP3    H229114   5.884   6.403  15.295  0.9155  0.2394  3.2194
 2567TIP3   OH229115   5.258   0.836  12.429 -0.0395  1.1552 -0.3669
 2567TIP3    H129116   5.196   0.900  12.394 -0.8714 -0.1448 -1.3786
 2567TIP3    H229117   5.203   0.772  12.474  0.5858  0.2368 -0.8653
 2568TIP3   OH229118   2.023   6.187   3.640 -0.1749 -0.3815 -0.2038
 2568TIP3    H129119   1.982   6.192   3.553 -0.8110  3.3981  0.1516
 2568TIP3    H229120   1.950   6.193   3.702  0.4837  2.1299  0.4536
 2569TIP3   OH229121   5.018   3.267  16.495  0.1043 -0.5881 -0.3388
 2569TIP3    H129122   5.082   3.290  16.562 -0.2339 -1.7444  0.4311
 2569TIP3    H229123   4.971   3.349  16.477  0.1308 -0.2629  0.9422
 2570TIP3   OH229124   4.731   2.470   2.229 -0.2301  0.2560  0.2151
 2570TIP3    H129125   4.668   2.409   2.266 -1.7414  0.4154 -1.9134
 2570TIP3    H229126   4.757   2.431   2.145  1.4713  0.8667  0.4139
 2571TIP3   OH229127   2.921   5.937   5.668  0.0180 -0.4841 -0.2086
 2571TIP3    H129128   2.917   5.848   5.704 -0.9301 -0.8141 -1.0910
 2571TIP3    H229129   2.988   5.980   5.720 -0.3550 -1.3540  1.0534
 2572TIP3   OH229130   4.920   5.005   0.033  0.5951 -0.0865  0.1987
 2572TIP3    H129131   4.937   5.062  -0.041 -3.3386  0.1972 -0.7226
 2572TIP3    H229132   4.930   4.916  -0.001  2.3042  0.0080  0.3921
 2573TIP3   OH229133   1.716   1.288   2.315  0.5973  0.1874 -0.0378
 2573TIP3    H129134   1.737   1.251   2.401  0.2442 -0.8817 -0.3946
 2573TIP3    H229135   1.784   1.253   2.257  1.4671  1.7587 -0.0150
 2574TIP3   OH229136   2.133   4.448  12.645  0.1902 -0.3505  0.8786
 2574TIP3    H129137   2.163   4.369  12.600 -0.5451  0.1525 -0.5470
 2574TIP3    H229138   2.141   4.517  12.579 -0.5899  0.4810  1.6392
 2575TIP3   OH229139   0.899   5.273  15.452  0.0852 -0.0726  0.0110
 2575TIP3    H129140   0.923   5.267  15.360  0.8432 -0.3496  0.2195
 2575TIP3    H229141   0.811   5.236  15.457  0.2700 -0.5919 -0.5166
 2576TIP3   OH229142   5.797   4.697  12.676 -0.3398 -0.2090 -0.0106
 2576TIP3    H129143   5.866   4.705  12.742 -0.9387 -0.5197  0.6795
 2576TIP3    H229144   5.782   4.787  12.646  1.3441 -0.3018 -1.2347
 2577TIP3   OH229145   1.660   4.054  14.318  0.4116  0.3722 -0.4124
 2577TIP3    H129146   1.689   4.145  14.305  0.7076  0.2042 -0.9183
 2577TIP3    H229147   1.730   4.000  14.283  0.5639 -0.0747  0.5535
 2578TIP3   OH229148   2.167   2.154  11.819  0.2725 -0.0091  0.0754
 2578TIP3    H129149   2.074   2.177  11.819 -0.0357 -0.9575  2.5237
 2578TIP3    H229150   2.177   2.096  11.743 -0.8316  1.0926 -0.9534
 2579TIP3   OH229151   6.771   4.706   4.717 -0.5448  0.1919  0.1141
 2579TIP3    H129152   6.725   4.755   4.649  0.8719 -0.6222 -1.4928
 2579TIP3    H229153   6.710   4.635   4.740 -0.2885 -0.6998 -1.7676
 2580TIP3   OH229154   6.764   6.451  12.966  0.5667 -0.6540 -0.1619
 2580TIP3    H129155   6.744   6.440  12.873 -0.8419  0.0212  0.0268
 2580TIP3    H229156   6.860   6.447  12.971  0.8130  1.2815 -1.9403
 2581TIP3   OH229157   2.789   1.079   0.261  0.6899  0.1656  0.1476
 2581TIP3    H129158   2.875   1.081   0.219  1.1257  2.5516  0.9705
 2581TIP3    H229159   2.726   1.077   0.189  1.3610 -2.4790 -0.4667
 2582TIP3   OH229160   6.715   4.988  15.443 -0.0696 -0.1863 -0.0952
 2582TIP3    H129161   6.622   5.003  15.430  0.0501 -0.5996 -1.7547
 2582TIP3    H229162   6.756   5.021  15.363  1.0918 -0.9005  0.1707
 2583TIP3   OH229163   1.517   6.736  15.098  0.2946 -0.3864  0.5985
 2583TIP3    H129164   1.489   6.732  15.006  0.6509 -1.7786  0.5173
 2583TIP3    H229165   1.608   6.706  15.097  0.2748 -0.5063  1.4043
 2584TIP3   OH229166   0.690   3.932  11.978  1.0347  0.5391  0.3650
 2584TIP3    H129167   0.715   3.900  12.065  2.2529 -1.4438 -0.6133
 2584TIP3    H229168   0.595   3.919  11.974  1.1419 -0.5955  0.9673
 2585TIP3   OH229169   3.237   1.936   3.271  0.5596  0.0088  0.0213
 2585TIP3    H129170   3.261   1.965   3.359  1.4761  0.1785 -0.2742
 2585TIP3    H229171   3.144   1.956   3.263  0.4697 -0.0143  0.9524
 2586TIP3   OH229172   2.439   1.965   2.451  0.1265 -0.0395 -0.6388
 2586TIP3    H129173   2.515   1.925   2.492  0.5592  0.2186 -1.1816
 2586TIP3    H229174   2.364   1.933   2.502  0.7178  1.0165  0.9430
 2587TIP3   OH229175   5.376   5.206   1.632 -0.2260  0.2702  0.3332
 2587TIP3    H129176   5.435   5.273   1.667 -0.5338 -0.0344  1.4907
 2587TIP3    H229177   5.432   5.128   1.623  0.2637  0.7836 -1.5261
 2588TIP3   OH229178   2.544   2.359  15.095  0.4294  0.0701  0.3003
 2588TIP3    H129179   2.538   2.338  15.002  1.0996  0.0147  0.2672
 2588TIP3    H229180   2.578   2.449  15.098 -0.2259  0.3248  0.4866
 2589TIP3   OH229181   5.873   3.691   2.144 -0.1652  0.1391 -0.2789
 2589TIP3    H129182   5.948   3.637   2.120  1.4003  2.1634 -0.2195
 2589TIP3    H229183   5.854   3.667   2.234  0.5383 -0.3031 -0.2404
 2590TIP3   OH229184   6.272   4.948  11.669 -0.1759  0.3887  0.0960
 2590TIP3    H129185   6.332   5.015  11.701 -1.8041  2.6159 -1.1129
 2590TIP3    H229186   6.252   4.894  11.745  1.8719  0.7439  0.9276
 2591TIP3   OH229187   0.450   5.868   6.500  0.1806  0.2052 -0.1710
 2591TIP3    H129188   0.370   5.900   6.457  1.4566  1.4283 -1.7556
 2591TIP3    H229189   0.519   5.924   6.466  1.4310  0.7756  2.9847
 2592TIP3   OH229190   2.308   4.229   3.773 -0.2506 -0.1385  0.4052
 2592TIP3    H129191   2.254   4.281   3.832  0.9598  0.6887  0.8231
 2592TIP3    H229192   2.397   4.256   3.792  0.3006 -1.2332 -0.4962
 2593TIP3   OH229193   3.063   0.014  14.629 -0.5887 -0.1766  0.1144
 2593TIP3    H129194   3.095   0.085  14.684  2.1510 -1.7674  0.7280
 2593TIP3    H229195   3.012  -0.041  14.688 -0.5039 -0.1028  0.2567
 2594TIP3   OH229196   6.778   6.299  13.902  0.2440  0.0304  0.6401
 2594TIP3    H129197   6.832   6.334  13.831  1.2860 -1.7565  0.5010
 2594TIP3    H229198   6.840   6.253  13.958 -1.1001 -2.0988  0.4868
 2595TIP3   OH229199   2.648   2.534   1.558 -0.0126 -0.2974 -0.3021
 2595TIP3    H129200   2.689   2.588   1.489 -0.1133 -1.7516 -1.5513
 2595TIP3    H229201   2.600   2.466   1.510 -3.3331  0.8461  1.0932
 2596TIP3   OH229202   1.024   3.758   2.149 -0.4897  0.1979  0.3116
 2596TIP3    H129203   1.080   3.833   2.129 -0.0680 -0.4797 -1.2051
 2596TIP3    H229204   1.084   3.683   2.149 -1.1985 -0.3745 -0.0741
 2597TIP3   OH229205   2.668   3.998  15.524 -0.3693  0.0487  0.2319
 2597TIP3    H129206   2.594   4.016  15.583 -0.8189 -0.2645 -0.2326
 2597TIP3    H229207   2.722   4.077  15.529  0.4023 -0.5434  2.2332
 2598TIP3   OH229208   1.710   4.944   0.085  0.2520  0.0505 -0.0280
 2598TIP3    H129209   1.763   4.892   0.024 -0.7950 -0.3096 -0.6715
 2598TIP3    H229210   1.649   4.881   0.123 -1.7880  0.9287 -1.6429
 2599TIP3   OH229211   1.756   3.319   3.715 -0.0029  0.1547 -0.1718
 2599TIP3    H129212   1.713   3.400   3.743  0.7120  0.3517  0.3670
 2599TIP3    H229213   1.807   3.291   3.791  0.3441 -0.4038 -0.6042
 2600TIP3   OH229214   3.085   4.132  14.448  0.1273  0.5486  0.5715
 2600TIP3    H129215   3.006   4.140  14.501 -0.6737 -1.2200 -0.2927
 2600TIP3    H229216   3.066   4.181  14.368  0.2914  0.9199  0.7548
 2601TIP3   OH229217   1.450   4.551   2.162  0.2704 -0.0272 -0.3379
 2601TIP3    H129218   1.403   4.472   2.189 -0.3830  0.3110 -0.4566
 2601TIP3    H229219   1.470   4.597   2.243 -0.4670  0.3009 -0.3315
 2602TIP3   OH229220   5.021   5.916   1.278 -0.7602 -0.2745  0.2258
 2602TIP3    H129221   4.994   5.843   1.222  0.1041  0.2437 -0.8878
 2602TIP3    H229222   5.115   5.926   1.261 -0.5372  0.0972  1.5425
 2603TIP3   OH229223   6.138   0.269   1.339 -0.0484  0.0934 -0.3836
 2603TIP3    H129224   6.197   0.194   1.341  2.9120  2.2599  0.4442
 2603TIP3    H229225   6.123   0.291   1.431 -2.8164 -0.7823 -0.5419
 2604TIP3   OH229226   4.655   6.607  11.187  0.3946 -0.0361  0.1332
 2604TIP3    H129227   4.601   6.650  11.121  0.0322  0.5071  0.7657
 2604TIP3    H229228   4.647   6.514  11.167 -0.9397  0.0141  0.3063
 2605TIP3   OH229229   3.121   0.113   4.115  0.0978 -0.0010  0.2367
 2605TIP3    H129230   3.185   0.046   4.089  0.6001  0.9845 -1.2006
 2605TIP3    H229231   3.173   0.190   4.135 -0.6083  0.8114 -0.9239
 2606TIP3   OH229232   5.335   1.508   5.889  0.4462 -0.2473 -0.4700
 2606TIP3    H129233   5.336   1.459   5.971  0.7557 -2.5559 -1.7401
 2606TIP3    H229234   5.242   1.523   5.872  0.1789 -2.0959 -0.9156
 2607TIP3   OH229235   0.046   5.497  14.866 -0.5964 -0.1794 -0.2311
 2607TIP3    H129236   0.103   5.563  14.905 -0.3858 -2.4791  4.0928
 2607TIP3    H229237  -0.036   5.543  14.847  0.1293  1.6931  0.9171
 2608TIP3   OH229238   4.503   0.656  17.232 -0.1119  0.3130  0.5377
 2608TIP3    H129239   4.569   0.708  17.279  0.7328  0.8562 -1.1520
 2608TIP3    H229240   4.453   0.721  17.182  0.2968 -0.3722 -0.8188
 2609TIP3   OH229241   3.051   6.078  12.130  0.4183  0.2764 -0.3867
 2609TIP3    H129242   3.057   5.984  12.113  1.2280  0.3200 -0.3811
 2609TIP3    H229243   2.969   6.088  12.178  0.2688 -0.4124 -0.4833
 2610TIP3   OH229244   5.515   1.789  13.209  0.2812  0.4436 -1.2467
 2610TIP3    H129245   5.562   1.837  13.141 -0.3884  0.2328 -1.8785
 2610TIP3    H229246   5.545   1.699  13.201  0.9991  0.6070 -0.5386
 2611TIP3   OH229247   6.248   3.341   1.260  0.1417 -0.0734  0.5115
 2611TIP3    H129248   6.201   3.287   1.323  0.5997 -0.4921  0.4953
 2611TIP3    H229249   6.328   3.292   1.240  0.0605  0.1054 -0.3063
 2612TIP3   OH229250   6.773   5.108   4.855  0.4566  0.0430  0.6397
 2612TIP3    H129251   6.770   5.203   4.866 -1.7235 -0.0174  1.0237
 2612TIP3    H229252   6.829   5.095   4.778  0.3530  1.6701  0.2471
 2613TIP3   OH229253   3.180   0.292   4.531  0.0997  0.3112  0.0654
 2613TIP3    H129254   3.132   0.213   4.559 -0.1115 -0.2186 -1.6834
 2613TIP3    H229255   3.119   0.364   4.548  0.2627  0.1104  1.6127
 2614TIP3   OH229256   4.290   4.341   5.177 -0.4686  0.0823  0.0490
 2614TIP3    H129257   4.239   4.377   5.250 -0.7882  0.7945 -0.5165
 2614TIP3    H229258   4.332   4.417   5.137  2.3835 -0.6280  1.4615
 2615TIP3   OH229259   5.975   2.650  12.018 -0.4047 -0.2849 -0.1211
 2615TIP3    H129260   5.938   2.613  12.098  0.5518  0.3470  0.6328
 2615TIP3    H229261   6.060   2.606  12.008 -1.2864 -1.7362 -1.8409
 2616TIP3   OH229262   5.442   6.222  12.290  0.0059 -0.3593 -0.4883
 2616TIP3    H129263   5.350   6.245  12.302 -0.1657 -1.2391 -0.0735
 2616TIP3    H229264   5.463   6.165  12.364  0.8157 -0.3609 -0.7108
 2617TIP3   OH229265   5.964   5.915   6.239  0.1728  0.4422 -0.4853
 2617TIP3    H129266   5.918   5.999   6.245  0.3763  0.4974  0.3505
 2617TIP3    H229267   5.896   5.849   6.255  0.3136  0.5116  0.4384
 2618TIP3   OH229268   5.958   3.487   4.768  0.1475 -0.3797  0.5389
 2618TIP3    H129269   5.988   3.426   4.835  1.3048 -0.0640  0.3275
 2618TIP3    H229270   5.972   3.441   4.685  0.5329 -0.0247  0.4067
 2619TIP3   OH229271   5.080   3.654  11.490 -0.4425  0.3313  0.1877
 2619TIP3    H129272   5.102   3.689  11.576  0.9546 -0.1574  0.0610
 2619TIP3    H229273   5.128   3.571  11.485 -0.6292  0.2748 -0.9978
 2620TIP3   OH229274   5.874   4.816   1.590 -0.2658 -0.3247  0.0072
 2620TIP3    H129275   5.942   4.766   1.635 -0.1628  0.7850  1.1251
 2620TIP3    H229276   5.791   4.777   1.620 -0.1756 -0.1916  0.4295
 2621TIP3   OH229277   3.887   2.273  11.422 -0.0010  0.0830 -0.0521
 2621TIP3    H129278   3.817   2.312  11.473  0.8124 -1.1226  2.0942
 2621TIP3    H229279   3.933   2.347  11.383 -2.1224  0.9130 -1.1171
 2622TIP3   OH229280   4.067   3.751  16.285  0.5192 -0.4717 -0.1387
 2622TIP3    H129281   3.981   3.794  16.292  1.7413  1.8489  2.7477
 2622TIP3    H229282   4.058   3.672  16.338  0.6361  0.7848  1.8560
 2623TIP3   OH229283   0.426   5.815  16.771  0.1228 -0.0301 -0.1588
 2623TIP3    H129284   0.445   5.740  16.829  0.9433 -0.2216 -0.6590
 2623TIP3    H229285   0.512   5.845  16.743 -0.0303  2.4918  1.7292
 2624TIP3   OH229286   2.948   1.875  12.334  0.0839  0.2981 -1.2215
 2624TIP3    H129287   2.949   1.943  12.266 -1.8366 -0.3480 -1.9800
 2624TIP3    H229288   2.857   1.844  12.335  0.5278 -1.0946  0.2837
 2625TIP3   OH229289   5.676   6.115  16.366 -0.0394 -0.4489 -0.1824
 2625TIP3    H129290   5.751   6.102  16.425 -0.9102 -2.3880  0.5870
 2625TIP3    H229291   5.600   6.108  16.423 -0.8599 -0.0280 -1.1995
 2626TIP3   OH229292   4.654   1.762   0.371 -0.2357 -0.0610  0.2125
 2626TIP3    H129293   4.704   1.683   0.349 -1.1778 -0.1847 -1.6509
 2626TIP3    H229294   4.623   1.795   0.287 -2.7805  0.3429  1.2242
 2627TIP3   OH229295   4.737   6.697  14.262  0.2756  0.3959 -0.0646
 2627TIP3    H129296   4.650   6.677  14.228 -0.0277 -0.2694  1.0387
 2627TIP3    H229297   4.724   6.707  14.356  0.8626  3.4063 -0.2123
 2628TIP3   OH229298   2.207   5.172  13.913 -0.2692 -0.5128 -0.2271
 2628TIP3    H129299   2.186   5.243  13.852  0.7310  0.4209  0.4788
 2628TIP3    H229300   2.287   5.200  13.956  0.2296 -2.1355 -0.0041
 2629TIP3   OH229301   4.329   3.027  12.858 -0.1875  0.0540 -0.2622
 2629TIP3    H129302   4.361   2.993  12.774  0.1325 -0.9792  0.2595
 2629TIP3    H229303   4.275   3.103  12.835  0.2415  0.0335 -1.3667
 2630TIP3   OH229304   3.825   4.452  14.378  0.0515 -0.2225  0.0898
 2630TIP3    H129305   3.774   4.463  14.298  0.3840  0.0713 -0.0820
 2630TIP3    H229306   3.908   4.413  14.348  0.1255 -0.2325  0.3083
 2631TIP3   OH229307   1.455   2.162  12.421  0.0775 -0.3151 -0.2780
 2631TIP3    H129308   1.417   2.118  12.344  0.8351 -2.9875  0.7624
 2631TIP3    H229309   1.412   2.121  12.495 -1.3407  2.8706  0.8623
 2632TIP3   OH229310   6.129   6.070   3.225 -0.5182  0.7742  0.2254
 2632TIP3    H129311   6.129   6.092   3.132 -3.1507 -0.6331 -0.2230
 2632TIP3    H229312   6.075   6.138   3.266 -0.8732  0.4071  0.3827
 2633TIP3   OH229313   6.411   5.443   3.708 -0.3081 -0.3193  0.1321
 2633TIP3    H129314   6.371   5.480   3.787 -2.1286  1.2093 -1.3980
 2633TIP3    H229315   6.369   5.490   3.636  2.0367 -0.9141 -1.7379
 2634TIP3   OH229316   6.300   3.932  11.813  0.2711 -0.1331  0.0120
 2634TIP3    H129317   6.367   3.991  11.848 -0.1130  0.7792 -0.7202
 2634TIP3    H229318   6.269   3.883  11.889 -0.0856  1.3134  0.8488
 2635TIP3   OH229319   3.292   4.534   5.134 -0.1758  0.2680 -0.2618
 2635TIP3    H129320   3.285   4.452   5.182 -1.0277  1.0638  1.0619
 2635TIP3    H229321   3.376   4.571   5.161  0.2087 -0.1681 -0.8613
 2636TIP3   OH229322   5.819   1.400   6.454 -0.0460 -0.3278  0.2716
 2636TIP3    H129323   5.742   1.362   6.412  0.2925 -2.2237  1.2252
 2636TIP3    H229324   5.808   1.494   6.444 -1.6627 -0.6046 -1.0215
 2637TIP3   OH229325   6.510   3.693   3.658  0.1886 -0.0179 -0.0204
 2637TIP3    H129326   6.593   3.726   3.692  1.7405 -2.9346 -0.6236
 2637TIP3    H229327   6.469   3.650   3.733 -0.2727  0.4431 -0.0003
 2638TIP3   OH229328   5.958   5.415   4.480 -0.1596 -0.5910 -0.0612
 2638TIP3    H129329   6.042   5.393   4.439 -0.4869 -0.8234 -0.6201
 2638TIP3    H229330   5.896   5.416   4.407 -0.3127  1.4865  0.0410
 2639TIP3   OH229331   6.487   1.374  14.781 -0.3459 -0.5527  0.4111
 2639TIP3    H129332   6.403   1.365  14.737 -0.0131 -0.3457 -0.2878
 2639TIP3    H229333   6.551   1.340  14.718  0.1379 -0.3305  0.7703
 2640TIP3   OH229334   6.175   3.209   4.364 -0.2053 -0.3431 -0.3682
 2640TIP3    H129335   6.133   3.123   4.375  1.1420 -0.8620  1.2348
 2640TIP3    H229336   6.232   3.198   4.288  1.2003 -1.4621  0.7806
 2641TIP3   OH229337   2.362   5.488   4.082 -0.1128 -0.4975 -0.4985
 2641TIP3    H129338   2.269   5.506   4.064 -0.5439 -1.2121  0.8792
 2641TIP3    H229339   2.399   5.574   4.103 -0.1354 -0.0080 -2.3325
 2642TIP3   OH229340   0.794   6.463   0.588 -0.1119 -0.6945 -0.0459
 2642TIP3    H129341   0.816   6.395   0.651 -1.8180  1.2963  2.9775
 2642TIP3    H229342   0.827   6.544   0.627 -0.3703  0.5661 -2.2429
 2643TIP3   OH229343   3.227   6.153   0.901  0.1939 -0.2055 -0.1729
 2643TIP3    H129344   3.287   6.101   0.954 -0.1592 -1.6952 -1.1600
 2643TIP3    H229345   3.282   6.221   0.863  0.2389  1.7086  2.9705
 2644TIP3   OH229346   4.454   1.522  10.850  0.1346  0.2637  0.4269
 2644TIP3    H129347   4.493   1.559  10.770 -0.7227  0.4985  0.1016
 2644TIP3    H229348   4.423   1.436  10.823 -0.0936  0.3156  0.5195
 2645TIP3   OH229349   3.484   1.054   2.707 -0.0557  0.2821 -0.6312
 2645TIP3    H129350   3.500   1.045   2.801 -3.0645 -1.3729 -0.1109
 2645TIP3    H229351   3.571   1.053   2.668  1.2651 -1.9266  1.9596
 2646TIP3   OH229352   6.085   6.683  12.491 -0.2211  0.0282  0.4872
 2646TIP3    H129353   6.039   6.599  12.483  1.4663 -1.0285  1.4397
 2646TIP3    H229354   6.147   6.684  12.419 -0.7713  0.8404  0.0094
 2647TIP3   OH229355   2.842   4.199   5.989  0.3635 -0.2677  0.1357
 2647TIP3    H129356   2.841   4.212   5.894 -1.4168  2.1908  0.4086
 2647TIP3    H229357   2.786   4.268   6.023  1.7494 -0.4752  3.0848
 2648TIP3   OH229358   1.171   2.593   5.789  0.4352  0.2098  0.5037
 2648TIP3    H129359   1.258   2.563   5.763 -0.0793 -0.2462 -0.8048
 2648TIP3    H229360   1.176   2.605   5.884  1.6857 -0.5989  0.5562
 2649TIP3   OH229361   1.696   2.605  15.680 -0.0842 -0.5167 -0.0710
 2649TIP3    H129362   1.604   2.602  15.655 -0.0235  2.0306 -0.9020
 2649TIP3    H229363   1.697   2.649  15.765  0.3796 -0.2352 -0.2175
 2650TIP3   OH229364   0.077   0.510  11.879 -0.1774 -0.2306 -0.5751
 2650TIP3    H129365   0.114   0.556  11.804  2.7161 -2.3214 -0.6067
 2650TIP3    H229366   0.060   0.421  11.847  0.8839 -1.1082  1.1304
 2651TIP3   OH229367   6.573   5.710  13.421 -0.2705  0.0721  0.3081
 2651TIP3    H129368   6.519   5.764  13.364  0.4743  0.3699 -0.1246
 2651TIP3    H229369   6.661   5.714  13.383 -0.1389 -1.2097  0.4313
 2652TIP3   OH229370   0.790   6.690  15.162  0.0932  0.0812 -0.1043
 2652TIP3    H129371   0.724   6.675  15.095 -0.6228 -0.6619  0.7423
 2652TIP3    H229372   0.860   6.737  15.116 -0.9634  0.8115 -1.0349
 2653TIP3   OH229373   6.520   6.345  13.088 -0.5388 -0.0730  0.7849
 2653TIP3    H129374   6.596   6.400  13.071 -1.5032  0.4827 -2.4410
 2653TIP3    H229375   6.526   6.276  13.021 -2.5596 -0.2942  0.7833
 2654TIP3   OH229376   3.207   0.620   2.993 -0.3267  0.0887 -0.0229
 2654TIP3    H129377   3.260   0.633   2.914 -1.4865  1.5284 -0.6333
 2654TIP3    H229378   3.268   0.591   3.060  1.0760  0.9573 -0.8917
 2655TIP3   OH229379   1.420   5.331  11.938  0.0422  0.1517 -0.4739
 2655TIP3    H129380   1.413   5.418  11.977 -1.2493  0.5228 -1.4272
 2655TIP3    H229381   1.456   5.276  12.007 -1.1748  0.9927  0.9032
 2656TIP3   OH229382   3.261   3.590   1.364  0.3455  0.2051  0.0070
 2656TIP3    H129383   3.200   3.593   1.290  1.3851 -0.8514 -0.9330
 2656TIP3    H229384   3.205   3.594   1.441 -0.7592  1.6776 -0.8043
 2657TIP3   OH229385   0.055   4.613  10.998  0.4390 -0.1044  0.2500
 2657TIP3    H129386   0.010   4.612  10.913  0.8389  0.3184  0.0265
 2657TIP3    H229387  -0.015   4.627  11.062  0.1089 -0.6375  0.0094
 2658TIP3   OH229388   3.394   2.692   3.133  0.0067 -0.1294  0.2651
 2658TIP3    H129389   3.338   2.615   3.145 -1.0403  0.3863 -1.0556
 2658TIP3    H229390   3.460   2.685   3.203  0.4759 -2.6794 -0.3196
 2659TIP3   OH229391   4.279   4.260   2.648  0.8331  0.0433 -0.6736
 2659TIP3    H129392   4.371   4.264   2.622  1.2998 -1.3393  0.6313
 2659TIP3    H229393   4.276   4.304   2.733  0.3071  0.0534 -0.6952
 2660TIP3   OH229394   2.179   1.886  14.775 -0.2148  0.5756  0.1571
 2660TIP3    H129395   2.115   1.904  14.707 -1.4498  1.2137  1.4366
 2660TIP3    H229396   2.137   1.820  14.831  0.6980  0.1959  0.4263
 2661TIP3   OH229397   0.917   1.781  13.525  0.3873  0.5110  0.1523
 2661TIP3    H129398   0.867   1.840  13.581  0.8064 -1.5165  2.9450
 2661TIP3    H229399   0.852   1.723  13.485  0.1539  1.3548 -0.7176
 2662TIP3   OH229400   4.947   0.630  11.959 -0.3578  0.2175  0.0319
 2662TIP3    H129401   4.921   0.597  11.873 -2.2298 -0.3379  0.7651
 2662TIP3    H229402   4.978   0.553  12.006 -0.1155  0.3761  0.1328
 2663TIP3   OH229403   0.227   5.199  16.201 -0.1997 -0.8837 -0.4151
 2663TIP3    H129404   0.235   5.199  16.105  0.0156  0.0120 -0.4057
 2663TIP3    H229405   0.144   5.244  16.217 -0.4823 -1.4805 -0.1946
 2664TIP3   OH229406   6.748   4.471   3.739  0.0686  0.0640  0.3374
 2664TIP3    H129407   6.765   4.390   3.691  1.7360  0.8243 -0.4490
 2664TIP3    H229408   6.702   4.527   3.676 -1.1906 -0.2721  0.9181
 2665TIP3   OH229409   3.273   6.343   0.148  0.0978  0.5332  0.4924
 2665TIP3    H129410   3.210   6.396   0.196 -0.0475  0.8870 -0.0808
 2665TIP3    H229411   3.219   6.283   0.097  0.2062  1.0698 -0.2679
 2666TIP3   OH229412   6.634   6.784  17.071  0.3998  0.2954 -0.5271
 2666TIP3    H129413   6.694   6.816  17.004  1.5367  0.2303  0.4270
 2666TIP3    H229414   6.547   6.798  17.034  0.9727 -1.7562 -2.9814
 2667TIP3   OH229415   0.461   4.953   4.476  0.6390 -0.1780  0.1456
 2667TIP3    H129416   0.446   5.023   4.539 -2.9069  2.6393 -3.2502
 2667TIP3    H229417   0.518   4.992   4.410  1.8718 -1.9863  0.0732
 2668TIP3   OH229418   0.140   1.884  16.867 -0.3721 -0.0238  0.6015
 2668TIP3    H129419   0.202   1.946  16.904  1.3056 -1.6684  0.6605
 2668TIP3    H229420   0.099   1.931  16.794  2.5522  0.4130 -0.8793
 2669TIP3   OH229421   6.494   5.584  14.080  0.5888  0.3327  0.1837
 2669TIP3    H129422   6.528   5.589  13.991  2.6917  0.9304  0.9761
 2669TIP3    H229423   6.431   5.656  14.086  0.1403  0.0541 -0.8893
 2670TIP3   OH229424   5.493   0.259  17.230  0.3030 -0.1233 -0.1963
 2670TIP3    H129425   5.400   0.237  17.239 -0.0218  0.5509 -1.6559
 2670TIP3    H229426   5.524   0.270  17.320 -1.2473  0.5524  0.2786
 2671TIP3   OH229427   0.145   0.677   5.309 -0.2205 -0.8313 -0.7978
 2671TIP3    H129428   0.153   0.698   5.216  3.0875 -1.7738 -0.8520
 2671TIP3    H229429   0.235   0.673   5.340 -1.1905 -1.7026  2.2192
 2672TIP3   OH229430   0.948   0.954  11.334  0.2836 -0.4537  0.4912
 2672TIP3    H129431   0.884   1.009  11.379  0.0908 -1.1486  1.0712
 2672TIP3    H229432   0.918   0.952  11.243  0.7692  1.0950  0.2693
 2673TIP3   OH229433   4.118   4.379  13.315  0.1191  0.0677 -0.8716
 2673TIP3    H129434   4.105   4.474  13.308  1.0433  0.0928 -3.1284
 2673TIP3    H229435   4.136   4.364  13.408  2.1236  2.4277 -0.7654
 2674TIP3   OH229436   5.167   1.379  16.530 -0.1177 -0.2916  0.1118
 2674TIP3    H129437   5.243   1.332  16.566  0.7061 -0.3463 -1.5891
 2674TIP3    H229438   5.177   1.469  16.561  1.8406  0.2030 -1.7331
 2675TIP3   OH229439   4.487   1.018   4.555  0.4410 -0.1650 -0.1306
 2675TIP3    H129440   4.566   1.019   4.503  1.0273 -0.1778  0.7398
 2675TIP3    H229441   4.467   1.110   4.571  0.2105 -0.1590 -0.4522
 2676TIP3   OH229442   0.693   3.744   5.608 -0.2368 -0.5195  0.4958
 2676TIP3    H129443   0.660   3.778   5.525 -0.5321  0.1962  0.9018
 2676TIP3    H229444   0.632   3.673   5.630 -0.7568 -0.0479  0.5997
 2677TIP3   OH229445   0.486   4.065  13.589 -0.4578  0.2004  0.2190
 2677TIP3    H129446   0.572   4.052  13.629 -0.5232  0.8184  0.5643
 2677TIP3    H229447   0.432   4.099  13.659 -1.4762 -1.8399  0.4854
 2678TIP3   OH229448   4.667   6.137  11.388  0.1997 -0.4343  1.0934
 2678TIP3    H129449   4.678   6.219  11.341  3.6543 -1.4922 -0.2743
 2678TIP3    H229450   4.577   6.110  11.370 -0.0285  1.5099 -1.0314
 2679TIP3   OH229451   6.206   0.648  16.493  0.2717  0.0323  0.3863
 2679TIP3    H129452   6.140   0.679  16.556 -0.0525 -1.4768  0.8243
 2679TIP3    H229453   6.159   0.641  16.410  0.4118  0.9070  0.2194
 2680TIP3   OH229454   4.789   0.487  15.649  0.5269  0.1365  0.1450
 2680TIP3    H129455   4.838   0.541  15.587 -0.2583  2.6839  1.5983
 2680TIP3    H229456   4.832   0.501  15.733 -1.0104  0.2370  0.9588
 2681TIP3   OH229457   6.337   3.208   5.474  0.3815  0.3414  0.5129
 2681TIP3    H129458   6.309   3.176   5.388  2.6249 -0.4389  0.0077
 2681TIP3    H229459   6.425   3.172   5.486  0.8194  1.8495  2.3913
 2682TIP3   OH229460   1.161   4.153   1.531 -0.4645 -0.4782  0.6002
 2682TIP3    H129461   1.077   4.113   1.554 -2.1101  2.1691 -0.2958
 2682TIP3    H229462   1.175   4.128   1.439 -1.8159  1.3763 -0.1612
 2683TIP3   OH229463   0.246   5.461  16.932 -0.4931  0.3718 -0.6133
 2683TIP3    H129464   0.253   5.499  16.844  0.0613  1.6949 -0.0290
 2683TIP3    H229465   0.337   5.455  16.962 -0.6998  0.2860  0.0015
 2684TIP3   OH229466   2.512   0.960  11.794 -0.4850 -0.0932  0.0470
 2684TIP3    H129467   2.550   0.871  11.794  1.0321  0.5121 -0.7899
 2684TIP3    H229468   2.588   1.018  11.797 -1.4559  1.1989  0.5639
 2685TIP3   OH229469   0.154   3.275   1.174 -0.3895  0.6590  0.2743
 2685TIP3    H129470   0.177   3.231   1.092 -0.3553 -0.1350  0.7018
 2685TIP3    H229471   0.231   3.327   1.196 -0.6599  1.4513 -0.5582
 2686TIP3   OH229472   1.999   1.081   4.708 -0.3849  0.1780 -0.0659
 2686TIP3    H129473   1.944   1.032   4.770 -0.0004  0.7719  0.7605
 2686TIP3    H229474   1.956   1.166   4.701 -0.5020  0.0737 -0.7443
 2687TIP3   OH229475   0.038   2.688   5.521 -0.0372  0.0198  0.3436
 2687TIP3    H129476  -0.052   2.667   5.548 -0.7665  0.2270 -1.7219
 2687TIP3    H229477   0.061   2.619   5.459  1.1234  0.1393  0.6249
 2688TIP3   OH229478   0.648   6.667  12.582  0.0154 -0.1908  0.8004
 2688TIP3    H129479   0.698   6.744  12.611 -0.3408  0.8613 -1.1963
 2688TIP3    H229480   0.577   6.659  12.646 -1.0043  2.2902  0.1011
 2689TIP3   OH229481   3.087   5.752  17.111  0.0378 -0.4861  0.5036
 2689TIP3    H129482   3.093   5.720  17.201  1.7791  0.0186  0.6040
 2689TIP3    H229483   3.111   5.676  17.057  0.8083 -0.2962  0.5708
 2690TIP3   OH229484   0.724   0.156   3.694  0.2321  0.2986  0.1317
 2690TIP3    H129485   0.649   0.175   3.751 -0.0901 -0.5965  0.0303
 2690TIP3    H229486   0.797   0.205   3.732  0.1004 -0.5344  1.5321
 2691TIP3   OH229487   4.404   2.100   4.741 -0.4363  0.1486  0.6024
 2691TIP3    H129488   4.365   2.185   4.720 -1.8849  0.0402  2.5513
 2691TIP3    H229489   4.489   2.121   4.780  0.5601  0.5008 -1.6108
 2692TIP3   OH229490   1.523   0.689  12.266  0.3606  0.1750  0.2461
 2692TIP3    H129491   1.554   0.756  12.206 -0.1570 -0.7557 -1.1140
 2692TIP3    H229492   1.489   0.737  12.341 -0.0264  1.4302 -0.7058
 2693TIP3   OH229493   1.734   5.650  16.362 -0.0757 -0.6625  0.4587
 2693TIP3    H129494   1.676   5.585  16.402 -2.4483  0.7151 -0.5783
 2693TIP3    H229495   1.731   5.630  16.268 -2.4968  2.0039 -0.1857
 2694TIP3   OH229496   3.340   5.808  13.042 -0.0167  0.6088  0.3582
 2694TIP3    H129497   3.369   5.797  12.951  1.1715 -0.7256  0.8657
 2694TIP3    H229498   3.330   5.719  13.074  0.3688  1.0626  1.7889
 2695TIP3   OH229499   3.937   6.261  16.751  0.0216  0.0486 -0.0685
 2695TIP3    H129500   3.945   6.341  16.804  1.4506 -0.1221  0.0141
 2695TIP3    H229501   3.870   6.209  16.797  0.5028  0.3441  1.0096
 2696TIP3   OH229502   3.816   0.666   0.926 -0.2541  0.9098 -1.0948
 2696TIP3    H129503   3.856   0.586   0.962  0.7838  2.0642  0.4490
 2696TIP3    H229504   3.739   0.635   0.878  0.2547 -1.0286 -0.7432
 2697TIP3   OH229505   5.953   4.843  12.078 -0.1723  0.1421 -0.3845
 2697TIP3    H129506   6.039   4.881  12.098 -0.7729  1.5767 -0.3941
 2697TIP3    H229507   5.946   4.850  11.982 -0.5740  0.6740 -0.3200
 2698TIP3   OH229508   6.337   4.964   5.320 -0.0795 -0.9409  0.1812
 2698TIP3    H129509   6.270   4.973   5.253  1.9212 -2.0750 -2.1208
 2698TIP3    H229510   6.381   4.881   5.300  1.8369 -0.3985  1.7375
 2699TIP3   OH229511   3.437   4.500   4.273 -0.2115 -0.2157 -0.1407
 2699TIP3    H129512   3.359   4.455   4.240  0.0160 -0.5915 -0.1756
 2699TIP3    H229513   3.403   4.565   4.334 -0.4409 -2.3280  2.1395
 2700TIP3   OH229514   4.374   5.964   1.904 -0.2218 -0.4407  0.3371
 2700TIP3    H129515   4.438   5.905   1.864 -1.0808 -0.8308 -0.5013
 2700TIP3    H229516   4.426   6.042   1.928  1.1661 -1.9408  2.5897
 2701TIP3   OH229517   1.492   0.180  15.298  0.9587  0.0181  0.3208
 2701TIP3    H129518   1.518   0.159  15.387 -0.6502 -2.2863  0.3477
 2701TIP3    H229519   1.502   0.097  15.249  1.5880  1.1552 -1.6000
 2702TIP3   OH229520   1.936   3.713   5.452  0.1535 -0.3291  0.3438
 2702TIP3    H129521   2.008   3.739   5.395 -0.2468  0.1931  0.0695
 2702TIP3    H229522   1.858   3.719   5.396 -0.4235  1.4198  1.2626
 2703TIP3   OH229523   3.374   2.452   4.740  0.1086 -0.1159  0.3081
 2703TIP3    H129524   3.331   2.537   4.750 -0.6868 -0.1106 -2.3263
 2703TIP3    H229525   3.467   2.470   4.754  0.0222  1.3429 -0.7941
 2704TIP3   OH229526   5.557   1.464   5.730 -0.1217 -0.2915 -0.4566
 2704TIP3    H129527   5.615   1.411   5.786 -0.8269  0.2042  0.7851
 2704TIP3    H229528   5.486   1.491   5.788 -0.5090  0.8470 -1.4278
 2705TIP3   OH229529   5.042   0.690   5.791 -0.1051 -0.3826  0.0845
 2705TIP3    H129530   4.980   0.735   5.848 -0.3993  1.3453 -1.5201
 2705TIP3    H229531   5.126   0.695   5.838 -0.3415  0.9799  0.3907
 2706TIP3   OH229532   4.025   1.303   6.155  0.4486  0.4578 -0.1730
 2706TIP3    H129533   4.026   1.394   6.183 -2.3934 -0.1583  2.4349
 2706TIP3    H229534   3.932   1.280   6.150  1.0578 -2.2914 -0.8922
 2707TIP3   OH229535   2.490   6.023   5.523  0.2346  0.3378 -0.5463
 2707TIP3    H129536   2.407   5.979   5.503  1.2415 -2.3143  0.6086
 2707TIP3    H229537   2.485   6.040   5.617  1.0233  0.0236 -0.4443
 2708TIP3   OH229538   6.188   1.027  16.657 -0.4892  0.3345  0.1221
 2708TIP3    H129539   6.246   0.970  16.708  0.2207  0.8978 -0.0480
 2708TIP3    H229540   6.229   1.113  16.661 -1.0405  0.6295 -0.4414
 2709TIP3   OH229541   3.288   5.152  13.300  0.2001 -0.2546 -0.2536
 2709TIP3    H129542   3.294   5.247  13.312 -0.2558 -0.3445  0.8031
 2709TIP3    H229543   3.328   5.136  13.215  0.9559  0.8086 -0.1209
 2710TIP3   OH229544   0.135   5.594   0.704  0.2452 -0.2173 -0.8337
 2710TIP3    H129545   0.166   5.630   0.621 -1.0458 -0.6849 -1.5513
 2710TIP3    H229546   0.100   5.508   0.681 -2.2350  0.5507 -0.2600
 2711TIP3   OH229547   0.377   5.249   4.996  0.0617  0.2170  0.5572
 2711TIP3    H129548   0.367   5.164   5.040  1.0276 -0.5906 -0.6994
 2711TIP3    H229549   0.297   5.296   5.017 -0.1183 -0.6724  1.9967
 2712TIP3   OH229550   6.077   4.878   3.297 -0.2648  0.0837 -0.0030
 2712TIP3    H129551   6.097   4.909   3.385 -0.5127 -0.7778  0.3600
 2712TIP3    H229552   6.151   4.907   3.244  0.6708 -0.7988  0.8005
 2713TIP3   OH229553   3.419   0.471   0.827  0.3354  0.5478  0.0628
 2713TIP3    H129554   3.462   0.392   0.794  1.4311  0.4107  1.6978
 2713TIP3    H229555   3.372   0.442   0.905  2.3494  1.8044  1.8414
 2714TIP3   OH229556   3.820   5.066   3.430 -0.4370 -0.1857  0.5882
 2714TIP3    H129557   3.728   5.091   3.439  0.3054  3.4087 -0.2231
 2714TIP3    H229558   3.864   5.107   3.505  0.6537 -1.1155  0.4934
 2715TIP3   OH229559   6.052   3.408  14.483  0.3334  0.3602  0.4738
 2715TIP3    H129560   6.080   3.421  14.393 -1.6350  0.7908 -0.1286
 2715TIP3    H229561   6.032   3.314  14.489  0.3354  0.3572  0.4290
 2716TIP3   OH229562   5.704   0.209  14.117 -0.0767  0.4613  0.5442
 2716TIP3    H129563   5.727   0.269  14.047 -0.2211 -1.0122 -0.8166
 2716TIP3    H229564   5.609   0.199  14.109  0.1539 -1.2905 -0.4100
 2717TIP3   OH229565   1.300   4.486   5.715 -0.3156 -0.1336 -0.3635
 2717TIP3    H129566   1.224   4.521   5.761 -0.6062  1.2656 -1.8418
 2717TIP3    H229567   1.278   4.394   5.699 -1.7023  0.2537 -0.7666
 2718TIP3   OH229568   5.345   1.283  17.156  0.5664 -0.3529  0.1307
 2718TIP3    H129569   5.313   1.373  17.151 -0.9908 -0.9278 -1.0261
 2718TIP3    H229570   5.433   1.287  17.118  0.9170  0.8138  0.9819
 2719TIP3   OH229571   1.733   3.244  16.479  0.0737  0.3448 -0.5156
 2719TIP3    H129572   1.701   3.255  16.569  0.4402  0.1683 -0.3593
 2719TIP3    H229573   1.663   3.280  16.424 -0.3599  0.0223 -0.1820
 2720TIP3   OH229574   4.862   1.872  12.825 -0.0511 -0.2393 -0.1745
 2720TIP3    H129575   4.946   1.874  12.870 -0.7247  0.7198  1.1042
 2720TIP3    H229576   4.797   1.860  12.895 -0.8582 -5.6631 -1.3730
 2721TIP3   OH229577   5.119   1.948   0.408  0.2587  0.2899 -0.1892
 2721TIP3    H129578   5.157   2.033   0.389  0.8492  0.0395 -0.1632
 2721TIP3    H229579   5.060   1.963   0.482 -3.7457  1.7254 -3.3215
 2722TIP3   OH229580   1.395   5.236  14.760 -0.4392 -0.3636 -0.2057
 2722TIP3    H129581   1.409   5.195  14.675 -1.4155 -1.2142  0.0226
 2722TIP3    H229582   1.374   5.327  14.740  0.1900 -0.3430 -0.8108
 2723TIP3   OH229583   2.210   0.615   0.330  0.2866  0.2152  0.8588
 2723TIP3    H129584   2.231   0.641   0.240 -0.2911 -0.7552  0.4303
 2723TIP3    H229585   2.277   0.658   0.383  0.0866  1.5528  0.0673
 2724TIP3   OH229586   3.467   6.181  11.976  0.7273  1.0065 -0.1563
 2724TIP3    H129587   3.407   6.137  12.036  0.1769 -0.1255 -1.4883
 2724TIP3    H229588   3.554   6.148  12.001  0.6024  1.1493  0.5001
 2725TIP3   OH229589   5.254   0.356  13.538  0.2524 -0.2511  0.3513
 2725TIP3    H129590   5.268   0.426  13.602 -0.2976  1.2141 -1.0611
 2725TIP3    H229591   5.335   0.306  13.540  1.4372  1.5579  0.0715
 2726TIP3   OH229592   3.804   5.409  10.922  0.0505 -0.2477  0.5626
 2726TIP3    H129593   3.885   5.397  10.872 -0.5842 -1.7273 -0.1476
 2726TIP3    H229594   3.763   5.486  10.883  1.6806  1.3035  1.7555
 2727TIP3   OH229595   0.650   4.056  11.155  0.8154 -0.0472  0.1829
 2727TIP3    H129596   0.653   4.031  11.247  2.6221  1.0201  0.4648
 2727TIP3    H229597   0.706   3.992  11.110 -0.2911 -0.7429 -0.2568
 2728TIP3   OH229598   3.929   2.632  14.250 -0.0964  0.1034  0.1764
 2728TIP3    H129599   4.018   2.666  14.247 -0.3249  0.8923 -4.2030
 2728TIP3    H229600   3.938   2.538  14.236  0.0798 -0.0064  1.0058
 2729TIP3   OH229601   3.668   2.767  12.386  0.5138  0.0109 -0.4118
 2729TIP3    H129602   3.613   2.724  12.452 -0.4985  0.4507 -0.9478
 2729TIP3    H229603   3.745   2.796  12.435 -0.6992  1.2815  0.8590
 2730TIP3   OH229604   1.325   3.903  16.556 -0.2622 -0.1063 -0.3408
 2730TIP3    H129605   1.384   3.834  16.586 -2.1223 -1.8974 -0.6175
 2730TIP3    H229606   1.380   3.957  16.498  1.3694 -1.0389  0.2656
 2731TIP3   OH229607   4.331   0.019   0.075  0.4025 -0.0093  0.6059
 2731TIP3    H129608   4.245  -0.022   0.059  0.0178  0.8222  0.5279
 2731TIP3    H229609   4.312   0.092   0.134  0.9780  0.5506  0.1013
 2732TIP3   OH229610   1.772   1.489   6.294  0.2790  0.2468 -0.2021
 2732TIP3    H129611   1.690   1.452   6.329  0.9735 -2.2213 -0.9804
 2732TIP3    H229612   1.743   1.562   6.239 -1.2170  0.7736  1.2108
 2733TIP3   OH229613   5.789   6.213   3.396  0.1562  0.3249 -0.2920
 2733TIP3    H129614   5.752   6.301   3.405  1.2074  0.8469 -0.8653
 2733TIP3    H229615   5.730   6.157   3.445 -2.1836  0.8894 -2.3020
 2734TIP3   OH229616   6.226   1.181  14.905 -0.1113  0.1764  0.1801
 2734TIP3    H129617   6.269   1.255  14.862 -0.0814 -0.9656 -1.9111
 2734TIP3    H229618   6.283   1.159  14.978  0.1599  1.8532  0.5207
 2735TIP3   OH229619   2.420   6.451  10.676  0.0659  0.5113  0.4534
 2735TIP3    H129620   2.481   6.404  10.619 -1.3800 -0.4089 -0.3995
 2735TIP3    H229621   2.377   6.383  10.727  0.0966  1.1894  1.4131
 2736TIP3   OH229622   1.568   2.173  16.893 -0.1529  0.0418  0.6564
 2736TIP3    H129623   1.652   2.174  16.939 -0.2778 -1.5970  1.0009
 2736TIP3    H229624   1.588   2.141  16.805 -0.3156  0.3152  0.5186
 2737TIP3   OH229625   6.193   3.800   0.524 -0.0509 -0.3977 -0.1292
 2737TIP3    H129626   6.155   3.888   0.519  0.3544 -0.2751 -2.2992
 2737TIP3    H229627   6.262   3.807   0.590 -1.1823  0.4132  1.0108
 2738TIP3   OH229628   0.743   2.395  13.758  0.3242  0.2983 -0.2387
 2738TIP3    H129629   0.696   2.312  13.763  0.3656  0.2625 -0.4303
 2738TIP3    H229630   0.809   2.381  13.690  0.9324  0.1889  0.3601
 2739TIP3   OH229631   5.117   6.329   2.422  0.6207  0.1051 -0.1510
 2739TIP3    H129632   5.173   6.345   2.346  0.8867  0.5457  0.1391
 2739TIP3    H229633   5.055   6.402   2.422 -1.6490 -1.6581 -1.9706
 2740TIP3   OH229634   4.357   5.360   1.158 -0.3330  0.2680  0.1514
 2740TIP3    H129635   4.360   5.308   1.078  1.8798  0.0436  0.3199
 2740TIP3    H229636   4.366   5.451   1.128  3.8780  0.0629  0.1293
 2741TIP3   OH229637   0.190   6.655   2.068 -0.3728  0.2049  0.5493
 2741TIP3    H129638   0.185   6.722   2.000 -2.3841  0.3321  0.7689
 2741TIP3    H229639   0.124   6.591   2.043  1.0688 -1.4078  0.6943
 2742TIP3   OH229640   5.123   4.733   2.135 -0.3112  0.0459  0.0854
 2742TIP3    H129641   5.171   4.758   2.214  0.6570  0.9525 -0.7636
 2742TIP3    H229642   5.035   4.768   2.147 -0.6892 -1.3114  1.5030
 2743TIP3   OH229643   3.024   3.359   4.437 -0.2941  0.2071  0.1336
 2743TIP3    H129644   3.038   3.393   4.525 -1.7988  0.5293  0.2648
 2743TIP3    H229645   3.091   3.404   4.384  0.3552  0.3157  1.0135
 2744TIP3   OH229646   1.583   0.388  12.571  0.2759  0.0685 -0.2689
 2744TIP3    H129647   1.626   0.432  12.498  1.5660  0.0271  0.4498
 2744TIP3    H229648   1.576   0.456  12.639 -1.6049  0.3266 -0.6662
 2745TIP3   OH229649   0.330   5.110  16.890 -0.3061 -0.4479 -0.3608
 2745TIP3    H129650   0.247   5.152  16.868  0.3328  0.7593 -0.5144
 2745TIP3    H229651   0.326   5.099  16.985 -0.7000 -0.5381 -0.3851
 2746TIP3   OH229652   5.877   5.309   5.672  0.0029 -0.0055  0.3790
 2746TIP3    H129653   5.828   5.245   5.620  0.9869 -0.9414  0.5574
 2746TIP3    H229654   5.841   5.394   5.646 -0.0897 -0.4961 -1.2398
 2747TIP3   OH229655   2.647   4.191  13.871 -0.1424 -0.1047 -0.1168
 2747TIP3    H129656   2.628   4.250  13.944  0.5755  0.5518 -0.4490
 2747TIP3    H229657   2.669   4.250  13.798 -0.1387 -0.7684 -0.6630
 2748TIP3   OH229658   2.701   1.224  15.410 -0.4939 -0.4067 -0.1779
 2748TIP3    H129659   2.657   1.139  15.412  2.6604 -2.2000 -0.2198
 2748TIP3    H229660   2.709   1.244  15.317 -0.3681 -0.5732 -0.2044
 2749TIP3   OH229661   1.719   2.249   4.434 -0.0880 -0.3658 -0.5641
 2749TIP3    H129662   1.662   2.193   4.486 -0.2572 -0.4544 -0.8460
 2749TIP3    H229663   1.690   2.237   4.344  1.8061 -2.1595 -1.0141
 2750TIP3   OH229664   0.389   0.711  17.106 -0.4321 -0.7209 -0.2192
 2750TIP3    H129665   0.410   0.671  17.021  0.9833 -1.2057  0.3395
 2750TIP3    H229666   0.411   0.644  17.170 -0.6811 -0.0466  0.5797
 2751TIP3   OH229667   5.096   5.017   2.822 -0.1070  0.5646 -0.2393
 2751TIP3    H129668   5.059   5.084   2.880  0.6204  0.0737  0.8191
 2751TIP3    H229669   5.116   4.943   2.880  0.1507 -0.1476 -1.2076
 2752TIP3   OH229670   1.589   4.986  15.528  0.1250  0.7451 -0.3030
 2752TIP3    H129671   1.665   5.021  15.574  2.1716  0.5568 -3.3030
 2752TIP3    H229672   1.607   4.893  15.517 -1.9440  0.0590  1.3578
 2753TIP3   OH229673   3.742   1.605   4.803  0.3908  0.0644  0.6807
 2753TIP3    H129674   3.687   1.568   4.873 -0.2349 -0.6301 -0.1517
 2753TIP3    H229675   3.830   1.604   4.840  0.2959 -1.6283  0.9728
 2754TIP3   OH229676   4.047   2.332   3.321  0.0377  0.0738  0.0186
 2754TIP3    H129677   4.065   2.423   3.300  1.3012 -0.6978 -2.6902
 2754TIP3    H229678   4.014   2.294   3.239 -0.8266 -1.8225  1.1691
 2755TIP3   OH229679   2.305   6.266  10.853  0.0006  0.1431 -0.0315
 2755TIP3    H129680   2.352   6.186  10.879 -1.2767 -0.3775  0.8098
 2755TIP3    H229681   2.232   6.271  10.915 -0.3938  1.5410 -0.5812
 2756TIP3   OH229682   3.728   0.757   4.629 -0.2804 -0.0329 -0.1452
 2756TIP3    H129683   3.764   0.750   4.541 -1.5449  0.5726 -0.7284
 2756TIP3    H229684   3.742   0.670   4.668 -3.5340 -1.7812 -2.4482
 2757TIP3   OH229685   2.859   5.972   2.686  0.2638 -0.3296 -0.0600
 2757TIP3    H129686   2.842   5.878   2.688  1.8254 -0.6458 -0.6760
 2757TIP3    H229687   2.798   6.008   2.751  0.1793 -1.8547  0.7634
 2758TIP3   OH229688   1.739   1.094  14.464  0.2629 -0.6540  0.4303
 2758TIP3    H129689   1.818   1.086  14.411  0.7759  0.7531  0.9346
 2758TIP3    H229690   1.674   1.132  14.405 -0.1411 -2.0349 -0.0534
 2759TIP3   OH229691   2.393   4.820  12.073  0.3811  0.2290  0.2496
 2759TIP3    H129692   2.452   4.855  12.006  0.5575 -1.3593 -0.4679
 2759TIP3    H229693   2.361   4.738  12.035  0.2650 -0.5623  1.9934
 2760TIP3   OH229694   0.012   4.786  13.980 -0.1621  0.0897  0.3816
 2760TIP3    H129695   0.096   4.798  14.023  1.6962 -2.1573 -2.2908
 2760TIP3    H229696  -0.021   4.703  14.014 -0.0007 -0.3372 -0.4793
 2761TIP3   OH229697   5.916   1.253   4.575  0.3551  0.0880  0.2252
 2761TIP3    H129698   5.828   1.278   4.547  1.4778  0.1768 -3.8719
 2761TIP3    H229699   5.970   1.328   4.554  1.8944 -1.1947 -0.6484
 2762TIP3   OH229700   1.587   2.601  15.083  0.1240  0.1577  0.8160
 2762TIP3    H129701   1.582   2.633  15.173 -2.4376  2.5201 -0.0278
 2762TIP3    H229702   1.680   2.611  15.060  0.4301  1.7630  2.4731
 2763TIP3   OH229703   6.271   1.808   0.153 -0.0653 -0.9886 -0.5332
 2763TIP3    H129704   6.208   1.819   0.081  0.6928 -2.3747 -1.4623
 2763TIP3    H229705   6.222   1.832   0.231 -1.0869  0.0490 -1.4437
 2764TIP3   OH229706   2.138   1.605   4.045 -0.1375 -0.3727 -0.1157
 2764TIP3    H129707   2.233   1.617   4.049 -0.2267  1.2776 -1.6218
 2764TIP3    H229708   2.104   1.662   4.113 -0.0907  0.0128 -0.4105
 2765TIP3   OH229709   0.739   6.264  15.404 -0.5001  0.0287  0.1899
 2765TIP3    H129710   0.762   6.354  15.382 -0.1560  0.1837  1.1084
 2765TIP3    H229711   0.823   6.218  15.406 -0.5939 -0.1321  0.4622
 2766TIP3   OH229712   5.689   2.020   2.870  0.4436  0.2870  0.2854
 2766TIP3    H129713   5.761   1.970   2.831 -0.3617  0.6962 -1.8474
 2766TIP3    H229714   5.613   1.999   2.817 -1.0448 -0.0005  2.3954
 2767TIP3   OH229715   2.544   6.578  16.584  0.4595 -0.1860 -0.2444
 2767TIP3    H129716   2.559   6.671  16.567 -0.8008  0.3235  1.2045
 2767TIP3    H229717   2.627   6.548  16.623  0.6725  0.4648 -0.1859
 2768TIP3   OH229718   2.166   6.733   3.499  0.0420 -0.3679  0.0062
 2768TIP3    H129719   2.255   6.724   3.466  0.0632 -1.2486  0.2568
 2768TIP3    H229720   2.110   6.718   3.423  0.1087 -0.2075 -0.0733
 2769TIP3   OH229721   0.261   2.305   2.908 -0.2288 -0.2974  0.2078
 2769TIP3    H129722   0.199   2.372   2.938 -2.1416 -2.3550  1.1257
 2769TIP3    H229723   0.342   2.353   2.892 -1.5258  2.2420  0.6857
 2770TIP3   OH229724   1.878   4.813   4.994 -0.1530  0.7722  0.4678
 2770TIP3    H129725   1.972   4.794   4.990 -0.4802 -1.3879  1.4242
 2770TIP3    H229726   1.863   4.875   4.923  1.7203 -0.1484 -0.8264
 2771TIP3   OH229727   6.121   5.014  14.642  0.4381 -0.3954 -0.0573
 2771TIP3    H129728   6.064   4.940  14.621 -1.3358 -0.2621  3.4512
 2771TIP3    H229729   6.193   4.975  14.693 -0.2576  0.1468  1.4080
 2772TIP3   OH229730   1.503   6.658  12.272  0.3724 -0.3318 -0.5689
 2772TIP3    H129731   1.431   6.670  12.210  0.3608 -0.7798 -0.6405
 2772TIP3    H229732   1.465   6.605  12.342  0.7943 -1.0531 -0.8848
 2773TIP3   OH229733   5.448   6.719  16.709  0.4137  0.0732  0.7288
 2773TIP3    H129734   5.512   6.790  16.716  0.0637  0.5259 -0.3910
 2773TIP3    H229735   5.477   6.654  16.773  1.3044  0.7883  1.0792
 2774TIP3   OH229736   4.404   5.063  13.749 -0.6417  0.2485 -0.0791
 2774TIP3    H129737   4.373   5.005  13.680 -1.7307  0.1316  0.4994
 2774TIP3    H229738   4.435   5.004  13.818  0.5854  0.3638 -0.4941
 2775TIP3   OH229739   3.090   6.431  15.036  0.1172 -0.3044 -0.0053
 2775TIP3    H129740   3.173   6.461  14.999 -0.4221 -0.1900 -1.1347
 2775TIP3    H229741   3.088   6.472  15.123  0.6511  0.7427 -0.4564
 2776TIP3   OH229742   1.414   3.307   0.539 -0.2208 -0.3873  0.1318
 2776TIP3    H129743   1.399   3.270   0.626 -4.0439 -0.4931 -0.3799
 2776TIP3    H229744   1.406   3.402   0.551 -0.5420 -0.3885 -0.0604
 2777TIP3   OH229745   2.840   1.555   3.470 -0.1034  0.2369  0.4107
 2777TIP3    H129746   2.877   1.578   3.555  2.4730 -0.4175 -0.4206
 2777TIP3    H229747   2.915   1.561   3.409 -1.1746 -1.9932 -1.2953
 2778TIP3   OH229748   3.322   4.458   1.860  0.6246 -0.4818  0.6317
 2778TIP3    H129749   3.233   4.453   1.893  0.6375  2.4631  1.3904
 2778TIP3    H229750   3.378   4.447   1.937  0.8982 -1.1792  0.3435
 2779TIP3   OH229751   4.974   3.193   0.803 -0.2069  0.4880 -0.2211
 2779TIP3    H129752   4.952   3.245   0.880  1.2215 -0.0303  0.5727
 2779TIP3    H229753   4.898   3.137   0.788 -0.9758  1.4436  0.0736
 2780TIP3   OH229754   2.543   0.794  13.104  0.1891  0.3908  0.5421
 2780TIP3    H129755   2.475   0.856  13.132 -0.0379  0.0240  0.8173
 2780TIP3    H229756   2.495   0.725  13.058  0.6097  1.2842 -1.3375
 2781TIP3   OH229757   5.503   0.432   5.137 -0.6416 -0.0345 -0.0515
 2781TIP3    H129758   5.527   0.359   5.080  0.5249 -0.0910  0.4969
 2781TIP3    H229759   5.439   0.482   5.085 -1.0477 -1.1294 -0.6416
 2782TIP3   OH229760   0.775   6.342  16.881  0.3442  0.2915  1.2753
 2782TIP3    H129761   0.739   6.253  16.881 -0.4000  0.5834  0.7885
 2782TIP3    H229762   0.699   6.399  16.891  0.5359  0.9515 -0.6408
 2783TIP3   OH229763   2.220   3.411  16.097  0.1226 -0.0834 -0.0217
 2783TIP3    H129764   2.221   3.484  16.035 -2.8294  0.3166  0.2421
 2783TIP3    H229765   2.159   3.348  16.059  1.4520 -1.7593  0.5053
 2784TIP3   OH229766   5.324   2.319  17.053 -0.3577 -0.0754  0.1387
 2784TIP3    H129767   5.376   2.266  17.114 -0.3521 -1.3893 -0.9442
 2784TIP3    H229768   5.271   2.375  17.109 -0.1120 -0.9952  1.3463
 2785TIP3   OH229769   5.264   3.554   0.239 -0.3785 -0.3855 -0.6607
 2785TIP3    H129770   5.315   3.498   0.297  0.0012 -0.6646 -1.2528
 2785TIP3    H229771   5.230   3.623   0.296  0.3757 -0.3859 -0.1931
 2786TIP3   OH229772   2.427   6.400   2.811  0.1807 -0.0791  0.0659
 2786TIP3    H129773   2.397   6.374   2.723 -1.4734 -0.6990  0.7725
 2786TIP3    H229774   2.347   6.424   2.857  1.1307  1.2006  1.1245
 2787TIP3   OH229775   0.573   4.929   3.724 -0.2259  0.0533  0.1490
 2787TIP3    H129776   0.543   4.854   3.673 -0.7815  0.3053  0.1021
 2787TIP3    H229777   0.495   4.982   3.739  0.3152  1.1322 -0.6572
 2788TIP3   OH229778   3.663   0.284  16.238  0.6933  0.4874  0.0826
 2788TIP3    H129779   3.728   0.220  16.268 -0.5808 -0.2632  1.3804
 2788TIP3    H229780   3.601   0.291  16.310 -1.2535  0.3628 -1.4947
 2789TIP3   OH229781   5.912   1.153   6.236 -0.4554 -0.1016 -0.1473
 2789TIP3    H129782   5.915   1.073   6.288 -2.0378 -0.8287 -1.1194
 2789TIP3    H229783   5.842   1.204   6.275  1.2499  1.3694  1.1621
 2790TIP3   OH229784   3.773   0.749   2.484 -0.1851  0.0025 -0.1709
 2790TIP3    H129785   3.862   0.769   2.458 -0.1714 -0.4055 -0.4485
 2790TIP3    H229786   3.741   0.689   2.416  0.3175 -2.2061  1.4072
 2791TIP3   OH229787   3.153   5.744   6.006  0.2767 -0.0938  0.7913
 2791TIP3    H129788   3.116   5.661   6.034 -0.7465  0.2145  0.4215
 2791TIP3    H229789   3.077   5.804   6.004  0.4183  0.0792 -1.8930
 2792TIP3   OH229790   4.250   0.363   0.693  0.2437 -0.3430 -0.1375
 2792TIP3    H129791   4.300   0.284   0.671 -0.5401 -2.3956  4.3568
 2792TIP3    H229792   4.288   0.394   0.775 -1.9890  1.6584  0.2533
 2793TIP3   OH229793   0.690   2.020   1.096 -0.4929  0.1363  0.4249
 2793TIP3    H129794   0.696   2.102   1.145  0.7280  0.2352  0.1305
 2793TIP3    H229795   0.772   1.974   1.115 -1.7320 -1.6786  1.7126
 2794TIP3   OH229796   0.161   6.163  13.480  0.0503  0.1629  0.3168
 2794TIP3    H129797   0.215   6.156  13.402  0.4295 -0.1974  0.6065
 2794TIP3    H229798   0.112   6.081  13.484  1.2048 -0.5123  1.3022
 2795TIP3   OH229799   6.519   5.702   1.499  0.1668  0.3531 -0.0654
 2795TIP3    H129800   6.491   5.650   1.424  0.2624 -1.3220  1.0117
 2795TIP3    H229801   6.615   5.701   1.494  0.1649  1.0430 -0.4213
 2796TIP3   OH229802   4.367   2.105   0.140  0.3125  0.0675 -0.1270
 2796TIP3    H129803   4.355   2.200   0.139 -0.6619 -0.0210  0.6939
 2796TIP3    H229804   4.460   2.092   0.120  0.9302  1.3044  1.6863
 2797TIP3   OH229805   5.295   4.870   1.713 -0.4161 -0.3433  0.0949
 2797TIP3    H129806   5.249   4.928   1.773 -0.9460 -0.8543  0.1987
 2797TIP3    H229807   5.227   4.842   1.651 -0.7068 -2.5312  1.3056
 2798TIP3   OH229808   3.960   0.946  13.690  0.3354  0.2936  0.1731
 2798TIP3    H129809   4.053   0.966  13.698  0.1813  0.2651  2.7452
 2798TIP3    H229810   3.915   1.030  13.702 -0.0084  0.0898  0.3363
 2799TIP3   OH229811   5.243   3.919  15.418  0.0666  0.1974 -0.6044
 2799TIP3    H129812   5.252   3.978  15.344  0.3388 -0.0242 -0.7535
 2799TIP3    H229813   5.262   3.973  15.495 -0.2131  0.4265 -0.6976
 2800TIP3   OH229814   4.122   1.043   2.892  0.1310 -0.3434  0.1308
 2800TIP3    H129815   4.151   1.084   2.811  0.5823 -1.0558 -0.0778
 2800TIP3    H229816   4.063   0.973   2.864  3.5257 -3.4732  0.0220
 2801TIP3   OH229817   4.045   1.430  16.989 -0.2119 -0.6805 -0.3168
 2801TIP3    H129818   4.003   1.453  17.072 -2.8356  0.8920 -1.9385
 2801TIP3    H229819   4.001   1.350  16.961  0.1987 -0.8401 -0.5132
 2802TIP3   OH229820   5.390   6.485   4.405 -0.1997 -0.0502 -0.2887
 2802TIP3    H129821   5.460   6.547   4.425 -0.4857  0.1798  0.0164
 2802TIP3    H229822   5.368   6.501   4.313 -0.0892  0.1137 -0.2865
 2803TIP3   OH229823   4.698   4.125   1.325 -0.3233 -0.1258 -0.2023
 2803TIP3    H129824   4.760   4.131   1.398  0.5662  0.9366 -1.0189
 2803TIP3    H229825   4.649   4.044   1.343 -0.2470  0.1786  1.6435
 2804TIP3   OH229826   4.385   0.689   2.384  0.0502  0.0464  0.1118
 2804TIP3    H129827   4.424   0.694   2.296  0.7436 -0.2274  0.3985
 2804TIP3    H229828   4.456   0.713   2.443 -0.8441  1.8038  0.5180
 2805TIP3   OH229829   3.932   6.321   0.992  0.0809  0.1333 -0.3461
 2805TIP3    H129830   4.025   6.299   0.982 -0.2025 -1.5969  0.5202
 2805TIP3    H229831   3.888   6.269   0.925 -0.3643  0.0866 -0.0176
 2806TIP3   OH229832   0.064   3.373   3.916  0.7328  0.1389 -0.3122
 2806TIP3    H129833  -0.001   3.318   3.958  0.3561 -0.5085 -1.6839
 2806TIP3    H229834   0.109   3.417   3.988  1.0316 -1.9257  0.8329
 2807TIP3   OH229835   3.530   5.013   2.808  0.0906 -0.2237  0.8569
 2807TIP3    H129836   3.581   5.033   2.886  2.0265  2.2792 -0.8602
 2807TIP3    H229837   3.443   5.048   2.826 -0.2268 -1.7835  2.6817
 2808TIP3   OH229838   1.101   2.949   5.028  0.9360  0.5005  0.2328
 2808TIP3    H129839   1.115   3.040   5.002  0.1646  0.3426 -0.8369
 2808TIP3    H229840   1.030   2.953   5.092 -0.1915  0.5489 -0.9752
 2809TIP3   OH229841   2.237   0.217  14.304 -0.0718  0.3394 -0.3358
 2809TIP3    H129842   2.254   0.241  14.395 -0.5043  0.3078 -0.2455
 2809TIP3    H229843   2.243   0.300  14.257  4.2626 -0.1001 -0.9654
 2810TIP3   OH229844   2.669   3.869  14.918  0.4777 -0.1918 -0.2324
 2810TIP3    H129845   2.613   3.886  14.993  1.8396  2.5924  0.2946
 2810TIP3    H229846   2.618   3.901  14.843 -0.5140 -2.1443 -0.4517
 2811TIP3   OH229847   2.236   2.808  15.871  0.6571 -0.1355 -0.1748
 2811TIP3    H129848   2.279   2.893  15.879  0.8438 -0.0522 -1.6649
 2811TIP3    H229849   2.298   2.756  15.819 -0.0018 -0.7707 -0.3288
 2812TIP3   OH229850   3.878   2.383   3.514  0.0700 -0.7375 -0.0517
 2812TIP3    H129851   3.927   2.361   3.593  0.2501 -1.6846 -0.4115
 2812TIP3    H229852   3.938   2.363   3.442  0.3775  1.3038 -0.4186
 2813TIP3   OH229853   5.024   2.822   0.847 -0.2858 -0.3302 -0.3022
 2813TIP3    H129854   4.971   2.751   0.811 -1.0452  1.4567 -3.0969
 2813TIP3    H229855   4.961   2.880   0.889 -0.2722  0.6217 -1.5463
 2814TIP3   OH229856   5.549   4.789  12.885 -0.3283  0.1343 -0.3322
 2814TIP3    H129857   5.562   4.708  12.837  0.4916  0.2781 -0.3632
 2814TIP3    H229858   5.456   4.809  12.873 -0.3798 -0.4217 -0.9189
 2815TIP3   OH229859   3.863   4.392   0.173 -0.1365 -0.6477  0.1044
 2815TIP3    H129860   3.836   4.475   0.132 -2.6561 -1.6282 -0.4527
 2815TIP3    H229861   3.875   4.413   0.265 -0.2243  0.4407 -0.1205
 2816TIP3   OH229862   3.590   1.439  14.839  0.0785  0.4744  0.6107
 2816TIP3    H129863   3.583   1.516  14.782  0.6446 -0.5447 -0.8880
 2816TIP3    H229864   3.511   1.388  14.819  1.0933 -0.7123 -0.5865
 2817TIP3   OH229865   6.173   3.035   2.243  0.2042 -0.4571  0.6200
 2817TIP3    H129866   6.232   3.014   2.171  0.4392 -0.9392  0.9472
 2817TIP3    H229867   6.152   3.127   2.231  0.0828 -0.5797 -0.1809
 2818TIP3   OH229868   2.806   2.594  10.806  1.0241 -0.6855 -0.6401
 2818TIP3    H129869   2.889   2.548  10.819  0.5316 -1.4348 -0.0120
 2818TIP3    H229870   2.792   2.592  10.712  2.0571  0.0772 -0.8297
 2819TIP3   OH229871   1.243   0.092  11.719  0.5550  0.0348 -0.4576
 2819TIP3    H129872   1.217   0.118  11.808 -2.2037 -1.6782 -0.6510
 2819TIP3    H229873   1.255   0.175  11.673  2.1065  0.9734  1.4484
 2820TIP3   OH229874   2.698   0.212  11.368  0.7426 -0.5094 -0.6017
 2820TIP3    H129875   2.604   0.230  11.370  0.7622 -0.4417  0.0168
 2820TIP3    H229876   2.712   0.163  11.287  0.2692 -0.0203 -0.9887
 2821TIP3   OH229877   4.061   5.495  13.940 -0.6077  0.4674 -0.2304
 2821TIP3    H129878   4.048   5.589  13.924  0.7360  0.4063 -2.0584
 2821TIP3    H229879   4.083   5.459  13.854  1.4219 -1.0657  0.8526
 2822TIP3   OH229880   5.866   1.826  13.766 -0.2870 -0.4011  0.3461
 2822TIP3    H129881   5.882   1.732  13.773 -0.0522 -0.2703  2.0422
 2822TIP3    H229882   5.793   1.842  13.826  0.1563  0.6027  0.6296
 2823TIP3   OH229883   3.546   5.927  14.846 -0.2664 -0.5225 -0.3948
 2823TIP3    H129884   3.547   5.896  14.756 -0.8382 -0.5195 -0.4082
 2823TIP3    H229885   3.538   5.847  14.899 -1.6951 -0.4279 -0.4272
 2824TIP3   OH229886   6.556   6.469  13.851 -0.3856 -0.2652 -0.7190
 2824TIP3    H129887   6.652   6.473  13.849 -0.3373 -0.2147  0.5057
 2824TIP3    H229888   6.537   6.381  13.883 -0.7380 -0.1948 -0.7344
 2825TIP3   OH229889   2.204   1.153  15.009 -0.3077  0.3150 -0.0566
 2825TIP3    H129890   2.140   1.100  14.961 -0.7577 -0.0228  0.8948
 2825TIP3    H229891   2.161   1.239  15.019 -0.3234  0.3028 -0.0203
 2826TIP3   OH229892   2.390   6.551   4.832  0.1273 -0.6707 -0.1937
 2826TIP3    H129893   2.380   6.459   4.805 -0.1904 -0.4620 -0.8022
 2826TIP3    H229894   2.385   6.601   4.750 -1.0302 -0.0163  0.2584
 2827TIP3   OH229895   0.185   6.272  11.404  0.6851 -0.2184 -0.1890
 2827TIP3    H129896   0.215   6.190  11.443  1.7649  0.2516  0.0182
 2827TIP3    H229897   0.197   6.261  11.310 -1.5714 -1.2168 -0.4150
 2828TIP3   OH229898   2.960   3.416   2.522 -0.6922 -0.5300  0.0323
 2828TIP3    H129899   2.969   3.335   2.471 -1.0887  1.2729 -3.1227
 2828TIP3    H229900   3.045   3.459   2.516 -0.8545 -0.1024  0.6593
 2829TIP3   OH229901   4.541   0.992   3.607  1.1252 -0.1915  0.3220
 2829TIP3    H129902   4.625   0.948   3.617  2.0043  1.0842 -1.1652
 2829TIP3    H229903   4.543   1.029   3.519 -1.3036 -0.7532 -0.0602
 2830TIP3   OH229904   4.084   6.122  12.966 -0.2598  0.2761  0.1514
 2830TIP3    H129905   4.168   6.080  12.948 -0.2557  0.0373  0.7006
 2830TIP3    H229906   4.020   6.052  12.954 -0.4675  0.6580 -1.0761
 2831TIP3   OH229907   3.607   4.009  11.479 -0.0795  0.0009 -0.3870
 2831TIP3    H129908   3.554   4.046  11.550  0.4348 -0.4780  0.2657
 2831TIP3    H229909   3.694   4.048  11.491  0.5006 -1.4540  0.3855
 2832TIP3   OH229910   5.609   0.302  13.709 -0.2069 -0.0456  0.0743
 2832TIP3    H129911   5.569   0.358  13.775  0.5999 -1.5688  1.9209
 2832TIP3    H229912   5.686   0.265  13.751  0.9345 -0.3014 -2.0689
 2833TIP3   OH229913   0.827   4.444  14.016  0.5723  0.0141 -0.0553
 2833TIP3    H129914   0.736   4.475  14.018  0.8760  0.9748 -0.4697
 2833TIP3    H229915   0.858   4.453  14.106  0.5705  0.6737 -0.1186
 2834TIP3   OH229916   6.719   4.252   0.140 -0.7533 -1.0513  0.0787
 2834TIP3    H129917   6.663   4.201   0.082 -1.0645  0.6909 -1.2291
 2834TIP3    H229918   6.660   4.315   0.181 -0.3549 -1.6116  1.5482
 2835TIP3   OH229919   2.297   4.949   1.084 -0.2931 -0.1723  0.4363
 2835TIP3    H129920   2.334   4.985   1.165 -0.0084 -0.8763  0.6267
 2835TIP3    H229921   2.370   4.905   1.042 -0.4736  0.0772 -0.1485
 2836TIP3   OH229922   1.754   0.724  11.879  0.1881  0.1592 -0.3866
 2836TIP3    H129923   1.670   0.769  11.891  1.2331  1.6846  1.9132
 2836TIP3    H229924   1.739   0.664  11.806 -2.2489  1.9486 -1.4979
 2837TIP3   OH229925   4.145   6.166   5.568 -0.1564  0.4218  0.1261
 2837TIP3    H129926   4.077   6.120   5.520 -0.6972  1.2134  0.1064
 2837TIP3    H229927   4.132   6.142   5.660 -0.2577  0.3253  0.0854
 2838TIP3   OH229928   1.888   4.699  14.543 -0.4655  0.0865 -0.4232
 2838TIP3    H129929   1.803   4.682  14.503 -1.0973  2.1666 -0.1000
 2838TIP3    H229930   1.950   4.700  14.471 -1.1271  0.9647 -0.9931
 2839TIP3   OH229931   4.479   5.972  15.032  0.4029  0.0133 -0.3882
 2839TIP3    H129932   4.550   5.959  15.095  2.4062  1.4301 -2.2212
 2839TIP3    H229933   4.468   6.067  15.027 -0.3095 -0.1120 -1.4985
 2840TIP3   OH229934   1.718   2.718  13.702 -0.3011 -0.0123 -0.2454
 2840TIP3    H129935   1.623   2.706  13.704 -0.4119  0.7242 -0.6142
 2840TIP3    H229936   1.747   2.699  13.791 -0.7483 -0.5637 -0.2107
 2841TIP3   OH229937   0.547   1.301   4.867 -0.6757 -0.1029  0.3764
 2841TIP3    H129938   0.597   1.224   4.894 -0.8996 -0.1771  0.5805
 2841TIP3    H229939   0.610   1.355   4.820 -0.0136  0.4996  1.8894
 2842TIP3   OH229940   3.392   3.815  10.783 -0.2848 -0.4722  0.7932
 2842TIP3    H129941   3.434   3.779  10.862  0.0320 -1.1732  0.3169
 2842TIP3    H229942   3.452   3.884  10.754  0.2729 -1.0868  0.4401
 2843TIP3   OH229943   5.125   2.742  14.220 -0.3683 -0.2989 -0.4427
 2843TIP3    H129944   5.054   2.732  14.284  2.1622  0.5622  2.7766
 2843TIP3    H229945   5.152   2.652  14.200  1.5757 -0.7323  3.3086
 2844TIP3   OH229946   6.614   6.546  17.177 -0.5574 -0.1934  0.1932
 2844TIP3    H129947   6.592   6.564  17.268  0.7905  1.5069  0.2202
 2844TIP3    H229948   6.634   6.632  17.139 -0.8386 -0.8924 -1.6460
 2845TIP3   OH229949   5.887   4.533  14.518 -0.3177 -0.3447 -0.2194
 2845TIP3    H129950   5.878   4.440  14.537 -0.5184 -0.1806  0.5209
 2845TIP3    H229951   5.797   4.565  14.511 -0.3372 -0.7954 -3.6332
 2846TIP3   OH229952   2.856   1.474  13.749 -0.2566 -0.3039  0.5471
 2846TIP3    H129953   2.927   1.443  13.805  0.7961  1.6485  0.3772
 2846TIP3    H229954   2.780   1.477  13.807  0.2007 -0.7985  1.1893
 2847TIP3   OH229955   2.404   3.168  16.171 -0.2111 -0.1353 -0.0312
 2847TIP3    H129956   2.428   3.087  16.217  0.2413  0.2492  0.4292
 2847TIP3    H229957   2.405   3.235  16.240  1.6306  0.6735 -0.7812
 2848TIP3   OH229958   4.177   2.011  16.046 -0.0038  0.1409 -0.6110
 2848TIP3    H129959   4.254   1.957  16.031  0.7400  1.1548 -0.5599
 2848TIP3    H229960   4.132   2.014  15.961 -0.7629 -1.5810 -0.3085
 2849TIP3   OH229961   2.719   2.038   2.102 -0.0366  0.1208  0.1096
 2849TIP3    H129962   2.633   2.042   2.144 -0.0794  1.7996 -0.0781
 2849TIP3    H229963   2.754   1.953   2.128 -1.4952 -0.3313  0.6968
 2850TIP3   OH229964   5.293   2.380  15.246 -0.1297  0.0156  0.3290
 2850TIP3    H129965   5.373   2.339  15.280  0.8449 -1.3903 -3.1534
 2850TIP3    H229966   5.224   2.318  15.267  0.1912 -0.1635  0.8787
 2851TIP3   OH229967   1.692   3.531  14.466  0.0316 -0.0316  0.3976
 2851TIP3    H129968   1.766   3.585  14.494 -0.0430 -0.5331  1.6567
 2851TIP3    H229969   1.658   3.574  14.388  1.0164  0.7818  0.4064
 2852TIP3   OH229970   6.780   2.341   4.670  0.1282  0.2378 -0.1738
 2852TIP3    H129971   6.871   2.317   4.653 -0.5290 -1.8910 -1.1117
 2852TIP3    H229972   6.730   2.266   4.639 -2.0400  1.8330 -0.7954
 2853TIP3   OH229973   2.133   6.282   1.654  0.2533 -0.2719  0.4886
 2853TIP3    H129974   2.115   6.371   1.626  2.1305  0.2761  0.8884
 2853TIP3    H229975   2.197   6.249   1.591  0.9555 -0.6814  1.3915
 2854TIP3   OH229976   2.711   0.663  16.257 -0.2615 -0.0917  0.1367
 2854TIP3    H129977   2.679   0.611  16.184 -0.4955  0.7546 -0.3864
 2854TIP3    H229978   2.791   0.705  16.223 -0.9350  1.1267 -0.0153
 2855TIP3   OH229979   1.372   2.863   1.584 -0.6758 -0.0794  0.3487
 2855TIP3    H129980   1.416   2.877   1.668  0.0829  0.3593 -0.1112
 2855TIP3    H229981   1.412   2.926   1.525 -1.0956 -0.4827 -0.3867
 2856TIP3   OH229982   3.868   3.734   5.958  0.0255  0.3689 -0.9653
 2856TIP3    H129983   3.794   3.723   6.018  0.4949  1.5485 -0.1385
 2856TIP3    H229984   3.881   3.647   5.920  0.6903 -0.8507  1.7830
 2857TIP3   OH229985   4.556   6.197   3.889  0.2340  1.3785 -0.4584
 2857TIP3    H129986   4.553   6.111   3.846  0.7729 -0.5980  3.0600
 2857TIP3    H229987   4.466   6.229   3.884 -1.2685 -1.7654  2.1327
 2858TIP3   OH229988   1.200   5.742  13.939 -0.2595 -0.0332 -0.4824
 2858TIP3    H129989   1.120   5.788  13.912 -0.9545  0.4042  2.1299
 2858TIP3    H229990   1.171   5.678  14.003  1.3250 -0.8394 -0.5247
 2859TIP3   OH229991   4.664   5.928   3.484  0.1793 -0.3225  0.2887
 2859TIP3    H129992   4.632   5.913   3.395 -0.1657 -1.2200  0.5518
 2859TIP3    H229993   4.736   5.866   3.495 -0.3981 -0.8906  0.9503
 2860TIP3   OH229994   3.547   4.369   2.991  0.3377 -0.0457  0.4293
 2860TIP3    H129995   3.452   4.369   3.000  0.0350 -3.5157 -1.1392
 2860TIP3    H229996   3.579   4.406   3.073 -2.3277  0.9507  1.1190
 2861TIP3   OH229997   1.052   6.139   0.669 -0.6013  0.1484  0.0981
 2861TIP3    H129998   1.100   6.163   0.590  0.3679  0.9842  0.9088
 2861TIP3    H229999   1.038   6.044   0.660 -0.0718  0.1436 -0.8374
 2862TIP3   OH230000   2.150   5.330  11.176 -0.5506 -0.0321  0.3853
 2862TIP3    H130001   2.146   5.236  11.195 -2.2885 -0.6680 -2.4787
 2862TIP3    H230002   2.065   5.363  11.203 -1.0708  0.0684 -1.2844
 2863TIP3   OH230003   3.719   0.401  10.365  0.3249 -0.2195 -0.3566
 2863TIP3    H130004   3.685   0.342  10.297 -0.3485  1.0182 -1.1329
 2863TIP3    H230005   3.642   0.430  10.413  0.3844  1.5413 -1.2525
 2864TIP3   OH230006   5.432   4.345   4.742  0.5765 -0.1143  0.2097
 2864TIP3    H130007   5.484   4.298   4.807 -0.4355 -1.7989 -0.1289
 2864TIP3    H230008   5.396   4.276   4.687 -0.7088  1.1082 -0.5264
 2865TIP3   OH230009   1.017   5.232   5.533 -0.4947  0.3631  0.1382
 2865TIP3    H130010   0.964   5.206   5.458 -0.6078  0.1520  0.2892
 2865TIP3    H230011   1.062   5.152   5.560  0.2981  0.6447 -0.2988
 2866TIP3   OH230012   5.277   2.892   0.995 -0.2723 -0.1554  0.8167
 2866TIP3    H130013   5.255   2.857   1.082 -0.4093  0.0789  0.8787
 2866TIP3    H230014   5.196   2.881   0.944  0.2024 -1.5100  0.3152
 2867TIP3   OH230015   1.219   3.151   6.015 -0.2571 -0.1915  0.0210
 2867TIP3    H130016   1.304   3.172   6.054 -1.4785 -1.0857  3.5088
 2867TIP3    H230017   1.208   3.057   6.031 -1.5938 -0.2389 -1.0140
 2868TIP3   OH230018   4.965   3.083   2.749  0.7186 -0.1044  0.4473
 2868TIP3    H130019   4.972   3.084   2.844  1.9381 -0.6044  0.3878
 2868TIP3    H230020   4.875   3.110   2.730 -0.0976 -1.7507  1.7911
 2869TIP3   OH230021   1.614   4.349  15.040 -0.1220 -0.3666 -0.0796
 2869TIP3    H130022   1.668   4.272  15.059 -1.7861 -1.8679 -1.1295
 2869TIP3    H230023   1.676   4.422  15.038  1.3943 -1.5036  1.8613
 2870TIP3   OH230024   1.634   1.240  12.764 -0.6470 -0.5905 -0.3038
 2870TIP3    H130025   1.718   1.248  12.810 -0.7421 -1.1627 -0.0176
 2870TIP3    H230026   1.614   1.329  12.734  0.6494 -0.6264 -1.4195
 2871TIP3   OH230027   0.693   2.603  13.136  0.7773  0.4121  0.0768
 2871TIP3    H130028   0.709   2.628  13.045  3.0568 -0.1384  0.2629
 2871TIP3    H230029   0.779   2.610  13.178  0.0953 -0.8624  1.8083
 2872TIP3   OH230030   2.265   0.187   1.680  0.4818  0.0737  0.4898
 2872TIP3    H130031   2.265   0.190   1.775  0.6935  0.5502  0.4779
 2872TIP3    H230032   2.357   0.202   1.655  0.3442  0.4848  0.2032
 2873TIP3   OH230033   1.454   4.757   4.628  0.5090  0.3493 -0.4989
 2873TIP3    H130034   1.400   4.736   4.551 -0.7104  1.6582 -0.0450
 2873TIP3    H230035   1.435   4.849   4.646 -0.0640 -0.1980  2.0079
 2874TIP3   OH230036   2.498   5.481   0.025  0.3619  0.4214 -0.0320
 2874TIP3    H130037   2.543   5.563   0.044  0.0688  1.2986 -2.6606
 2874TIP3    H230038   2.487   5.481  -0.070  0.6779 -2.8582 -0.2001
 2875TIP3   OH230039   4.905   5.224  17.085 -0.0824  1.0482 -0.0214
 2875TIP3    H130040   4.830   5.245  17.029 -0.0568  0.7899 -0.1586
 2875TIP3    H230041   4.888   5.269  17.167 -0.7935  0.3370  0.2301
 2876TIP3   OH230042   4.923   0.061   5.120  0.3988  0.5093 -0.1760
 2876TIP3    H130043   4.912   0.028   5.209  0.8150 -0.0201 -0.3197
 2876TIP3    H230044   4.940  -0.017   5.067 -0.5897  0.7253 -0.8478
 2877TIP3   OH230045   6.603   3.291   4.274  0.3993  0.7781  0.5825
 2877TIP3    H130046   6.620   3.366   4.332 -0.2023  1.6923 -0.3936
 2877TIP3    H230047   6.580   3.220   4.333  1.4837  1.2073  1.5670
 2878TIP3   OH230048   2.410   2.497   5.998  0.1174 -0.8305 -0.0804
 2878TIP3    H130049   2.412   2.402   6.011  2.9963 -0.8213  0.3206
 2878TIP3    H230050   2.363   2.531   6.074 -0.6998 -1.9018 -0.0856
 2879TIP3   OH230051   1.712   0.928  16.207  0.4108  0.1015 -0.2205
 2879TIP3    H130052   1.645   0.995  16.224  0.8140  1.1146 -2.3499
 2879TIP3    H230053   1.771   0.935  16.283 -0.1631  1.3990  0.1456
 2880TIP3   OH230054   1.645   1.726   6.176 -0.0433  0.3100 -0.2320
 2880TIP3    H130055   1.558   1.763   6.162  0.6345  2.2079  0.3390
 2880TIP3    H230056   1.703   1.802   6.180  1.3723 -0.7957  1.4091
 2881TIP3   OH230057   6.178   2.124  11.302  0.8131 -0.2687 -0.1333
 2881TIP3    H130058   6.084   2.132  11.287  1.4951  2.8508 -5.2520
 2881TIP3    H230059   6.201   2.037  11.270 -0.1682 -0.4422 -0.3881
 2882TIP3   OH230060   6.328   0.700  12.401 -0.2744 -0.2988 -0.1324
 2882TIP3    H130061   6.303   0.705  12.309 -1.3566  0.9263  0.1958
 2882TIP3    H230062   6.403   0.640  12.403 -0.2045 -0.2996 -1.8032
 2883TIP3   OH230063   2.966   3.714   4.600 -0.1957  0.4112  0.3823
 2883TIP3    H130064   2.993   3.684   4.687  0.8825  0.7694  0.1872
 2883TIP3    H230065   2.873   3.690   4.594 -0.8082  1.9409  2.3412
 2884TIP3   OH230066   4.175   3.079  12.192  0.2131 -0.2905 -0.5287
 2884TIP3    H130067   4.240   3.106  12.257 -0.3595 -0.6617  0.2030
 2884TIP3    H230068   4.153   3.159  12.145  0.2185  0.0826  0.1025
 2885TIP3   OH230069   4.117   5.464   0.934 -0.6719  0.7313 -0.0023
 2885TIP3    H130070   4.110   5.372   0.960  0.1255  0.6128 -0.1875
 2885TIP3    H230071   4.029   5.488   0.906 -0.7196 -0.1995 -0.6875
 2886TIP3   OH230072   2.726   1.314   2.395 -0.4393 -0.2740  0.1116
 2886TIP3    H130073   2.744   1.342   2.306 -0.5134  0.0443  0.1974
 2886TIP3    H230074   2.808   1.274   2.425 -0.9486 -2.0523 -0.7275
 2887TIP3   OH230075   5.979   6.402   4.427 -0.0035 -0.2566  0.0609
 2887TIP3    H130076   6.022   6.318   4.412  0.7845  0.0419  0.5557
 2887TIP3    H230077   6.046   6.467   4.408 -0.4922  0.2554  0.0482
 2888TIP3   OH230078   0.813   5.989   4.701 -0.7121  0.0763 -0.4894
 2888TIP3    H130079   0.844   6.071   4.738 -1.9199 -0.0824  0.9880
 2888TIP3    H230080   0.794   5.934   4.778  2.6041 -2.6449 -1.3462
 2889TIP3   OH230081   1.655   3.522   0.686  0.0998  0.6109 -0.3197
 2889TIP3    H130082   1.560   3.535   0.681  0.2310  1.5369 -0.5594
 2889TIP3    H230083   1.689   3.558   0.604  0.5987 -0.3705 -0.5617
 2890TIP3   OH230084   4.145   2.656  12.698  0.2187  0.1117  0.0547
 2890TIP3    H130085   4.138   2.567  12.732  0.5077  0.5985  1.4524
 2890TIP3    H230086   4.089   2.708  12.756 -0.1695  0.8065 -0.9112
 2891TIP3   OH230087   2.489   5.798  16.220  0.1496 -0.1943 -0.2367
 2891TIP3    H130088   2.399   5.815  16.247 -0.9190 -1.6339 -2.5743
 2891TIP3    H230089   2.514   5.876  16.170 -0.4475 -0.4958 -1.0249
 2892TIP3   OH230090   4.851   4.753   1.241  0.0402 -0.3833 -0.1697
 2892TIP3    H130091   4.822   4.841   1.218  1.1497  0.4328  1.4503
 2892TIP3    H230092   4.822   4.741   1.331  2.7552 -0.3761  0.7668
 2893TIP3   OH230093   3.984   4.623   2.755  0.3161  0.1542  0.2471
 2893TIP3    H130094   4.012   4.564   2.684  0.7470  0.1599  0.4055
 2893TIP3    H230095   3.892   4.603   2.768  0.3802 -0.2603  0.0789
 2894TIP3   OH230096   6.083   3.513   2.004  0.2496  0.2406 -0.0918
 2894TIP3    H130097   6.109   3.442   2.062  1.0821 -0.1483 -0.9071
 2894TIP3    H230098   6.145   3.584   2.023  0.9841 -0.1438 -0.9800
 2895TIP3   OH230099   5.550   0.854  12.181 -0.7478 -0.4675  0.2198
 2895TIP3    H130100   5.578   0.935  12.225  0.4742 -1.9904  2.4469
 2895TIP3    H230101   5.588   0.861  12.094  1.5048  0.3110  1.1819
 2896TIP3   OH230102   3.776   6.481   1.667 -0.0280  0.0870  0.3753
 2896TIP3    H130103   3.710   6.520   1.610  0.5105  0.5166  0.0228
 2896TIP3    H230104   3.780   6.539   1.743  1.3534  1.2420 -0.5187
 2897TIP3   OH230105   1.800   2.481  12.969 -0.4891 -0.5551 -0.0820
 2897TIP3    H130106   1.739   2.483  12.895 -2.0371 -0.8041  1.1454
 2897TIP3    H230107   1.854   2.403  12.953 -0.2031 -0.1134 -1.3848
 2898TIP3   OH230108   0.151   5.834   2.297 -0.3004 -0.2750 -0.5102
 2898TIP3    H130109   0.139   5.826   2.202 -0.0733  2.6695 -0.8938
 2898TIP3    H230110   0.205   5.759   2.321 -1.3358 -1.7493 -2.4667
 2899TIP3   OH230111   1.584   1.764  14.784  0.0446 -0.5012  0.1495
 2899TIP3    H130112   1.577   1.720  14.869  0.1256 -1.3733 -0.2919
 2899TIP3    H230113   1.495   1.793  14.765  0.0286 -0.2816  0.5324
 2900TIP3   OH230114   0.732   3.421   1.923  0.6066 -0.3560  0.0874
 2900TIP3    H130115   0.708   3.481   1.993  2.0184 -0.7163  0.9168
 2900TIP3    H230116   0.728   3.334   1.963 -1.0207 -0.8275 -0.9876
 2901TIP3   OH230117   3.160   1.956  15.797 -0.2376  0.7365 -0.1404
 2901TIP3    H130118   3.238   1.901  15.793 -0.2913  0.5743  0.8273
 2901TIP3    H230119   3.119   1.946  15.711 -0.1852 -0.6658 -0.0275
 2902TIP3   OH230120   5.405   1.375  13.433 -0.0178 -0.3531  0.3545
 2902TIP3    H130121   5.329   1.375  13.491 -0.5565  0.4095 -0.3288
 2902TIP3    H230122   5.469   1.431  13.476 -1.1254  1.7854 -0.6398
 2903TIP3   OH230123   6.607   2.808   3.917 -0.8697 -0.0296  0.5644
 2903TIP3    H130124   6.566   2.886   3.954  0.2968 -0.3984  2.8474
 2903TIP3    H230125   6.539   2.741   3.918 -2.3456  1.1883 -2.8110
 2904TIP3   OH230126   6.289   1.733  13.232 -0.5241  0.0321 -0.0314
 2904TIP3    H130127   6.233   1.794  13.184 -0.3688  0.8796  0.8201
 2904TIP3    H230128   6.316   1.782  13.310  1.7130 -0.1986 -0.5870
 2905TIP3   OH230129   5.128   4.538  12.637  0.0154 -0.2283 -0.7790
 2905TIP3    H130130   5.093   4.449  12.641  0.6411 -0.4537  0.4872
 2905TIP3    H230131   5.214   4.528  12.596  0.0523 -0.1979 -0.7098
 2906TIP3   OH230132   4.305   1.630   6.401 -0.1272 -0.5520 -0.1561
 2906TIP3    H130133   4.338   1.579   6.327 -2.5515 -1.1254 -0.9143
 2906TIP3    H230134   4.381   1.682   6.429  0.3116  1.8502 -4.8163
 2907TIP3   OH230135   5.317   2.326  15.638  0.6930 -0.5313 -0.4540
 2907TIP3    H130136   5.399   2.339  15.591  0.6278 -1.8018 -0.9733
 2907TIP3    H230137   5.255   2.299  15.571  0.5264 -2.1113  0.2894
 2908TIP3   OH230138   5.201   0.158   3.751 -0.0721 -0.3936  0.2794
 2908TIP3    H130139   5.217   0.248   3.722 -2.2230 -0.6190 -1.9428
 2908TIP3    H230140   5.175   0.165   3.842  0.6514  1.1120  0.3949
 2909TIP3   OH230141   2.529   4.786   0.944 -0.4757 -0.4247 -0.2343
 2909TIP3    H130142   2.556   4.768   0.854  2.1694 -1.3832  0.6605
 2909TIP3    H230143   2.496   4.702   0.977 -1.1781 -0.1449 -0.1997
 2910TIP3   OH230144   4.148   3.348  10.784 -0.5304  0.3625  0.2020
 2910TIP3    H130145   4.165   3.310  10.698 -1.3200 -1.8492  0.9668
 2910TIP3    H230146   4.056   3.330  10.801 -0.3450  0.5781  1.5940
 2911TIP3   OH230147   0.829   1.751  15.252 -0.3431 -0.3647 -0.2710
 2911TIP3    H130148   0.801   1.765  15.162  1.3791 -0.5131 -0.8730
 2911TIP3    H230149   0.793   1.666  15.275  0.6206 -1.1267 -1.4521
 2912TIP3   OH230150   0.691   3.556   0.284 -0.2981  0.4593 -0.6456
 2912TIP3    H130151   0.733   3.483   0.330  0.4372  0.5122 -1.2154
 2912TIP3    H230152   0.607   3.568   0.329 -0.3630 -0.6362 -0.4511
 2913TIP3   OH230153   3.514   2.216  11.265 -0.3386  0.1946 -0.5294
 2913TIP3    H130154   3.477   2.174  11.188  3.5431 -0.6789 -2.2032
 2913TIP3    H230155   3.558   2.145  11.312  0.4141  1.2883  0.4698
 2914TIP3   OH230156   4.024   3.872   0.274 -0.1717 -0.3181  0.1315
 2914TIP3    H130157   3.946   3.863   0.328 -0.7567 -0.6133 -0.7463
 2914TIP3    H230158   4.012   3.955   0.228 -0.3468 -0.7316 -0.5876
 2915TIP3   OH230159   6.140   5.473  12.660  0.0169  0.5730  1.0166
 2915TIP3    H130160   6.211   5.411  12.645 -0.4831  0.0986  0.5985
 2915TIP3    H230161   6.074   5.423  12.708 -1.0801  0.3081 -0.7003
 2916TIP3   OH230162   3.425   3.241  11.888  0.0507  0.0805  0.0652
 2916TIP3    H130163   3.513   3.262  11.859  0.3657 -0.3311  0.7085
 2916TIP3    H230164   3.433   3.227  11.982 -0.3182 -1.9075 -0.1520
 2917TIP3   OH230165   1.396   0.489  11.743  0.3546 -0.4872  0.0742
 2917TIP3    H130166   1.444   0.460  11.820 -1.2384 -1.1306  0.8442
 2917TIP3    H230167   1.365   0.577  11.766 -0.4322 -0.8243  0.3251
 2918TIP3   OH230168   4.168   6.286   3.609 -0.4672 -0.1131  0.0887
 2918TIP3    H130169   4.208   6.362   3.567 -0.2824  0.1193  0.6795
 2918TIP3    H230170   4.100   6.258   3.548 -0.2373  0.2509 -0.3398
 2919TIP3   OH230171   1.667   2.361   5.610  0.0043  0.5675  0.0317
 2919TIP3    H130172   1.585   2.338   5.654 -1.1383 -1.1402 -2.7032
 2919TIP3    H230173   1.735   2.337   5.673 -1.5407 -0.2791  1.4660
 2920TIP3   OH230174   6.344   2.520   5.417 -0.0277 -0.2048  0.2996
 2920TIP3    H130175   6.323   2.611   5.439 -0.4310 -0.1812 -0.1742
 2920TIP3    H230176   6.436   2.522   5.392 -0.5038  0.4081 -1.5015
 2921TIP3   OH230177   2.956   2.048   1.796  0.5601 -0.1504 -0.6604
 2921TIP3    H130178   2.866   2.078   1.779  1.2413  1.6394 -1.3336
 2921TIP3    H230179   2.964   2.048   1.891 -0.3934 -1.1481 -0.5596
 2922TIP3   OH230180   5.091   6.220   2.046 -0.1846  0.1792 -0.4320
 2922TIP3    H130181   5.136   6.299   2.077  0.4248 -0.0619 -0.6653
 2922TIP3    H230182   5.157   6.151   2.054 -1.3308 -0.7499  1.7072
 2923TIP3   OH230183   5.226   2.887  12.529  0.2604  0.1594  0.4370
 2923TIP3    H130184   5.227   2.835  12.449  1.7803 -0.5849  0.8880
 2923TIP3    H230185   5.183   2.830  12.593 -0.7279  0.6550  0.2325
 2924TIP3   OH230186   6.077   5.638  14.586  0.3312 -0.5730 -0.6180
 2924TIP3    H130187   6.137   5.563  14.590 -0.7208 -1.4432 -0.7085
 2924TIP3    H230188   5.996   5.601  14.551  0.3354  0.9813 -2.4002
 2925TIP3   OH230189   3.898   6.344  17.126  0.3340  0.1430  0.1987
 2925TIP3    H130190   3.953   6.403  17.075  1.7368 -1.2499  0.0320
 2925TIP3    H230191   3.823   6.327  17.069  0.7263  0.4587 -0.4289
 2926TIP3   OH230192   5.111   4.700  12.106  0.0553 -0.1553 -0.1541
 2926TIP3    H130193   5.096   4.612  12.139  1.2218 -1.1731 -2.1255
 2926TIP3    H230194   5.200   4.697  12.069 -0.1318  1.6390 -0.8614
 2927TIP3   OH230195   0.443   3.876   1.344 -0.8007 -0.3833 -0.5471
 2927TIP3    H130196   0.524   3.827   1.360 -0.2806  0.2373 -1.2213
 2927TIP3    H230197   0.446   3.949   1.405 -0.6172 -0.0950 -0.8969
 2928TIP3   OH230198   5.882   4.355   2.443 -0.1084  0.1686  0.2313
 2928TIP3    H130199   5.917   4.272   2.476 -0.5358 -0.9517 -1.8990
 2928TIP3    H230200   5.959   4.403   2.413  0.0348 -0.1532  0.0706
 2929TIP3   OH230201   4.753   1.536  16.623  0.1118 -0.2102 -0.3865
 2929TIP3    H130202   4.786   1.570  16.707 -1.6958 -0.2722  0.4148
 2929TIP3    H230203   4.823   1.480  16.590  1.3635  0.7850  0.4736
 2930TIP3   OH230204   2.663   5.470  14.093  0.2116  0.5762 -0.3173
 2930TIP3    H130205   2.709   5.386  14.093  0.8237  0.8993  0.3437
 2930TIP3    H230206   2.658   5.495  14.185 -0.2714  1.0984 -0.4825
 2931TIP3   OH230207   0.529   0.012  12.247  0.2071 -0.0781 -0.4555
 2931TIP3    H130208   0.543  -0.082  12.237 -3.4120 -0.6702 -1.2358
 2931TIP3    H230209   0.555   0.049  12.163  0.5052 -0.5324 -0.5664
 2932TIP3   OH230210   0.440   4.725  15.007  0.1882 -0.3099 -0.3025
 2932TIP3    H130211   0.373   4.665  14.974  0.4192  0.2553 -1.9200
 2932TIP3    H230212   0.393   4.807  15.025  0.3156 -0.1325 -0.7573
 2933TIP3   OH230213   1.171   2.074   2.726  0.8784  0.6549  0.4142
 2933TIP3    H130214   1.211   2.127   2.657 -0.2540  1.7845  0.5990
 2933TIP3    H230215   1.089   2.044   2.688  1.5113 -1.0699  0.2886
 2934TIP3   OH230216   5.559   4.420   1.574 -0.5212  0.1326 -0.3899
 2934TIP3    H130217   5.524   4.353   1.633 -0.0354 -0.0995 -0.3569
 2934TIP3    H230218   5.640   4.449   1.617  0.3272 -0.6882 -1.3687
 2935TIP3   OH230219   5.752   6.224   6.155 -0.3169 -0.4392 -0.4657
 2935TIP3    H130220   5.705   6.282   6.215 -0.1865  0.5220 -1.2711
 2935TIP3    H230221   5.841   6.257   6.155 -0.1797 -0.8059 -0.7400
 2936TIP3   OH230222   1.167   4.807  15.382 -0.2183  0.0367 -0.1055
 2936TIP3    H130223   1.194   4.875  15.444  0.2875 -0.1730 -0.0831
 2936TIP3    H230224   1.139   4.856  15.304 -0.8678  0.2995  0.2930
 2937TIP3   OH230225   6.546   5.147   1.070 -0.0621 -0.1454  0.2678
 2937TIP3    H130226   6.503   5.145   0.985 -0.2252 -0.7909  0.3584
 2937TIP3    H230227   6.613   5.078   1.065  1.0790  0.9543  0.0678
 2938TIP3   OH230228   6.741   6.454  12.261 -0.6776  0.6798 -0.2908
 2938TIP3    H130229   6.651   6.483  12.248 -1.2011 -0.7598 -0.0393
 2938TIP3    H230230   6.733   6.362  12.287  0.8854  0.3673 -0.8141
 2939TIP3   OH230231   3.955   2.840  11.898 -0.4950  0.4944  0.0948
 2939TIP3    H130232   4.009   2.762  11.888 -0.3554  0.6253 -0.1974
 2939TIP3    H230233   3.964   2.865  11.990 -0.5861  0.1334  0.2033
 2940TIP3   OH230234   2.381   4.932   4.322 -0.1012  0.6398  0.1372
 2940TIP3    H130235   2.459   4.955   4.271  0.6691  0.9241  1.4079
 2940TIP3    H230236   2.331   5.013   4.327  0.1089  0.7610  0.3116
 2941TIP3   OH230237   0.478   3.708  12.609  0.1049 -0.0800 -0.0524
 2941TIP3    H130238   0.512   3.677  12.525  1.0208  0.0603  0.2535
 2941TIP3    H230239   0.426   3.634  12.642 -2.0699  0.5951 -1.6817
 2942TIP3   OH230240   5.102   1.966   1.081 -0.6779 -0.9614  0.7878
 2942TIP3    H130241   5.169   1.908   1.117  1.9556  0.0485 -2.0483
 2942TIP3    H230242   5.111   2.047   1.130  0.8499 -0.5688 -0.0637
 2943TIP3   OH230243   2.052   5.122   0.440 -0.0517  0.2559 -0.1799
 2943TIP3    H130244   2.027   5.212   0.461 -1.5394 -0.4025  1.0584
 2943TIP3    H230245   1.998   5.098   0.365  0.1253  0.3039 -0.3219
 2944TIP3   OH230246   4.142   1.975   3.185 -0.1861  0.1080  0.2898
 2944TIP3    H130247   4.104   2.062   3.171  2.7845  1.2035 -2.2781
 2944TIP3    H230248   4.095   1.918   3.123  0.1643  0.7297 -0.5798
 2945TIP3   OH230249   5.619   0.374   6.101  0.6093  0.0251  0.2725
 2945TIP3    H130250   5.651   0.389   6.189  0.0432 -0.2285  0.5252
 2945TIP3    H230251   5.677   0.426   6.045  0.5780  0.6949  0.8482
 2946TIP3   OH230252   3.713   2.040  14.466 -0.2276 -0.2184 -0.2110
 2946TIP3    H130253   3.769   2.036  14.389 -0.3175  2.3510 -0.4957
 2946TIP3    H230254   3.756   2.103  14.524 -2.2818  1.1044 -0.0196
 2947TIP3   OH230255   1.208   1.877   2.906  0.0135  0.1966  0.2215
 2947TIP3    H130256   1.292   1.843   2.876  1.2861  2.4782  0.9933
 2947TIP3    H230257   1.197   1.959   2.858 -2.0502 -0.2642 -0.2145
 2948TIP3   OH230258   2.517   0.660  17.038 -0.4083  0.5204  0.2048
 2948TIP3    H130259   2.467   0.668  17.119  0.3627  0.7945  0.6688
 2948TIP3    H230260   2.515   0.748  17.000  0.5438  0.7821  0.7342
 2949TIP3   OH230261   1.976   0.668  10.995  0.5273 -0.3647 -0.6031
 2949TIP3    H130262   2.006   0.731  11.060 -0.7262 -1.2353  0.8884
 2949TIP3    H230263   1.933   0.720  10.928 -0.1503  0.4180  0.4110
 2950TIP3   OH230264   0.892   0.374   4.650  0.0095 -0.3324  0.4429
 2950TIP3    H130265   0.926   0.458   4.680  0.5988 -0.8711  1.3182
 2950TIP3    H230266   0.827   0.397   4.584  2.0939  0.7210 -1.3600
 2951TIP3   OH230267   0.178   1.631  11.271  0.1843 -0.1914 -0.4197
 2951TIP3    H130268   0.230   1.690  11.215 -0.3782 -0.8115 -1.6402
 2951TIP3    H230269   0.164   1.553  11.216  0.4031 -1.2222  0.9386
 2952TIP3   OH230270   5.276   1.688  13.037  0.1711 -0.0713  0.7624
 2952TIP3    H130271   5.316   1.602  13.021  0.4762  0.2259 -0.0917
 2952TIP3    H230272   5.331   1.750  12.988  1.6009  0.9913  3.4651
 2953TIP3   OH230273   5.375   5.839  15.744 -0.0221 -0.5454  0.2826
 2953TIP3    H130274   5.468   5.838  15.768 -0.0580  1.3657  0.6908
 2953TIP3    H230275   5.330   5.802  15.821  0.3371 -0.6323  0.4526
 2954TIP3   OH230276   6.454   3.480  12.301 -0.3710  0.1932 -0.3005
 2954TIP3    H130277   6.524   3.446  12.357 -0.8494 -0.7252 -0.2479
 2954TIP3    H230278   6.474   3.574  12.292  1.1356 -0.1375 -0.6907
 2955TIP3   OH230279   3.511   3.199  12.136 -0.0723 -0.1282  0.3022
 2955TIP3    H130280   3.499   3.152  12.218  0.2191  0.8706  0.9411
 2955TIP3    H230281   3.524   3.290  12.162  2.6540 -0.1490 -0.6534
 2956TIP3   OH230282   5.319   1.573  14.634 -0.3027 -0.0271  0.2011
 2956TIP3    H130283   5.390   1.546  14.692 -0.1738  0.0525  0.0824
 2956TIP3    H230284   5.242   1.525  14.665 -0.2243 -0.0195  0.4069
 2957TIP3   OH230285   0.856   4.225   0.359 -0.2089 -0.0710 -0.3503
 2957TIP3    H130286   0.852   4.279   0.280  0.6475  1.7030  0.7650
 2957TIP3    H230287   0.764   4.208   0.381 -0.4718  0.4211 -1.0527
 2958TIP3   OH230288   0.264   2.289   1.639  0.3621  0.3566 -0.1718
 2958TIP3    H130289   0.347   2.243   1.628  0.2042 -0.0171  0.1966
 2958TIP3    H230290   0.278   2.348   1.713  0.5502  0.8764 -0.6151
 2959TIP3   OH230291   0.899   4.422  16.248  0.0005 -0.1385  0.5465
 2959TIP3    H130292   0.951   4.371  16.185 -0.0485 -0.9836  1.1670
 2959TIP3    H230293   0.838   4.358  16.285  0.2235  0.2801  1.6617
 2960TIP3   OH230294   2.218   6.098   3.076  0.6774  0.6908  0.1506
 2960TIP3    H130295   2.257   6.098   3.163 -2.1844  0.6047  1.5391
 2960TIP3    H230296   2.276   6.042   3.024  3.2425  1.8696  1.5427
 2961TIP3   OH230297   2.640   4.603  12.487 -0.3130  0.0266 -0.3687
 2961TIP3    H130298   2.670   4.515  12.469  0.4771  0.3832 -0.8262
 2961TIP3    H230299   2.675   4.656  12.416 -0.7160  0.7259 -0.0613
 2962TIP3   OH230300   3.575   5.030  12.465 -0.3255 -0.0935  0.1379
 2962TIP3    H130301   3.627   4.995  12.393  0.1915 -0.5068  0.6893
 2962TIP3    H230302   3.640   5.054  12.532 -0.7306  1.1839  0.0949
 2963TIP3   OH230303   6.256   3.026  11.813  0.3397 -0.0306  0.3491
 2963TIP3    H130304   6.177   2.996  11.767 -0.3208  0.7563  0.9356
 2963TIP3    H230305   6.320   2.956  11.799  0.0452  0.0139 -1.4238
 2964TIP3   OH230306   2.095   2.698   3.096 -0.3477  0.0182  0.3517
 2964TIP3    H130307   2.022   2.758   3.109 -0.9865 -0.9839  1.6241
 2964TIP3    H230308   2.088   2.636   3.168  1.5850 -0.2900  0.3368
 2965TIP3   OH230309   1.202   4.851   0.764 -0.4991  0.1421  0.3733
 2965TIP3    H130310   1.161   4.764   0.766  0.6346 -0.4080  2.2947
 2965TIP3    H230311   1.295   4.833   0.750 -0.0906  0.9425  1.8390
 2966TIP3   OH230312   0.006   4.862  16.194  0.6840  0.0564 -1.0635
 2966TIP3    H130313  -0.063   4.927  16.205  0.3760 -0.2952 -0.8871
 2966TIP3    H230314  -0.013   4.820  16.110 -0.8553 -1.8176  0.1372
 2967TIP3   OH230315   6.614   4.349  15.376  0.3427  0.1557 -0.2215
 2967TIP3    H130316   6.604   4.260  15.345  0.9987  0.8619 -2.6578
 2967TIP3    H230317   6.702   4.352  15.414  0.2403 -0.2692  0.0531
 2968TIP3   OH230318   0.076   2.523   3.599 -0.3283 -0.3415  0.7153
 2968TIP3    H130319   0.126   2.449   3.565 -0.8184  0.1871 -1.2836
 2968TIP3    H230320   0.124   2.600   3.570 -0.4417  0.1480  1.7828
 2969TIP3   OH230321   6.120   6.172   4.381  0.0611 -0.6202  0.2817
 2969TIP3    H130322   6.200   6.174   4.434 -1.1437 -1.4521  2.2807
 2969TIP3    H230323   6.146   6.129   4.300  1.5842 -1.1779  1.0215
 2970TIP3   OH230324   5.619   5.110   4.359  0.4522  0.2672  0.1448
 2970TIP3    H130325   5.616   5.022   4.322  2.9956 -0.2472  0.9145
 2970TIP3    H230326   5.597   5.098   4.452 -0.6723  0.7010 -0.0559
 2971TIP3   OH230327   6.551   0.558   1.295 -0.0295 -0.5097 -0.1549
 2971TIP3    H130328   6.572   0.492   1.228  1.4633  0.0018 -0.2302
 2971TIP3    H230329   6.580   0.640   1.257 -0.6968  0.0208  0.4657
 2972TIP3   OH230330   0.423   5.208  11.891  0.3793 -0.1895 -0.3092
 2972TIP3    H130331   0.345   5.246  11.932  0.9144  0.7302 -0.1403
 2972TIP3    H230332   0.463   5.156  11.960 -0.0352 -0.6129 -0.3764
 2973TIP3   OH230333   2.740   5.765   0.936  0.5140  1.2490 -0.0392
 2973TIP3    H130334   2.657   5.775   0.889 -0.0494  1.2540  0.9442
 2973TIP3    H230335   2.722   5.799   1.024  1.8577  2.2663 -0.1228
 2974TIP3   OH230336   3.601   0.214  12.472 -0.4134  0.0238 -0.3807
 2974TIP3    H130337   3.550   0.179  12.399 -2.4371  1.0644  0.4461
 2974TIP3    H230338   3.536   0.235  12.539  1.1459  1.2133  0.8518
 2975TIP3   OH230339   5.503   5.796   4.765  0.2197  0.1411  0.0562
 2975TIP3    H130340   5.592   5.818   4.793  0.1990  1.0888 -0.5706
 2975TIP3    H230341   5.482   5.715   4.812  2.0763 -1.0999 -1.1118
 2976TIP3   OH230342   0.610   0.603  13.796  0.1428  0.5130 -0.0598
 2976TIP3    H130343   0.692   0.571  13.759 -0.2031 -0.1538 -0.2696
 2976TIP3    H230344   0.545   0.589  13.727 -0.2696  0.4270  0.3432
 2977TIP3   OH230345   1.264   6.707   0.381 -0.0649 -0.5170 -0.2121
 2977TIP3    H130346   1.195   6.773   0.379 -0.0495 -0.3873  1.7914
 2977TIP3    H230347   1.221   6.628   0.412  0.0512 -1.3450 -2.0234
 2978TIP3   OH230348   1.798   4.395  15.420 -0.0528  0.5080 -0.0370
 2978TIP3    H130349   1.779   4.409  15.513 -0.5446  0.3485 -0.1061
 2978TIP3    H230350   1.761   4.309  15.401 -0.5604  0.8217 -0.5344
 2979TIP3   OH230351   2.935   3.081   3.024  0.0933 -0.1727 -0.1090
 2979TIP3    H130352   2.965   3.050   2.939  0.4329 -1.4969  0.4723
 2979TIP3    H230353   2.892   3.164   3.006 -0.8196 -0.9628 -1.7324
 2980TIP3   OH230354   4.307   3.228   5.469 -0.1195  0.1082  0.2439
 2980TIP3    H130355   4.399   3.217   5.448  0.0592  0.0323  1.0467
 2980TIP3    H230356   4.273   3.139   5.480 -0.1406  0.1530  0.5569
 2981TIP3   OH230357   5.961   2.270   3.271 -0.0187 -0.2215  0.4221
 2981TIP3    H130358   5.922   2.185   3.291  1.6433 -0.6920  1.8122
 2981TIP3    H230359   6.003   2.258   3.186 -0.5392 -0.5044  0.1976
 2982TIP3   OH230360   0.152   0.344  14.895  0.2995 -0.2615 -0.2759
 2982TIP3    H130361   0.231   0.397  14.886  0.3306 -0.3401 -0.4645
 2982TIP3    H230362   0.117   0.367  14.981 -0.1482  0.6941 -0.7012
 2983TIP3   OH230363   2.151   6.284  16.987 -0.1672  0.6243 -0.2305
 2983TIP3    H130364   2.083   6.245  16.932  0.4172  1.0915 -1.3085
 2983TIP3    H230365   2.154   6.376  16.961  0.0524  0.8820  0.6660
 2984TIP3   OH230366   6.184   5.732  10.625 -0.3765 -0.0527  0.4292
 2984TIP3    H130367   6.119   5.784  10.577  3.4704  2.7724 -2.3821
 2984TIP3    H230368   6.175   5.761  10.716 -1.2117  2.4157 -0.3350
 2985TIP3   OH230369   6.218   1.922  16.966  0.5873  0.0214  0.3413
 2985TIP3    H130370   6.163   1.900  17.041 -0.6345 -1.7198 -0.9756
 2985TIP3    H230371   6.239   1.837  16.927  0.1684  0.9283 -1.9720
 2986TIP3   OH230372   1.143   1.719  13.391  0.0786 -0.2202  0.0912
 2986TIP3    H130373   1.055   1.741  13.423  0.0126 -0.8517  0.3681
 2986TIP3    H230374   1.155   1.627  13.417  1.1134  0.0770  0.7140
 2987TIP3   OH230375   6.094   6.156   2.967  0.2219  0.2411  0.4822
 2987TIP3    H130376   6.016   6.210   2.977  0.4426  0.4062  1.4658
 2987TIP3    H230377   6.115   6.161   2.874 -2.1992 -1.5899 -0.2827
 2988TIP3   OH230378   3.170   3.652   3.686  0.4767  0.1540  0.1591
 2988TIP3    H130379   3.249   3.608   3.717  0.7930  0.7670  0.2327
 2988TIP3    H230380   3.194   3.687   3.600  0.5240  0.9918  0.5123
 2989TIP3   OH230381   0.369   0.123   3.522  0.4445 -0.3459 -0.3077
 2989TIP3    H130382   0.391   0.202   3.472  0.8137  0.5643  1.2413
 2989TIP3    H230383   0.273   0.122   3.524  0.4106 -0.6326 -1.3713
 2990TIP3   OH230384   6.469   3.866   2.937 -0.2943 -0.4751  0.3629
 2990TIP3    H130385   6.500   3.938   2.992  0.1114  0.3886 -0.9549
 2990TIP3    H230386   6.494   3.787   2.984  0.4659  0.2401  1.1855
 2991TIP3   OH230387   4.892   1.926   3.717 -0.2208  0.1583  0.5102
 2991TIP3    H130388   4.878   1.835   3.745 -0.9967 -0.0436 -0.4452
 2991TIP3    H230389   4.922   1.918   3.627 -0.5646  0.8547  0.3293
 2992TIP3   OH230390   0.362   4.424   3.323 -0.0124 -0.4557 -0.6816
 2992TIP3    H130391   0.331   4.391   3.238  0.9477 -1.3111 -0.7135
 2992TIP3    H230392   0.283   4.432   3.376 -0.3698 -2.0925 -0.9342
 2993TIP3   OH230393   5.705   2.650   1.352  0.4379 -0.2747  0.0355
 2993TIP3    H130394   5.714   2.732   1.304  0.1905 -0.2092  0.1006
 2993TIP3    H230395   5.677   2.586   1.286  2.5996 -0.7964 -0.4654
 2994TIP3   OH230396   0.007   2.086  12.020 -0.0139 -0.1230  0.1937
 2994TIP3    H130397   0.053   2.124  12.094 -0.7743  0.6485  0.2877
 2994TIP3    H230398   0.003   2.156  11.954  0.5760 -0.7677 -0.5501
 2995TIP3   OH230399   0.726   0.149  15.650 -0.4450  0.6171  0.1586
 2995TIP3    H130400   0.810   0.174  15.612  0.6017  0.2231  2.0580
 2995TIP3    H230401   0.687   0.090  15.586  0.7912  0.7046 -0.7122
 2996TIP3   OH230402   5.234   3.247   3.761  0.2373  0.3145 -0.2951
 2996TIP3    H130403   5.139   3.259   3.761  0.3529  1.7580 -2.2793
 2996TIP3    H230404   5.268   3.330   3.794  0.8279 -0.3938  0.9257
 2997TIP3   OH230405   2.127   1.763   5.483  0.7375  0.4543 -0.2684
 2997TIP3    H130406   2.206   1.714   5.505 -0.9968 -2.2442  0.3615
 2997TIP3    H230407   2.142   1.793   5.394  2.0620 -0.9206 -0.5509
 2998TIP3   OH230408   6.683   6.507   3.991 -0.0509 -0.0933 -0.1734
 2998TIP3    H130409   6.735   6.585   4.009 -0.2728  0.3324 -1.2606
 2998TIP3    H230410   6.601   6.541   3.954 -0.7505 -0.7918  0.6987
 2999TIP3   OH230411   3.225   3.883   4.045  0.8055  0.7268  0.1007
 2999TIP3    H130412   3.153   3.918   4.098  2.8681  0.8596  3.1086
 2999TIP3    H230413   3.289   3.954   4.044  1.6522 -0.0351 -0.8874
 3000TIP3   OH230414   2.659   1.877  14.450 -0.2233  0.0156  0.0030
 3000TIP3    H130415   2.606   1.803  14.418 -0.8625  1.0995 -1.5902
 3000TIP3    H230416   2.740   1.837  14.481  0.1558 -1.2542 -2.3747
 3001TIP3   OH230417   0.905   2.205  14.634 -0.0493  0.4850 -0.4828
 3001TIP3    H130418   0.917   2.288  14.588 -0.4764  0.8844  0.1124
 3001TIP3    H230419   0.840   2.158  14.582  0.0601  0.5985 -0.7249
 3002TIP3   OH230420   1.615   5.528   3.142  0.8315 -1.0566  0.2658
 3002TIP3    H130421   1.686   5.507   3.202  0.9824 -1.5310 -0.0694
 3002TIP3    H230422   1.546   5.466   3.163  0.6797 -0.8731  0.3091
 3003TIP3   OH230423   2.907   4.300  10.880  0.6138  0.0687 -0.6097
 3003TIP3    H130424   2.910   4.392  10.903  0.2564  0.1997 -1.0884
 3003TIP3    H230425   2.826   4.289  10.832 -0.2774 -0.8676  0.9965
 3004TIP3   OH230426   3.656   0.699   1.544  0.0396 -0.1308  0.2751
 3004TIP3    H130427   3.723   0.755   1.583 -0.5007  0.4094  0.4615
 3004TIP3    H230428   3.700   0.654   1.472 -0.1419  2.6153 -1.7222
 3005TIP3   OH230429   1.324   1.107  12.435  0.1674  0.3174 -0.0702
 3005TIP3    H130430   1.229   1.106  12.432  0.0653 -3.7530 -1.9357
 3005TIP3    H230431   1.350   1.167  12.366 -0.9998  1.2162  0.2418
 3006TIP3   OH230432   6.067   1.988  13.187  0.3373  0.2901  0.2768
 3006TIP3    H130433   5.974   2.007  13.181  0.8593  3.2157 -0.3828
 3006TIP3    H230434   6.090   1.949  13.102  0.0020  1.2721 -0.2808
 3007TIP3   OH230435   3.133   4.386   5.814 -0.3700 -0.5833 -0.1897
 3007TIP3    H130436   3.166   4.296   5.826 -1.1215 -0.7552  0.6974
 3007TIP3    H230437   3.085   4.405   5.895 -1.8024 -0.0741 -1.1236
 3008TIP3   OH230438   0.707   3.328   2.396 -0.4820  0.5924 -0.5067
 3008TIP3    H130439   0.802   3.316   2.389 -0.4378  0.3187  0.4679
 3008TIP3    H230440   0.697   3.413   2.439 -0.6861  0.6836 -0.7327
 3009TIP3   OH230441   0.233   3.242  14.536 -0.2381  0.0700  0.1606
 3009TIP3    H130442   0.223   3.147  14.524 -0.0858  0.1464 -0.6239
 3009TIP3    H230443   0.145   3.272  14.560 -0.3616 -0.2222  0.0836
 3010TIP3   OH230444   5.915   1.436   3.261 -0.3711 -0.3048 -0.1483
 3010TIP3    H130445   5.913   1.358   3.206 -2.0220 -0.9806  0.7937
 3010TIP3    H230446   5.886   1.507   3.203  0.2050 -0.5497 -0.7515
 3011TIP3   OH230447   1.198   1.360   5.588 -0.0891  0.3040 -0.0111
 3011TIP3    H130448   1.219   1.336   5.498  0.4100  0.5431  0.0394
 3011TIP3    H230449   1.148   1.441   5.580  0.7580  0.8365 -0.0312
 3012TIP3   OH230450   5.046   2.693  14.907  0.3182  0.4457 -0.1187
 3012TIP3    H130451   5.115   2.721  14.847 -0.6389 -1.5168 -2.3474
 3012TIP3    H230452   5.025   2.604  14.878 -3.1287  0.9411  0.3858
 3013TIP3   OH230453   6.756   3.670  17.041 -0.2381 -0.1525 -0.0114
 3013TIP3    H130454   6.803   3.652  17.123  0.7598 -2.1629 -0.9711
 3013TIP3    H230455   6.664   3.659  17.064  0.0316 -0.7337  0.8536
 3014TIP3   OH230456   0.964   5.333   1.206  0.4346  0.1773  0.1290
 3014TIP3    H130457   1.037   5.308   1.149 -0.6093 -0.8991 -0.7772
 3014TIP3    H230458   0.886   5.318   1.153 -0.4649  1.2596  1.1009
 3015TIP3   OH230459   2.909   4.783   2.726 -0.1974  0.1060 -0.3459
 3015TIP3    H130460   2.885   4.842   2.654  0.2420  2.0507  1.0277
 3015TIP3    H230461   2.857   4.813   2.800  2.4580  1.0094  1.2861
 3016TIP3   OH230462   1.971   2.703  13.056  0.6065  0.3832  0.0194
 3016TIP3    H130463   1.885   2.685  13.094  0.4896 -1.7175 -1.0488
 3016TIP3    H230464   1.952   2.731  12.966  1.0199 -0.8176 -0.4656
 3017TIP3   OH230465   4.297   4.250  15.737 -0.2302  0.0429  0.5097
 3017TIP3    H130466   4.287   4.161  15.702  1.4118 -0.8493  2.0684
 3017TIP3    H230467   4.351   4.295  15.673  0.3985 -0.6751  0.5154
 3018TIP3   OH230468   0.223   5.655  11.254  0.2327  0.4419 -0.1523
 3018TIP3    H130469   0.280   5.665  11.178 -0.5702 -0.5085 -0.9170
 3018TIP3    H230470   0.189   5.565  11.247  0.4425  0.1922  1.5526
 3019TIP3   OH230471   4.301   5.265  16.046  0.0117  0.1350 -0.3495
 3019TIP3    H130472   4.265   5.188  16.004 -0.7723 -0.5155  1.4171
 3019TIP3    H230473   4.295   5.246  16.140  3.3000  0.7648  0.0904
 3020TIP3   OH230474   2.484   6.634   6.578 -0.1485  0.0230  0.2942
 3020TIP3    H130475   2.406   6.687   6.594 -0.6788 -1.0072  1.3442
 3020TIP3    H230476   2.450   6.549   6.550  0.5752 -0.5127  0.9853
 3021TIP3   OH230477   5.223   2.342   3.448 -0.6943 -0.0686  0.4519
 3021TIP3    H130478   5.281   2.336   3.372 -0.7047 -1.3762  0.5281
 3021TIP3    H230479   5.134   2.341   3.410 -0.6924 -0.2670  0.4507
 3022TIP3   OH230480   4.878   5.896   2.241  0.9244  0.1285 -0.5411
 3022TIP3    H130481   4.785   5.891   2.218  1.0844  0.1054 -1.2118
 3022TIP3    H230482   4.889   5.830   2.309  0.5614 -0.2581 -0.8457
 3023TIP3   OH230483   4.788   1.682   5.769  0.1032  0.5740  0.5827
 3023TIP3    H130484   4.818   1.765   5.806 -0.2175  0.9042  0.1042
 3023TIP3    H230485   4.857   1.620   5.794  0.5048  1.0435  0.6789
 3024TIP3   OH230486   0.187   4.067   2.916  0.1391  0.2776 -0.1213
 3024TIP3    H130487   0.154   3.978   2.916  0.1259  0.2635  1.1180
 3024TIP3    H230488   0.125   4.116   2.862  0.6169 -0.6026 -1.5141
 3025TIP3   OH230489   5.165   3.187   6.307 -0.4613 -0.1138  0.5711
 3025TIP3    H130490   5.079   3.220   6.332 -0.7239  0.7717 -1.3056
 3025TIP3    H230491   5.152   3.093   6.292 -1.3293  0.1658 -0.5314
 3026TIP3   OH230492   0.866   1.620  13.943  0.1424  0.1083  0.1766
 3026TIP3    H130493   0.776   1.641  13.918 -0.3404 -1.0979  0.8292
 3026TIP3    H230494   0.910   1.603  13.860 -0.6181 -0.7140 -0.0754
 3027TIP3   OH230495   6.790   4.770   1.494  0.0425 -0.3201 -0.4815
 3027TIP3    H130496   6.881   4.767   1.464  0.7637 -0.3102  1.5628
 3027TIP3    H230497   6.762   4.678   1.496  1.2340 -0.7252  2.1963
 3028TIP3   OH230498   2.965   3.639   6.369  0.0073 -0.3602  0.1421
 3028TIP3    H130499   2.941   3.636   6.462  0.2975 -2.0553  0.1977
 3028TIP3    H230500   3.037   3.702   6.366 -2.9626  3.4132  0.2475
 3029TIP3   OH230501   2.228   3.871  14.377  0.1914  0.0995 -0.1442
 3029TIP3    H130502   2.215   3.966  14.382 -0.5684  0.0083 -0.2872
 3029TIP3    H230503   2.199   3.838  14.462  0.8723  0.0290  0.0721
 3030TIP3   OH230504   0.558   2.291  12.234  0.1288  0.3672 -0.0980
 3030TIP3    H130505   0.490   2.280  12.168 -0.0245 -1.3576  0.2796
 3030TIP3    H230506   0.640   2.289  12.185 -0.0085 -0.2876 -0.3150
 3031TIP3   OH230507   4.187   5.335  14.111  0.7640  0.0625 -1.0252
 3031TIP3    H130508   4.124   5.280  14.159  0.3598  0.6338 -0.8840
 3031TIP3    H230509   4.132   5.386  14.051  1.0830  0.6646 -0.8084
 3032TIP3   OH230510   4.722   2.084   5.567 -0.6380  0.1272 -0.0870
 3032TIP3    H130511   4.790   2.143   5.535 -0.9353  0.5097 -0.0124
 3032TIP3    H230512   4.720   2.098   5.662 -1.2233  0.5474 -0.1560
 3033TIP3   OH230513   5.240   5.145   0.419 -0.2421  0.3278 -0.2171
 3033TIP3    H130514   5.166   5.137   0.360  0.1524  0.3897 -0.7282
 3033TIP3    H230515   5.315   5.163   0.362 -0.0351  1.4490  0.3706
 3034TIP3   OH230516   6.134   0.800  15.394 -0.2006  0.1377  0.6017
 3034TIP3    H130517   6.152   0.770  15.483  1.3140  0.9536  0.5925
 3034TIP3    H230518   6.090   0.725  15.353  0.6513 -0.9071  1.5101
 3035TIP3   OH230519   5.191   1.951  11.454  0.5983  0.3350  0.0093
 3035TIP3    H130520   5.190   2.044  11.435  0.3816  0.1896 -0.7532
 3035TIP3    H230521   5.193   1.909  11.368  0.0100 -0.3667  0.3180
 3036TIP3   OH230522   1.775   2.032  11.372 -0.1666  0.1106 -0.5052
 3036TIP3    H130523   1.720   1.957  11.352 -0.6688  0.4455 -0.4039
 3036TIP3    H230524   1.865   2.002  11.355 -0.1678 -1.1372  1.3892
 3037TIP3   OH230525   1.132   0.939  15.832  0.1733 -0.6357  0.3309
 3037TIP3    H130526   1.091   0.853  15.837  0.5045 -0.8649 -0.6420
 3037TIP3    H230527   1.215   0.924  15.786 -0.1524  0.3264 -0.6237
 3038TIP3   OH230528   0.195   0.334  12.759  0.3144  0.1491  0.3455
 3038TIP3    H130529   0.186   0.373  12.672 -0.2134 -0.2875  0.1943
 3038TIP3    H230530   0.236   0.250  12.744 -0.5554 -0.3015  0.4121
 3039TIP3   OH230531   2.041   4.484   4.561  0.0547 -0.1403 -0.3002
 3039TIP3    H130532   2.030   4.549   4.493  0.3270 -0.5617 -0.7527
 3039TIP3    H230533   1.970   4.502   4.623  0.4860  0.9565 -0.1011
 3040TIP3   OH230534   2.095   4.187  14.659  0.2755 -0.1879  0.2827
 3040TIP3    H130535   2.000   4.181  14.646  0.2868 -1.9584  0.7791
 3040TIP3    H230536   2.105   4.258  14.723 -0.8471 -0.9487  1.3598
 3041TIP3   OH230537   3.853   0.079   0.374  0.0246  0.3137 -0.4682
 3041TIP3    H130538   3.870   0.120   0.289 -2.6899  1.8693 -0.3941
 3041TIP3    H230539   3.789   0.011   0.355  1.7900 -1.5531 -0.0474
 3042TIP3   OH230540   0.283   3.408   5.726  0.1637 -0.2043 -0.3687
 3042TIP3    H130541   0.220   3.344   5.692 -0.8595  0.5360  0.0846
 3042TIP3    H230542   0.261   3.490   5.681  1.0127 -0.0029 -0.4320
 3043TIP3   OH230543   2.951   3.114   1.976 -0.3166 -0.0531 -0.3713
 3043TIP3    H130544   2.990   3.130   2.062  1.1540  0.7778 -1.1500
 3043TIP3    H230545   2.897   3.191   1.959 -1.1374 -0.5199  0.0721
 3044TIP3   OH230546   3.075   1.818  13.045 -0.1969  0.1498 -0.4123
 3044TIP3    H130547   3.167   1.844  13.051  0.6421 -2.6647  0.3051
 3044TIP3    H230548   3.069   1.768  12.964 -0.7448 -0.8534  0.2213
 3045TIP3   OH230549   0.990   0.831  13.913  0.8797  0.0544  0.1113
 3045TIP3    H130550   0.914   0.876  13.877  0.0159 -2.7234 -1.8253
 3045TIP3    H230551   0.977   0.835  14.008 -1.7010 -0.3207 -0.1683
 3046TIP3   OH230552   1.982   6.430   2.451  0.2173 -0.4233  0.2585
 3046TIP3    H130553   2.074   6.446   2.433  0.6196 -0.9832  1.6806
 3046TIP3    H230554   1.947   6.393   2.370  0.3175  3.1200 -1.5839
 3047TIP3   OH230555   1.430   5.916  15.760  0.6859 -0.2123 -0.7272
 3047TIP3    H130556   1.345   5.908  15.718  0.5106  0.7206 -0.5738
 3047TIP3    H230557   1.461   5.826  15.770 -1.1444 -0.7405  0.9881
 3048TIP3   OH230558   4.767   6.448   0.752  0.2210  0.2745 -0.3520
 3048TIP3    H130559   4.788   6.478   0.663 -0.9914 -0.0227 -0.7613
 3048TIP3    H230560   4.786   6.355   0.751  0.6236  0.3554 -0.1673
 3049TIP3   OH230561   6.554   4.250   5.306  0.4648 -0.2541 -0.2382
 3049TIP3    H130562   6.479   4.249   5.365  0.8553  1.6566  0.3539
 3049TIP3    H230563   6.517   4.228   5.220 -0.7953  0.6707  0.0293
 3050TIP3   OH230564   5.620   4.647   6.229 -0.3363 -0.2854 -0.2738
 3050TIP3    H130565   5.533   4.609   6.241  0.3639 -1.9836 -0.3809
 3050TIP3    H230566   5.667   4.624   6.309  0.0823  0.4721 -0.2944
 3051TIP3   OH230567   4.804   1.985  10.618 -0.3752 -0.1176 -0.6271
 3051TIP3    H130568   4.888   2.005  10.658 -1.4212 -0.3945  1.9071
 3051TIP3    H230569   4.763   2.070  10.605 -0.4784 -0.0663 -0.0063
 3052TIP3   OH230570   5.986   4.622   4.050 -0.2495  0.8908 -0.2123
 3052TIP3    H130571   5.951   4.578   4.127  0.8904 -0.1435 -0.2548
 3052TIP3    H230572   5.989   4.715   4.074 -0.1584  0.6104  0.8859
 3053TIP3   OH230573   2.918   6.114   2.326  0.4174 -0.1502  0.1269
 3053TIP3    H130574   2.844   6.078   2.278 -0.6653 -0.2763  1.8070
 3053TIP3    H230575   2.890   6.202   2.352  0.6694 -0.3562  1.1347
 3054TIP3   OH230576   5.027   2.896  11.111  0.6346 -0.0187  0.1825
 3054TIP3    H130577   4.974   2.894  11.031  1.9133  0.3489 -0.7018
 3054TIP3    H230578   4.977   2.844  11.173 -1.3420  1.2577 -0.2270
 3055TIP3   OH230579   5.347   5.877   6.172  0.7069 -0.0773  0.3816
 3055TIP3    H130580   5.297   5.875   6.253 -1.3712  1.4030 -0.7794
 3055TIP3    H230581   5.341   5.788   6.137 -1.9923  0.2307 -0.1586
 3056TIP3   OH230582   3.721   5.651   3.149 -0.4966  0.5559  0.5446
 3056TIP3    H130583   3.793   5.667   3.089  0.9956 -1.5763  1.6435
 3056TIP3    H230584   3.661   5.725   3.135  0.3211  0.7470 -2.6679
 3057TIP3   OH230585   4.150   4.957  12.779 -0.2734  0.3735  0.2335
 3057TIP3    H130586   4.159   4.913  12.695 -2.3338  1.1362 -0.4433
 3057TIP3    H230587   4.208   5.032  12.774 -0.3662  0.3988 -0.5031
 3058TIP3   OH230588   4.758   1.798  15.464 -0.1507 -0.3781 -0.0144
 3058TIP3    H130589   4.780   1.885  15.430 -1.2320 -0.4126 -0.8614
 3058TIP3    H230590   4.667   1.805  15.491  0.0132 -1.0169  0.7354
 3059TIP3   OH230591   6.250   5.935  10.898  0.7583  0.4132 -0.0013
 3059TIP3    H130592   6.306   6.003  10.860 -1.2427  1.6212 -0.9511
 3059TIP3    H230593   6.241   5.960  10.990  1.4563  0.4331  0.0625
 3060TIP3   OH230594   1.480   3.285  15.586 -0.1247  0.1238  0.3707
 3060TIP3    H130595   1.414   3.218  15.605 -0.5083  0.8162  1.5509
 3060TIP3    H230596   1.491   3.281  15.491 -0.6217 -1.1552  0.3469
 3061TIP3   OH230597   1.901   2.607   5.005  0.5202 -0.1844 -0.2964
 3061TIP3    H130598   1.996   2.613   5.003  0.7586 -2.6579 -2.4405
 3061TIP3    H230599   1.879   2.547   4.933 -2.6176 -0.1769  0.4898
 3062TIP3   OH230600   0.503   6.474   1.782  0.7382  0.0643 -0.1349
 3062TIP3    H130601   0.517   6.415   1.856  0.7799  0.1132 -0.1038
 3062TIP3    H230602   0.504   6.416   1.705  1.0668  0.0598 -0.1290
 3063TIP3   OH230603   3.459   4.713   3.870  0.1089 -0.0460 -0.3686
 3063TIP3    H130604   3.536   4.760   3.838  0.1139  0.4954  0.3982
 3063TIP3    H230605   3.431   4.659   3.797  2.3916 -1.7976 -0.0712
 3064TIP3   OH230606   5.918   2.131  17.150 -0.0422  0.7006 -0.5286
 3064TIP3    H130607   5.996   2.185  17.137  0.4051 -0.1121 -1.2555
 3064TIP3    H230608   5.856   2.189  17.195  0.8811  1.4305 -0.1777
 3065TIP3   OH230609   3.999   3.258   5.985  0.3280 -0.2107 -0.5844
 3065TIP3    H130610   3.964   3.347   5.986 -0.5407 -0.5430 -0.1046
 3065TIP3    H230611   4.093   3.269   5.992  0.1577  0.6464  0.6222
 3066TIP3   OH230612   5.234   4.043  11.328 -0.0736 -0.0612  0.4809
 3066TIP3    H130613   5.166   4.009  11.269 -0.8008 -1.3116  1.9835
 3066TIP3    H230614   5.188   4.060  11.410  1.4368 -1.1683  1.6215
 3067TIP3   OH230615   6.048   3.370  16.432  0.1935 -0.0216  0.2045
 3067TIP3    H130616   6.036   3.396  16.524  0.2637  1.1311 -0.1068
 3067TIP3    H230617   6.121   3.424  16.401 -0.4838  0.3289 -0.8181
 3068TIP3   OH230618   2.973   5.548  11.446  0.5506 -0.4078  0.2968
 3068TIP3    H130619   3.041   5.615  11.447  0.3612 -0.2160  1.3743
 3068TIP3    H230620   2.904   5.585  11.391  0.7692 -0.0394  0.2648
 3069TIP3   OH230621   3.133   4.995   5.571  0.0628  0.6627  0.5750
 3069TIP3    H130622   3.136   5.066   5.506  1.8293 -0.4909 -0.7043
 3069TIP3    H230623   3.095   5.035   5.649 -0.0516  2.7061 -0.4616
 3070TIP3   OH230624   4.687   3.737   1.091 -0.0122 -0.1849 -0.3084
 3070TIP3    H130625   4.682   3.788   1.009 -1.0554 -0.7310 -0.5935
 3070TIP3    H230626   4.677   3.646   1.063  1.4336 -0.5504  0.2461
 3071TIP3   OH230627   4.355   0.569  11.716 -0.2381  0.1638 -0.1300
 3071TIP3    H130628   4.446   0.537  11.718  0.0802  1.0459  0.0024
 3071TIP3    H230629   4.311   0.518  11.783  0.3066  0.1265  0.2101
 3072TIP3   OH230630   4.370   1.534  14.941  0.6793 -0.1172  0.2910
 3072TIP3    H130631   4.415   1.466  14.990  0.9554  0.6364  1.1037
 3072TIP3    H230632   4.440   1.588  14.905  0.4601 -0.1486 -0.1947
 3073TIP3   OH230633   3.640   5.614   2.167 -0.1016 -0.4345  0.1085
 3073TIP3    H130634   3.618   5.557   2.094 -1.5888  0.3461 -0.0915
 3073TIP3    H230635   3.711   5.669   2.134 -0.4189 -0.4279 -0.5804
 3074TIP3   OH230636   3.222   4.904   4.788  0.0218 -0.3595  0.1345
 3074TIP3    H130637   3.189   4.891   4.699 -1.7734 -0.9852  0.8409
 3074TIP3    H230638   3.294   4.840   4.797  0.1954 -0.3110 -0.8364
 3075TIP3   OH230639   4.338   3.413   5.688 -0.2419 -0.2357 -0.2214
 3075TIP3    H130640   4.305   3.344   5.630 -0.0105 -0.8550  0.3614
 3075TIP3    H230641   4.430   3.422   5.666 -0.2621 -0.1537 -0.2683
 3076TIP3   OH230642   3.457   6.557  12.272 -0.6617 -0.3254  0.1101
 3076TIP3    H130643   3.392   6.554  12.341 -0.1988 -2.0447  0.5084
 3076TIP3    H230644   3.413   6.522  12.195 -0.2669 -1.3867  0.3524
 3077TIP3   OH230645   5.215   0.077  14.134  0.6972 -0.2211 -0.4713
 3077TIP3    H130646   5.237   0.031  14.215 -1.3347  0.0301  0.2756
 3077TIP3    H230647   5.297   0.077  14.084  2.0225 -0.3749  1.5640
 3078TIP3   OH230648   3.490   3.378   4.154 -0.7741  0.2309  0.3482
 3078TIP3    H130649   3.506   3.327   4.075  0.3204  1.4630 -0.2643
 3078TIP3    H230650   3.573   3.423   4.171 -1.6446  1.6972  0.9228
 3079TIP3   OH230651   4.044   1.080   1.738 -0.4633 -0.3714  0.0982
 3079TIP3    H130652   4.122   1.048   1.784 -0.1494 -0.1375 -0.2681
 3079TIP3    H230653   4.073   1.096   1.648 -1.1557 -1.1854 -0.2925
 3080TIP3   OH230654   2.297   5.250  11.572 -0.1955 -0.3329  0.6601
 3080TIP3    H130655   2.305   5.306  11.650 -0.9452  0.9746 -0.1558
 3080TIP3    H230656   2.205   5.257  11.547 -0.1325 -1.3535  0.0898
 3081TIP3   OH230657   4.710   3.010  16.198  0.0804 -0.1827 -0.7801
 3081TIP3    H130658   4.787   2.991  16.251 -0.1332  1.1311  0.0591
 3081TIP3    H230659   4.721   3.101  16.171 -0.0264 -0.7046 -2.6840
 3082TIP3   OH230660   2.358   3.949   5.975 -0.4292  0.0030  0.5051
 3082TIP3    H130661   2.354   3.871   6.030  1.0995 -0.3070  0.2280
 3082TIP3    H230662   2.419   3.926   5.905  0.7435  1.7226  0.8948
 3083TIP3   OH230663   6.475   2.397   4.002  0.3020 -0.7413 -0.5503
 3083TIP3    H130664   6.540   2.453   4.045  0.4729 -0.5174 -1.0826
 3083TIP3    H230665   6.526   2.325   3.966  0.1332 -1.0369 -0.2003
 3084TIP3   OH230666   4.308   5.844  11.694  0.2320 -0.2580  0.1960
 3084TIP3    H130667   4.384   5.903  11.689  0.4155 -0.5576 -2.9273
 3084TIP3    H230668   4.259   5.875  11.770  2.3577  1.3544  1.0261
 3085TIP3   OH230669   3.201   5.605   4.066 -0.0050 -0.2641 -0.1181
 3085TIP3    H130670   3.280   5.640   4.107  0.9218 -0.2012 -1.8939
 3085TIP3    H230671   3.203   5.512   4.086 -0.3927 -0.0059  1.2487
 3086TIP3   OH230672   2.221   4.133  15.936 -0.4141 -0.5833 -0.5492
 3086TIP3    H130673   2.237   4.136  15.841  0.2877  0.5616 -0.4225
 3086TIP3    H230674   2.288   4.074  15.969  0.3731  0.2379 -0.6127
 3087TIP3   OH230675   3.305   1.834  14.645 -0.2168  0.1969 -0.1061
 3087TIP3    H130676   3.353   1.760  14.683 -0.2088 -1.1255 -2.4595
 3087TIP3    H230677   3.256   1.795  14.572 -4.2148  1.6112  1.5500
 3088TIP3   OH230678   2.542   3.054   0.019  0.2878 -0.1651 -0.0755
 3088TIP3    H130679   2.516   3.125  -0.039 -1.2794 -0.2387  0.4970
 3088TIP3    H230680   2.475   3.052   0.088  1.7075 -0.5266  1.3719
 3089TIP3   OH230681   0.212   1.875  13.349 -0.0473  0.2401  0.1635
 3089TIP3    H130682   0.156   1.879  13.271  0.9349  0.1828 -0.5737
 3089TIP3    H230683   0.278   1.943  13.334  2.0633 -1.8406 -0.6231
 3090TIP3   OH230684   4.456   1.632  11.622 -0.3610  0.2460 -0.0665
 3090TIP3    H130685   4.466   1.719  11.660 -2.0154 -0.2335  1.5906
 3090TIP3    H230686   4.393   1.644  11.551  2.2260  1.0155 -2.3956
 3091TIP3   OH230687   0.310   1.482   0.836 -0.4116 -0.1773 -0.4251
 3091TIP3    H130688   0.284   1.550   0.899 -1.1031  0.4844 -1.3915
 3091TIP3    H230689   0.404   1.471   0.850 -0.4787  0.2348  0.4527
 3092TIP3   OH230690   6.194   1.684  16.833 -0.2553 -0.1217 -0.8155
 3092TIP3    H130691   6.226   1.679  16.743  0.1166 -0.1895 -0.6814
 3092TIP3    H230692   6.155   1.598  16.849  1.4086 -0.8160 -0.2757
 3093TIP3   OH230693   4.558   3.124   2.363 -0.1937  0.2037 -0.4625
 3093TIP3    H130694   4.564   3.211   2.400  0.0300  0.0187 -0.0594
 3093TIP3    H230695   4.589   3.134   2.272 -2.1448  0.9407 -1.0852
 3094TIP3   OH230696   5.882   5.677   2.167 -0.3663 -0.2507 -0.3095
 3094TIP3    H130697   5.907   5.729   2.243 -0.0190  0.0297 -0.6082
 3094TIP3    H230698   5.926   5.593   2.180  0.4109  0.0951 -0.6189
 3095TIP3   OH230699   1.813   1.009  15.300 -0.7180  0.9868 -0.4656
 3095TIP3    H130700   1.719   1.010  15.278 -0.4142  2.8342 -1.9776
 3095TIP3    H230701   1.825   1.086  15.355  0.0373  1.1581 -0.8669
 3096TIP3   OH230702   1.729   2.916   6.172 -0.8084 -0.6598 -0.5083
 3096TIP3    H130703   1.634   2.928   6.169 -0.7936  0.2684  1.2464
 3096TIP3    H230704   1.753   2.939   6.261  1.1755 -0.1286 -1.1274
 3097TIP3   OH230705   3.254   5.942  13.455 -0.4581 -0.2013  0.3360
 3097TIP3    H130706   3.328   5.953  13.514  0.1986 -2.0829 -0.0655
 3097TIP3    H230707   3.181   5.987  13.499  0.3434 -0.3292  1.8684
 3098TIP3   OH230708   4.753   3.726   5.020  0.2819  0.5344 -0.5761
 3098TIP3    H130709   4.707   3.645   4.998  0.6678 -0.0111  0.5708
 3098TIP3    H230710   4.794   3.753   4.937 -0.5860  0.0506 -1.1757
 3099TIP3   OH230711   0.656   6.187   0.955 -0.4893  0.4047  0.5849
 3099TIP3    H130712   0.704   6.120   1.004  0.1820 -0.1620 -0.7736
 3099TIP3    H230713   0.618   6.243   1.022  0.6853 -0.1166  1.7432
 3100TIP3   OH230714   1.698   0.509   4.033  0.3566  0.3379  0.1612
 3100TIP3    H130715   1.611   0.479   4.061  0.1939  0.4698 -0.1936
 3100TIP3    H230716   1.756   0.437   4.056  0.1526  0.2475  0.4015
 3101TIP3   OH230717   6.634   3.829   0.506  0.5731  0.2968  0.1961
 3101TIP3    H130718   6.569   3.828   0.576 -0.8362  0.5171 -1.0584
 3101TIP3    H230719   6.650   3.922   0.490  0.9407  0.2462  0.2632
 3102TIP3   OH230720   6.392   5.184   4.300  0.5757  0.3734 -0.2225
 3102TIP3    H130721   6.384   5.130   4.379 -0.7377 -0.3622 -0.8159
 3102TIP3    H230722   6.468   5.147   4.254 -0.5532 -1.3392 -0.8302
 3103TIP3   OH230723   0.006   3.711   1.581  0.5553 -0.5208  0.4560
 3103TIP3    H130724   0.074   3.778   1.583  1.5956 -1.5300  0.3936
 3103TIP3    H230725   0.018   3.668   1.496 -0.5218 -0.3627  0.2127
 3104TIP3   OH230726   5.892   2.550  14.356  0.4823  0.1900 -0.5751
 3104TIP3    H130727   5.872   2.590  14.272  1.9572  2.2233 -0.0358
 3104TIP3    H230728   5.936   2.468  14.333  1.6008  1.0986 -1.8398
 3105TIP3   OH230729   5.743   1.429   2.083 -0.0141 -0.2529 -0.2106
 3105TIP3    H130730   5.684   1.361   2.114  0.6341 -0.5331  0.4193
 3105TIP3    H230731   5.698   1.511   2.104  0.1887 -0.4467  1.0285
 3106TIP3   OH230732   6.034   2.388  11.196 -0.0826  0.3269 -0.3951
 3106TIP3    H130733   6.037   2.331  11.120 -0.7205  0.6551 -0.6756
 3106TIP3    H230734   6.125   2.412  11.213  0.2504 -1.1563  0.0293
 3107TIP3   OH230735   3.622   1.369  11.111 -0.3678 -0.3402  0.6258
 3107TIP3    H130736   3.620   1.282  11.071 -0.5628 -0.3149  0.5810
 3107TIP3    H230737   3.711   1.401  11.095 -0.5055 -0.2407  0.0244
 3108TIP3   OH230738   3.868   2.143  15.258 -0.0005 -0.2584 -0.2691
 3108TIP3    H130739   3.796   2.119  15.316 -0.1652  0.4037 -0.2002
 3108TIP3    H230740   3.891   2.060  15.215 -2.0093 -0.1751 -1.6527
 3109TIP3   OH230741   0.444   0.005  15.984 -0.0750  0.0378  0.3063
 3109TIP3    H130742   0.393   0.007  16.064 -2.2410  0.3142 -1.0160
 3109TIP3    H230743   0.442  -0.086  15.956  1.1409 -0.1640  0.8085
 3110TIP3   OH230744   2.611   4.286  16.304 -0.2864  0.0184  0.3780
 3110TIP3    H130745   2.673   4.313  16.236  0.2260  0.3160  0.9455
 3110TIP3    H230746   2.530   4.330  16.282 -0.2489 -0.2393 -0.2843
 3111TIP3   OH230747   0.827   5.059  12.073  0.0015 -0.3719  0.4362
 3111TIP3    H130748   0.894   4.992  12.089  1.2277  0.6778 -0.2183
 3111TIP3    H230749   0.862   5.112  12.002 -1.0957  0.8037  0.7455
 3112TIP3   OH230750   0.999   1.694  14.835  0.8068 -0.1680 -0.1574
 3112TIP3    H130751   1.029   1.620  14.781 -1.2228  0.6135 -2.5533
 3112TIP3    H230752   0.909   1.672  14.858  0.1771  1.5116 -0.8846
 3113TIP3   OH230753   6.078   1.545   6.609 -0.1646 -0.6272  0.2770
 3113TIP3    H130754   6.166   1.582   6.618 -0.2014 -0.3959 -0.2722
 3113TIP3    H230755   6.084   1.487   6.533 -1.2158  1.6690 -1.6605
 3114TIP3   OH230756   1.445   2.978   6.180 -0.0330  0.0685  0.0288
 3114TIP3    H130757   1.362   2.982   6.228 -0.0732 -0.2799 -0.0131
 3114TIP3    H230758   1.457   3.066   6.145 -0.8628 -0.1328 -0.7830
 3115TIP3   OH230759   3.393   2.602   5.649 -0.3674 -0.6946 -0.2008
 3115TIP3    H130760   3.378   2.696   5.637 -0.4501 -0.6576  0.1985
 3115TIP3    H230761   3.484   2.595   5.676 -0.7779 -0.6040  1.2598
 3116TIP3   OH230762   1.939   2.917  16.144  0.2176 -0.2962  0.6190
 3116TIP3    H130763   1.947   2.995  16.198  1.1216  0.5137 -0.6239
 3116TIP3    H230764   1.857   2.877  16.172 -0.2376  1.0640  1.3328
 3117TIP3   OH230765   6.016   5.810  12.696  1.0254 -0.7169  0.3877
 3117TIP3    H130766   5.925   5.800  12.724  0.7422  0.0807 -0.2145
 3117TIP3    H230767   6.035   5.903  12.710  0.7599 -0.1938 -2.3064
 3118TIP3   OH230768   1.118   3.090   0.295 -0.0826 -0.1951 -0.0076
 3118TIP3    H130769   1.192   3.032   0.311  1.5053  1.4304 -1.0981
 3118TIP3    H230770   1.121   3.154   0.366  0.0980  0.3758 -0.5178
 3119TIP3   OH230771   0.426   0.128   4.961 -0.1701  0.3060  0.3893
 3119TIP3    H130772   0.355   0.182   4.996  0.7325  0.4506  2.1203
 3119TIP3    H230773   0.401   0.038   4.982 -0.6847  0.1947 -0.6392
 3120TIP3   OH230774   4.522   5.025   4.972 -0.3848 -0.1556 -0.1152
 3120TIP3    H130775   4.609   5.056   4.997 -1.0600  0.3372  1.8260
 3120TIP3    H230776   4.536   4.976   4.891  1.3793  1.5989 -0.9722
 3121TIP3   OH230777   6.582   4.635   3.121 -0.6619 -0.2391  0.9233
 3121TIP3    H130778   6.620   4.549   3.105  0.5026  0.3150  0.6666
 3121TIP3    H230779   6.578   4.677   3.035 -1.5102 -0.1440  0.9995
 3122TIP3   OH230780   6.076   4.571   0.521 -0.2398  0.2690  0.2047
 3122TIP3    H130781   6.030   4.593   0.440 -1.0518 -2.3069 -0.1327
 3122TIP3    H230782   6.006   4.556   0.585  0.2529 -0.5693  0.5705
 3123TIP3   OH230783   1.733   5.841   5.129 -0.8377  0.3340 -0.2562
 3123TIP3    H130784   1.638   5.842   5.139 -0.8187  1.2093 -0.1067
 3123TIP3    H230785   1.764   5.778   5.194 -1.1734  1.5082  1.0951
 3124TIP3   OH230786   2.205   5.475  13.722  0.4958 -0.1924  0.0897
 3124TIP3    H130787   2.181   5.479  13.629 -1.6702 -0.5712  0.5680
 3124TIP3    H230788   2.300   5.486  13.723  0.5286  0.2171 -2.1325
 3125TIP3   OH230789   4.723   5.161   2.816 -0.1406 -0.0803 -0.0143
 3125TIP3    H130790   4.662   5.088   2.831  0.2643 -0.1973  1.1445
 3125TIP3    H230791   4.726   5.207   2.899 -0.7237  1.5481 -0.8596
 3126TIP3   OH230792   6.784   6.177  11.767  0.1111 -0.1668 -0.0464
 3126TIP3    H130793   6.874   6.197  11.741  0.9886 -1.5527  1.7046
 3126TIP3    H230794   6.734   6.182  11.685  1.1099  3.7774 -0.5964
 3127TIP3   OH230795   3.380   0.975   1.025 -0.3236 -0.3977  0.8783
 3127TIP3    H130796   3.459   0.987   1.077 -1.5632 -1.3474  3.0920
 3127TIP3    H230797   3.406   0.915   0.955  1.6228  1.6744 -0.2897
 3128TIP3   OH230798   6.385   2.624  12.696  0.5197 -1.1385  0.0041
 3128TIP3    H130799   6.449   2.657  12.633 -0.9161 -0.9481 -1.4005
 3128TIP3    H230800   6.348   2.703  12.736 -1.3174 -1.0476 -1.7478
 3129TIP3   OH230801   4.714   6.738   3.280  0.4484 -0.0868  1.1440
 3129TIP3    H130802   4.642   6.698   3.327  2.0226 -3.1459  1.1843
 3129TIP3    H230803   4.674   6.811   3.232 -3.4888 -3.5318 -1.5606
 3130TIP3   OH230804   4.756   6.496   4.082  0.0312  0.3533  0.0582
 3130TIP3    H130805   4.846   6.530   4.082  0.3667 -0.4720  0.9647
 3130TIP3    H230806   4.767   6.401   4.073 -0.7369  0.2128  0.5361
 3131TIP3   OH230807   5.797   6.673  14.071 -0.4310  0.1620  0.6422
 3131TIP3    H130808   5.717   6.707  14.111 -0.0892 -0.1535  1.5997
 3131TIP3    H230809   5.857   6.748  14.071 -0.9887  0.6611 -0.8908
 3132TIP3   OH230810   6.742   3.785   3.799 -0.4094  0.4152 -0.5890
 3132TIP3    H130811   6.733   3.759   3.891  0.1982  1.8351 -0.0891
 3132TIP3    H230812   6.755   3.703   3.752  0.0869 -0.2877  0.7083
 3133TIP3   OH230813   1.773   3.750  12.899  0.2716  0.1933 -0.4634
 3133TIP3    H130814   1.815   3.761  12.984  0.9673 -0.7771 -0.6549
 3133TIP3    H230815   1.689   3.794  12.907  0.3514  0.1610  0.7084
 3134TIP3   OH230816   1.775   3.038   1.433 -0.3346 -0.3964  0.0141
 3134TIP3    H130817   1.836   3.090   1.381 -1.6748  1.9074  0.6056
 3134TIP3    H230818   1.825   3.010   1.510  0.0682  1.2384  0.3704
 3135TIP3   OH230819   5.663   0.628  14.299 -0.2765 -0.0331  0.1086
 3135TIP3    H130820   5.740   0.652  14.247 -0.5497 -3.2553 -2.0929
 3135TIP3    H230821   5.592   0.682  14.263  0.6686  2.3348  1.5746
 3136TIP3   OH230822   1.961   4.538   2.263 -0.4388  0.1916  0.1941
 3136TIP3    H130823   1.919   4.453   2.251 -0.2002  0.1508 -0.3685
 3136TIP3    H230824   1.942   4.586   2.183 -1.9533  1.2741  1.1561
 3137TIP3   OH230825   2.995   1.114  16.583  0.0417 -0.2566 -0.3244
 3137TIP3    H130826   2.901   1.117  16.565  0.1726  1.4550 -0.9843
 3137TIP3    H230827   3.012   1.024  16.610 -1.9413 -0.3754  0.7131
 3138TIP3   OH230828   3.817   4.186   2.587  0.1071 -0.6411  0.3235
 3138TIP3    H130829   3.835   4.258   2.647 -0.7864  0.1733 -0.3402
 3138TIP3    H230830   3.892   4.185   2.527  0.7113 -1.0760  1.0655
 3139TIP3   OH230831   6.393   3.587   0.867  0.2390  0.2056  0.2992
 3139TIP3    H130832   6.450   3.569   0.792  0.4701 -0.8072  0.6942
 3139TIP3    H230833   6.452   3.590   0.942  0.1217  2.1147  0.3409
 3140TIP3   OH230834   3.853   2.468  12.560 -0.1766 -0.4910  0.7089
 3140TIP3    H130835   3.795   2.499  12.628 -0.0606 -1.4139  1.2386
 3140TIP3    H230836   3.796   2.429  12.494 -0.3222  0.7587  0.0486
 3141TIP3   OH230837   0.459   2.009   5.900  0.0760  0.3671  0.2600
 3141TIP3    H130838   0.366   1.991   5.886  0.4143 -0.5628 -1.0097
 3141TIP3    H230839   0.504   1.936   5.859  1.3733  0.4648  1.4339
 3142TIP3   OH230840   1.641   1.354  16.810 -0.0298  0.5035 -0.0276
 3142TIP3    H130841   1.560   1.386  16.770  0.3377  0.7443 -0.5976
 3142TIP3    H230842   1.699   1.338  16.735  0.3131 -0.0351  0.3517
 3143TIP3   OH230843   2.515   4.780  16.569 -0.1974 -0.2261 -0.1535
 3143TIP3    H130844   2.600   4.823  16.558 -1.0613  1.5501 -0.1297
 3143TIP3    H230845   2.478   4.818  16.648 -0.1937 -2.4591  0.9947
 3144TIP3   OH230846   0.651   4.688   4.335  0.4142 -0.3071 -0.4952
 3144TIP3    H130847   0.746   4.696   4.343  0.7502 -1.6195 -2.5577
 3144TIP3    H230848   0.627   4.627   4.405  1.3721 -1.3918 -1.0744
 3145TIP3   OH230849   6.420   3.006  17.178  0.1198 -0.5319 -0.7391
 3145TIP3    H130850   6.353   2.952  17.220  0.9338 -1.8453 -1.0431
 3145TIP3    H230851   6.479   3.031  17.249 -0.9581  1.1001 -0.3750
 3146TIP3   OH230852   6.786   3.286  14.638  0.5595 -0.0533 -0.1340
 3146TIP3    H130853   6.773   3.335  14.718  0.6920 -0.1416 -0.0578
 3146TIP3    H230854   6.713   3.312  14.581  0.5554  0.1287 -0.0454
 3147TIP3   OH230855   5.162   0.376   2.612 -0.7626 -0.0766  0.4101
 3147TIP3    H130856   5.079   0.422   2.621  0.0974  1.4466  1.0367
 3147TIP3    H230857   5.140   0.295   2.567 -2.1865  1.5685 -2.1527
 3148TIP3   OH230858   4.587   6.662   0.176 -0.4483  0.1542 -0.0633
 3148TIP3    H130859   4.522   6.719   0.135  0.5736  1.9133  0.6350
 3148TIP3    H230860   4.605   6.595   0.110 -1.7242  0.6105 -0.9146
 3149TIP3   OH230861   4.734   3.425   0.393 -0.1742  0.5033 -0.0281
 3149TIP3    H130862   4.793   3.373   0.338  1.1482  0.8134  1.0484
 3149TIP3    H230863   4.670   3.362   0.427 -1.0638  0.3180 -1.9220
 3150TIP3   OH230864   3.946   0.215   1.136 -0.4748 -0.1898  0.4031
 3150TIP3    H130865   3.931   0.293   1.190  0.2066  1.0354 -1.0900
 3150TIP3    H230866   4.005   0.160   1.188 -0.9017  0.3130  1.4516
 3151TIP3   OH230867   5.001   2.265   4.014  0.7114 -0.7019  0.2967
 3151TIP3    H130868   4.935   2.257   3.945  0.7182 -0.2062  0.2332
 3151TIP3    H230869   4.956   2.309   4.086  1.4770  1.4721 -0.4588
 3152TIP3   OH230870   5.828   2.315   2.086 -0.1318 -0.1093 -0.5182
 3152TIP3    H130871   5.900   2.332   2.026  0.0984 -1.8560 -0.7981
 3152TIP3    H230872   5.751   2.351   2.043  0.4238  0.9986 -0.6177
 3153TIP3   OH230873   4.430   6.034   6.183  0.7572 -0.3533  0.0506
 3153TIP3    H130874   4.511   6.053   6.232  0.8923 -1.4413  0.2646
 3153TIP3    H230875   4.370   5.999   6.249  0.8812 -1.6730 -0.5243
 3154TIP3   OH230876   5.526   2.174   2.483 -0.1719 -0.7228  0.3217
 3154TIP3    H130877   5.472   2.095   2.479 -3.0792  1.1049  0.3647
 3154TIP3    H230878   5.540   2.198   2.392 -0.5697 -0.4839  0.3232
 3155TIP3   OH230879   2.044   5.542   2.111 -0.1269  0.4656 -0.3083
 3155TIP3    H130880   1.965   5.561   2.162 -0.4903 -1.9237  0.1216
 3155TIP3    H230881   2.013   5.535   2.021 -0.1458  0.8991 -0.3390
 3156TIP3   OH230882   3.141   0.856   1.149  0.0802 -0.2594 -0.1341
 3156TIP3    H130883   3.195   0.923   1.106 -1.2249  1.3215  0.5456
 3156TIP3    H230884   3.052   0.878   1.122 -0.4217 -1.5174  0.4324
 3157TIP3   OH230885   3.511   0.173   4.633 -0.8551 -0.5278  0.4641
 3157TIP3    H130886   3.546   0.261   4.618  0.7866 -1.3315 -0.9078
 3157TIP3    H230887   3.420   0.186   4.658 -0.6394  1.5527  0.2973
 3158TIP3   OH230888   1.340   6.672  16.993  1.1961  0.9938 -0.1615
 3158TIP3    H130889   1.403   6.697  17.062  1.6680 -1.0314  0.2095
 3158TIP3    H230890   1.258   6.713  17.020  1.7562  1.5692  0.7396
 3159TIP3   OH230891   5.956   6.081   2.126  0.4567  0.4807 -0.3303
 3159TIP3    H130892   6.010   6.155   2.154 -1.4285  1.8149 -0.0588
 3159TIP3    H230893   5.902   6.116   2.055 -0.9842 -0.4062  0.2850
 3160TIP3   OH230894   0.599   3.317   0.667 -1.1451 -0.0475  0.3283
 3160TIP3    H130895   0.534   3.375   0.706 -0.7046  1.0331 -0.5304
 3160TIP3    H230896   0.659   3.296   0.739 -0.7802  1.3094  0.4348
 3161TIP3   OH230897   5.138   6.786   2.113  0.7801 -0.3946  0.4088
 3161TIP3    H130898   5.196   6.823   2.046 -0.8473 -0.1978 -0.9612
 3161TIP3    H230899   5.097   6.862   2.154  0.1472 -0.5671  0.1074
 3162TIP3   OH230900   3.951   4.636   5.838  0.3386 -0.2839  0.5072
 3162TIP3    H130901   3.913   4.549   5.847  0.9549 -0.5569  0.5182
 3162TIP3    H230902   4.019   4.639   5.906 -0.7162  0.7746  1.5661
 3163TIP3   OH230903   2.682   5.100   5.608 -0.5222  0.5272 -0.1863
 3163TIP3    H130904   2.659   5.008   5.596 -0.7208  0.6664 -0.9093
 3163TIP3    H230905   2.649   5.144   5.530 -1.1286  1.3438  0.5069
 3164TIP3   OH230906   1.496   2.192   3.689 -0.4439  0.5959 -0.3175
 3164TIP3    H130907   1.453   2.117   3.649 -0.8543  0.2609  0.7184
 3164TIP3    H230908   1.443   2.212   3.766 -0.0244  1.6024 -0.2812
 3165TIP3   OH230909   2.895   6.689  15.789 -0.1680  0.1594  0.1709
 3165TIP3    H130910   2.955   6.636  15.842  2.2628  2.2492 -0.2876
 3165TIP3    H230911   2.858   6.626  15.727  0.8486 -1.4153  1.0672
 3166TIP3   OH230912   0.065   2.515  12.932 -0.2759  0.1889  0.2756
 3166TIP3    H130913  -0.007   2.577  12.929  0.5014  1.0798 -1.0000
 3166TIP3    H230914   0.048   2.454  12.861  0.1604  0.3392  0.0370
 3167TIP3   OH230915   0.781   0.772   3.714  0.2012 -0.2725 -0.3432
 3167TIP3    H130916   0.734   0.761   3.632 -0.0665  0.8037 -0.3468
 3167TIP3    H230917   0.716   0.754   3.782  0.9734 -3.5107 -0.2933
 3168TIP3   OH230918   5.817   6.654   3.010  0.4894 -0.3267  0.2587
 3168TIP3    H130919   5.817   6.613   2.924 -1.0101  3.8411 -1.9973
 3168TIP3    H230920   5.747   6.610   3.058  0.1710 -1.5698 -1.2865
 3169TIP3   OH230921   0.937   0.109   1.716  0.2674 -0.0979  0.8131
 3169TIP3    H130922   0.847   0.108   1.749  0.2131 -0.2810  0.6630
 3169TIP3    H230923   0.951   0.020   1.683  0.1103  0.2523 -0.2298
 3170TIP3   OH230924   5.099   5.330  11.994 -0.2101 -0.0451 -0.3537
 3170TIP3    H130925   5.139   5.325  11.907  1.2526 -2.8390  0.3485
 3170TIP3    H230926   5.150   5.396  12.041  0.5461 -0.2195 -0.9086
 3171TIP3   OH230927   6.471   2.995   4.040 -0.0386 -0.2994 -0.5315
 3171TIP3    H130928   6.457   3.090   4.040  1.8643  0.1603  2.7390
 3171TIP3    H230929   6.384   2.957   4.032 -0.8094  1.6623 -2.2813
 3172TIP3   OH230930   4.279   0.618   2.956  0.3634 -0.1394 -0.7135
 3172TIP3    H130931   4.331   0.551   3.000  1.1831 -0.5948 -2.2828
 3172TIP3    H230932   4.198   0.574   2.930  0.0874  0.0001 -0.0937
 3173TIP3   OH230933   0.692   5.920   4.214 -0.3677 -0.8209 -0.5236
 3173TIP3    H130934   0.672   5.836   4.172 -1.3704 -0.9152  0.0905
 3173TIP3    H230935   0.718   5.897   4.303  4.4963 -0.8566 -1.6958
 3174TIP3   OH230936   1.611   1.495   0.940 -0.9707  0.8110 -0.2621
 3174TIP3    H130937   1.681   1.461   0.997 -1.1330 -0.2348 -0.6577
 3174TIP3    H230938   1.657   1.533   0.866 -0.7967  0.6127 -0.2590
 3175TIP3   OH230939   1.890   5.088  16.894 -0.4179  0.2802 -0.6898
 3175TIP3    H130940   1.801   5.069  16.923 -0.7554  3.1480  0.5321
 3175TIP3    H230941   1.881   5.113  16.803 -0.6213 -0.7296 -0.9622
 3176TIP3   OH230942   3.509   3.285   4.861 -0.4360 -0.0036  0.2869
 3176TIP3    H130943   3.451   3.228   4.812  0.8373 -0.9079 -0.2264
 3176TIP3    H230944   3.596   3.247   4.850  0.0561  0.3695  2.3601
 3177TIP3   OH230945   0.037   1.777  11.481  0.4472 -0.7249 -0.9355
 3177TIP3    H130946   0.093   1.734  11.417  0.9892  1.6341 -2.1733
 3177TIP3    H230947   0.084   1.858  11.502 -0.8527 -0.3553  0.6927
 3178TIP3   OH230948   3.727   6.130  16.238  0.1832 -0.5895  0.1572
 3178TIP3    H130949   3.676   6.178  16.302  0.8414  0.7798 -0.2952
 3178TIP3    H230950   3.817   6.161  16.251  0.7635 -2.2212  0.2922
 3179TIP3   OH230951   5.009   1.479   6.328 -0.2732  0.1020  0.4705
 3179TIP3    H130952   5.098   1.465   6.360  0.3832  0.9388 -0.8861
 3179TIP3    H230953   4.969   1.536   6.393  0.8781  1.4117  0.0748
 3180TIP3   OH230954   0.963   5.903  12.160 -0.3456  0.6184 -0.4425
 3180TIP3    H130955   0.980   5.815  12.192  0.3072  1.1243  0.6681
 3180TIP3    H230956   1.013   5.960  12.219 -2.4648  1.8774  0.2243
 3181TIP3   OH230957   3.735   1.298   6.125 -0.2550  0.3728 -0.6890
 3181TIP3    H130958   3.698   1.373   6.079 -0.7456  0.4065 -0.2423
 3181TIP3    H230959   3.668   1.272   6.188  0.2443  0.0749 -0.2685
 3182TIP3   OH230960   2.134   3.710  11.793  0.4148 -0.4913 -0.3555
 3182TIP3    H130961   2.088   3.710  11.709 -1.2874  0.2757  0.5275
 3182TIP3    H230962   2.066   3.725  11.858  1.9751  1.1071  1.0202
 3183TIP3   OH230963   4.463   6.212   0.614 -0.0269  0.2052  0.4706
 3183TIP3    H130964   4.445   6.209   0.708  1.5788 -0.7760  0.7811
 3183TIP3    H230965   4.436   6.300   0.588 -1.3246  0.2079  1.6500
 3184TIP3   OH230966   2.590   4.599  11.116 -0.3744 -0.0072 -0.3642
 3184TIP3    H130967   2.535   4.553  11.053 -0.3629  1.3446 -1.4139
 3184TIP3    H230968   2.581   4.548  11.197  0.2347 -2.2522 -1.6217
 3185TIP3   OH230969   6.303   5.866  15.715  0.5231  0.4326  0.4978
 3185TIP3    H130970   6.298   5.790  15.773 -0.3132 -0.3602 -0.5688
 3185TIP3    H230971   6.351   5.932  15.766 -1.7046  0.4400  2.8249
 3186TIP3   OH230972   3.627   4.170   1.975 -0.3483 -0.4907  0.8134
 3186TIP3    H130973   3.656   4.080   1.986  1.4171 -0.2406 -1.2530
 3186TIP3    H230974   3.666   4.198   1.892 -3.2218  1.2552 -0.0781
 3187TIP3   OH230975   1.394   6.293  12.228 -0.2455 -0.2448  0.2567
 3187TIP3    H130976   1.328   6.225  12.239  1.1562 -1.8302 -0.6221
 3187TIP3    H230977   1.356   6.353  12.163 -1.0028 -0.8796  0.0952
 3188TIP3   OH230978   1.394   1.724   1.174 -0.4880  0.4932 -0.3221
 3188TIP3    H130979   1.486   1.718   1.203 -0.3100 -0.0715 -0.9669
 3188TIP3    H230980   1.345   1.676   1.241 -0.2360  0.2859 -0.2818
 3189TIP3   OH230981   2.976   4.325  13.920  0.2997 -0.5525 -0.3331
 3189TIP3    H130982   2.956   4.278  13.839  0.7387 -1.0413 -0.1683
 3189TIP3    H230983   3.021   4.404  13.891  1.0792 -1.0579 -0.5537
 3190TIP3   OH230984   4.149   1.613  13.160  0.0820  0.2473  0.2427
 3190TIP3    H130985   4.243   1.617  13.176  0.3951 -0.0361 -1.2884
 3190TIP3    H230986   4.108   1.627  13.245  1.5311 -2.4340  1.5099
 3191TIP3   OH230987   2.667   2.861  10.367  0.3499  0.1534 -0.6715
 3191TIP3    H130988   2.737   2.914  10.330  2.1576 -2.2528 -1.0126
 3191TIP3    H230989   2.688   2.771  10.340 -1.4451 -1.0010  1.3857
 3192TIP3   OH230990   0.246   5.846   4.065  0.0659  0.2233  0.5496
 3192TIP3    H130991   0.251   5.771   4.006  0.2269  1.5992 -1.3014
 3192TIP3    H230992   0.214   5.918   4.009 -1.8418  1.1389  2.6478
 3193TIP3   OH230993   3.355   1.013   1.338 -0.2291 -0.1852  0.0334
 3193TIP3    H130994   3.435   1.023   1.287 -1.2416 -1.5019 -1.9295
 3193TIP3    H230995   3.315   1.100   1.337  0.4728  0.1418 -0.1922
 3194TIP3   OH230996   3.922   0.529  10.804  0.0345 -0.3292  0.3493
 3194TIP3    H130997   3.962   0.615  10.786  0.4430 -0.1742  1.8020
 3194TIP3    H230998   3.926   0.482  10.721  2.6296 -0.0551  0.2389
 3195TIP3   OH230999   4.680   6.015   6.300  0.0930  0.2405  0.0267
 3195TIP3    H131000   4.723   6.060   6.373 -1.2160  1.6264 -0.0172
 3195TIP3    H231001   4.752   5.987   6.244  1.0124  1.6077  0.4642
 3196TIP3   OH231002   5.808   4.814   2.703  0.1444  0.2019  0.3097
 3196TIP3    H131003   5.793   4.726   2.671  0.3565  0.0810  0.5347
 3196TIP3    H231004   5.757   4.820   2.784 -0.1427  0.4009  0.1167
 3197TIP3   OH231005   0.622   3.859   3.148 -0.4235 -0.0379 -0.1267
 3197TIP3    H131006   0.533   3.859   3.183 -0.2457 -3.7291  0.7883
 3197TIP3    H231007   0.611   3.877   3.054 -2.1632 -0.4645 -0.0379
 3198TIP3   OH231008   3.035   4.471   6.555 -0.2211  0.1917 -0.1303
 3198TIP3    H131009   2.993   4.454   6.639  1.4208 -1.7016  0.3818
 3198TIP3    H231010   3.043   4.566   6.551  0.7023  0.3009  2.4077
 3199TIP3   OH231011   2.279   5.374   1.717 -0.8893  0.1658  0.3388
 3199TIP3    H131012   2.196   5.326   1.717 -1.0497  0.4429  0.2785
 3199TIP3    H231013   2.322   5.348   1.798 -0.9174 -0.1823  0.2435
 3200TIP3   OH231014   2.286   5.972   5.329 -0.1163  0.1306 -0.2744
 3200TIP3    H131015   2.262   5.880   5.319 -1.5816  0.4946 -0.3253
 3200TIP3    H231016   2.239   6.017   5.258  0.6141  0.9185 -0.2815
 3201TIP3   OH231017   4.210   5.122  16.991 -0.3050  0.4086  0.2794
 3201TIP3    H131018   4.169   5.138  16.906 -0.3969 -1.8210 -0.1754
 3201TIP3    H231019   4.188   5.031  17.010  0.6404  0.5428  2.1915
 3202TIP3   OH231020   2.123   0.815  15.884  0.2087 -0.2141  0.0117
 3202TIP3    H131021   2.106   0.826  15.977 -0.2227  1.9528 -0.2688
 3202TIP3    H231022   2.037   0.797  15.846 -0.1999  2.1185 -0.3174
 3203TIP3   OH231023   5.252   1.070  15.164  0.0450  0.0595  0.5866
 3203TIP3    H131024   5.215   1.037  15.246  1.1044 -1.5235  0.4870
 3203TIP3    H231025   5.212   1.156  15.152  0.7678  0.8947  3.3844
 3204TIP3   OH231026   0.315   1.692   3.968 -0.0210  0.2167  0.6913
 3204TIP3    H131027   0.278   1.617   3.920  1.4956  0.2964 -0.7013
 3204TIP3    H231028   0.259   1.766   3.943  0.9282  0.3308 -1.3664
 3205TIP3   OH231029   6.372   4.663  16.859  0.0161  0.3757 -0.1276
 3205TIP3    H131030   6.312   4.598  16.822  1.0952 -0.0586 -1.1697
 3205TIP3    H231031   6.402   4.625  16.941  0.7209 -0.5096 -0.7836
 3206TIP3   OH231032   0.660   4.890  16.005 -0.2639  0.5718  0.7549
 3206TIP3    H131033   0.713   4.813  15.986  0.3435  1.0394  0.5147
 3206TIP3    H231034   0.665   4.900  16.101 -0.8868 -0.0597  0.8613
 3207TIP3   OH231035   6.001   3.501  11.036 -0.4031  0.2850  0.1736
 3207TIP3    H131036   6.038   3.465  10.956  0.3848  0.6830  0.3388
 3207TIP3    H231037   5.925   3.551  11.008 -2.0337 -2.1384  0.0221
 3208TIP3   OH231038   5.173   5.466  14.140 -0.4993  0.1885 -0.5749
 3208TIP3    H131039   5.229   5.503  14.209  0.1139  1.5886 -1.7634
 3208TIP3    H231040   5.092   5.442  14.185 -0.6507  2.3555  0.4207
 3209TIP3   OH231041   2.825   0.625  15.399  0.4142  0.0964 -0.4206
 3209TIP3    H131042   2.881   0.703  15.394 -0.4040  0.6967 -0.4845
 3209TIP3    H231043   2.841   0.589  15.486  1.4882 -0.2002 -0.7286
 3210TIP3   OH231044   0.906   1.404  15.153  0.1405 -0.2701  0.2142
 3210TIP3    H131045   0.813   1.403  15.174  0.1486 -0.1477  0.2600
 3210TIP3    H231046   0.948   1.438  15.233  0.0101  1.9509 -0.5723
 3211TIP3   OH231047   1.347   5.368   4.601 -0.0597  0.1888 -0.5551
 3211TIP3    H131048   1.426   5.416   4.626 -0.9072  1.4824 -0.2462
 3211TIP3    H231049   1.278   5.435   4.598 -1.2078 -0.9490 -0.5490
 3212TIP3   OH231050   0.976   1.203  11.617  0.1911 -0.2166  0.2970
 3212TIP3    H131051   0.980   1.227  11.525  0.2332  1.2327  0.6466
 3212TIP3    H231052   0.885   1.222  11.643  0.2631 -0.3074  0.6250
 3213TIP3   OH231053   5.080   4.638  10.903 -0.2638 -0.0361  0.6644
 3213TIP3    H131054   5.019   4.626  10.975 -0.1421 -1.5528  0.5514
 3213TIP3    H231055   5.134   4.713  10.929 -2.3452  1.5594  0.6138
 3214TIP3   OH231056   2.247   1.927   4.491 -0.2120 -0.3036 -0.6385
 3214TIP3    H131057   2.326   1.908   4.542 -0.3516 -2.2845 -1.0621
 3214TIP3    H231058   2.270   2.002   4.436  1.2744 -0.6670 -0.5361
 3215TIP3   OH231059   2.857   1.904   0.114  0.0413 -0.4504  0.2905
 3215TIP3    H131060   2.926   1.838   0.121 -1.1803 -1.8502 -0.3147
 3215TIP3    H231061   2.802   1.890   0.190 -0.4691 -0.4298 -0.0700
 3216TIP3   OH231062   4.441   2.334  17.030 -0.2659 -0.4687 -0.0085
 3216TIP3    H131063   4.438   2.309  17.123 -0.3278 -3.4960 -0.7298
 3216TIP3    H231064   4.534   2.335  17.008 -0.3133 -1.3269 -0.2702
 3217TIP3   OH231065   5.314   0.246  16.863  0.2204  0.0330 -0.7070
 3217TIP3    H131066   5.342   0.305  16.933 -0.3486 -2.6060  1.9404
 3217TIP3    H231067   5.374   0.265  16.790  1.2717  2.4459  0.6706
 3218TIP3   OH231068   3.948   3.883   2.228  0.0474  0.2646 -0.2247
 3218TIP3    H131069   3.868   3.913   2.185  0.3611  0.5178 -0.6399
 3218TIP3    H231070   3.918   3.850   2.313 -0.5612 -0.1523 -0.5954
 3219TIP3   OH231071   6.791   3.741  11.817  0.5692  0.8334 -0.0896
 3219TIP3    H131072   6.861   3.796  11.852 -0.0988  0.9340  1.1344
 3219TIP3    H231073   6.806   3.741  11.723  3.3821 -0.6903  0.2180
 3220TIP3   OH231074   1.992   4.967   4.486  0.3273 -0.1487  0.1130
 3220TIP3    H131075   2.060   4.900   4.496 -1.1339 -1.3981  2.5625
 3220TIP3    H231076   1.921   4.922   4.441  0.4525  0.6877 -0.9664
 3221TIP3   OH231077   5.944   5.039  15.478  0.2772 -0.3334 -0.5683
 3221TIP3    H131078   5.907   4.972  15.421 -0.0565 -0.6955  0.0632
 3221TIP3    H231079   5.868   5.083  15.516  0.3667  2.5317 -3.3248
 3222TIP3   OH231080   4.256   4.560  10.532  0.8564 -0.4862 -0.1491
 3222TIP3    H131081   4.345   4.554  10.498  0.3604  1.4715 -2.0023
 3222TIP3    H231082   4.252   4.644  10.576 -0.6060  0.4898 -2.0006
 3223TIP3   OH231083   4.748   1.923  12.403 -0.2659  0.3735 -0.0978
 3223TIP3    H131084   4.763   2.013  12.375 -1.2797  1.1420  1.6554
 3223TIP3    H231085   4.657   1.905  12.380 -0.6941  0.5486  1.3461
 3224TIP3   OH231086   0.944   6.373   4.014  0.1660 -0.6853 -0.7196
 3224TIP3    H131087   0.992   6.417   3.944 -0.5121  0.2560 -0.6166
 3224TIP3    H231088   0.853   6.370   3.983 -0.0436 -0.7506 -0.1196
 3225TIP3   OH231089   6.004   2.066  16.238  0.0754  0.3532  0.0691
 3225TIP3    H131090   5.983   2.004  16.308  1.8522 -1.1881 -0.6926
 3225TIP3    H231091   6.083   2.110  16.268 -0.4480  1.3649  0.0183
 3226TIP3   OH231092   0.106   2.305  16.029  0.1688 -0.1537 -0.4754
 3226TIP3    H131093   0.090   2.363  16.103 -0.5499  0.1503 -0.8564
 3226TIP3    H231094   0.028   2.316  15.973  0.0199 -1.4606 -0.5568
 3227TIP3   OH231095   5.068   5.628  11.860  0.3298 -0.2997  0.1868
 3227TIP3    H131096   5.080   5.542  11.819 -1.8055 -1.6350  2.1484
 3227TIP3    H231097   4.982   5.658  11.828  0.3691  0.4068  0.7267
 3228TIP3   OH231098   2.025   4.780  12.709  0.5353  0.1059 -0.0964
 3228TIP3    H131099   1.962   4.719  12.748  0.5134  0.5125  0.5198
 3228TIP3    H231100   2.040   4.746  12.621 -1.5292  0.6920 -0.7467
 3229TIP3   OH231101   2.775   1.198   0.497 -0.6234  0.2496  0.1664
 3229TIP3    H131102   2.701   1.257   0.509 -1.1406 -0.8094  2.7689
 3229TIP3    H231103   2.764   1.164   0.408 -2.7111  0.8649  0.1391
 3230TIP3   OH231104   0.823   4.400   0.158 -0.5072  0.6609  0.2035
 3230TIP3    H131105   0.767   4.476   0.146  1.3698  1.7994 -2.2099
 3230TIP3    H231106   0.836   4.364   0.070  2.7153  0.6807  0.5376
 3231TIP3   OH231107   5.037   2.484  12.838 -0.0282  0.2523 -0.1333
 3231TIP3    H131108   5.002   2.413  12.892  1.5323 -0.4721 -0.0174
 3231TIP3    H231109   5.003   2.467  12.750 -0.4817 -0.0486  0.0932
 3232TIP3   OH231110   2.161   5.158   4.128 -0.2525 -0.4492 -0.3068
 3232TIP3    H131111   2.189   5.069   4.107  1.2291 -0.4628  1.5107
 3232TIP3    H231112   2.155   5.201   4.043  1.9662 -1.4708 -1.0619
 3233TIP3   OH231113   6.508   5.428   4.860 -0.1054 -0.1526  0.0802
 3233TIP3    H131114   6.449   5.436   4.784 -0.6101 -0.8101  0.3833
 3233TIP3    H231115   6.538   5.337   4.856  0.7380  0.1268  0.0473
 3234TIP3   OH231116   4.681   4.262   2.208  0.2039 -0.4843  0.3498
 3234TIP3    H131117   4.638   4.176   2.205  1.4197 -1.0795 -1.7676
 3234TIP3    H231118   4.634   4.315   2.144 -0.7737  0.6309  1.8978
 3235TIP3   OH231119   4.458   0.806  14.610  0.4034  0.3251  0.4026
 3235TIP3    H131120   4.432   0.867  14.678 -1.4550  0.6032 -0.5015
 3235TIP3    H231121   4.434   0.720  14.644  0.6872  0.3396  0.6388
 3236TIP3   OH231122   2.369   6.725  12.401 -0.8227  0.1108 -0.3818
 3236TIP3    H131123   2.374   6.657  12.334 -0.1090  1.0081 -1.2699
 3236TIP3    H231124   2.336   6.802  12.355 -2.3115  0.2044  0.7610
 3237TIP3   OH231125   0.004   5.876   2.715  0.0946  0.1498  0.4073
 3237TIP3    H131126   0.023   5.968   2.729  1.5081  0.0135 -0.3766
 3237TIP3    H231127   0.090   5.834   2.713 -0.2707 -0.6944 -2.3768
 3238TIP3   OH231128   2.901   0.354  15.562 -0.3017  0.5492  0.3988
 3238TIP3    H131129   2.869   0.431  15.610 -1.0815  0.4697  0.0213
 3238TIP3    H231130   2.909   0.286  15.628 -1.6957  0.3416  0.3809
 3239TIP3   OH231131   2.018   3.400   1.721 -0.0137 -0.2788 -0.8583
 3239TIP3    H131132   2.093   3.350   1.688 -0.9674 -1.0206 -1.9536
 3239TIP3    H231133   1.970   3.427   1.643 -0.5121  0.8065 -0.1978
 3240TIP3   OH231134   5.371   1.624  15.969  0.9478  0.1049 -0.4688
 3240TIP3    H131135   5.431   1.570  16.021  0.2585  0.4534  0.7194
 3240TIP3    H231136   5.396   1.714  15.991  0.7473  0.2571 -0.8604
 3241TIP3   OH231137   3.149   1.631  14.570  0.3976 -0.2758 -0.0710
 3241TIP3    H131138   3.124   1.577  14.646 -0.7419  0.6996  0.2903
 3241TIP3    H231139   3.094   1.598  14.499 -0.9965  0.9321  0.3743
 3242TIP3   OH231140   4.919   1.358   2.578 -0.5598 -0.6184  0.0268
 3242TIP3    H131141   4.841   1.389   2.624 -2.9535 -2.0881 -2.7522
 3242TIP3    H231142   4.887   1.328   2.493  3.2917  0.1384 -1.9206
 3243TIP3   OH231143   6.344   1.154   1.350 -0.5163  0.2636  0.2129
 3243TIP3    H131144   6.339   1.082   1.288 -2.3619 -0.9271  1.6392
 3243TIP3    H231145   6.326   1.232   1.298 -0.5528 -0.5215 -0.9885
 3244TIP3   OH231146   3.707   1.758  11.315  0.3873 -0.3319  1.0809
 3244TIP3    H131147   3.618   1.731  11.291  0.5319  0.0227  0.0798
 3244TIP3    H231148   3.759   1.678  11.309  0.2707 -0.3986  0.9530
 3245TIP3   OH231149   4.606   1.793  16.089  0.5357 -0.2213  0.7207
 3245TIP3    H131150   4.587   1.755  16.003  0.7844 -0.1830  0.6479
 3245TIP3    H231151   4.569   1.881  16.085  0.5527 -0.2168  0.6479
 3246TIP3   OH231152   1.248   3.848   3.956 -0.3653 -0.2854  0.3448
 3246TIP3    H131153   1.177   3.810   3.905 -0.1394 -0.2957  0.0307
 3246TIP3    H231154   1.247   3.800   4.038 -0.2780 -0.7652  0.0702
 3247TIP3   OH231155   3.050   4.747   4.617  0.0541 -0.1183 -0.0470
 3247TIP3    H131156   2.969   4.787   4.647  0.8543 -0.0117  2.1428
 3247TIP3    H231157   3.029   4.713   4.530 -2.0827  0.5955  0.1280
 3248TIP3   OH231158   6.288   3.382   6.390  0.1866  0.6067  0.0224
 3248TIP3    H131159   6.216   3.343   6.440  0.1931  0.5522 -0.0112
 3248TIP3    H231160   6.310   3.461   6.439  0.1994  0.5486  0.1116
 3249TIP3   OH231161   1.614   1.783   3.652  0.1312  0.1685 -0.1288
 3249TIP3    H131162   1.690   1.762   3.598 -0.2057 -4.3816  0.8014
 3249TIP3    H231163   1.541   1.737   3.611 -0.0693 -3.8803  3.9478
 3250TIP3   OH231164   6.262   4.683   6.022 -0.3135 -0.0082 -0.6963
 3250TIP3    H131165   6.348   4.722   6.006 -0.4549  1.2383  1.2407
 3250TIP3    H231166   6.209   4.755   6.055 -1.2259 -1.3810  0.9872
 3251TIP3   OH231167   3.217   5.241  14.621  0.3587 -0.5906  0.1815
 3251TIP3    H131168   3.272   5.163  14.608  0.7201 -0.3945  0.5346
 3251TIP3    H231169   3.150   5.212  14.683 -0.4878 -1.0947 -0.9306
 3252TIP3   OH231170   4.322   3.968  15.701  0.3365 -0.0241  0.3236
 3252TIP3    H131171   4.415   3.946  15.695  0.7077  0.3800  3.0168
 3252TIP3    H231172   4.313   4.006  15.789 -2.0500  1.6174 -0.5349
 3253TIP3   OH231173   5.540   4.294  12.426  0.5780  0.0277  0.1810
 3253TIP3    H131174   5.577   4.221  12.377  1.0322 -1.3096  2.3983
 3253TIP3    H231175   5.575   4.372  12.383 -1.0167 -0.9049 -3.1159
 3254TIP3   OH231176   0.503   5.140   6.313 -0.4604 -0.4037 -0.5876
 3254TIP3    H131177   0.485   5.047   6.300 -1.8754 -0.2258 -0.0121
 3254TIP3    H231178   0.420   5.183   6.293 -0.6959  0.4731  1.9818
 3255TIP3   OH231179   1.930   2.059  15.305 -0.5920  0.2944  0.2104
 3255TIP3    H131180   1.971   2.088  15.223 -0.6402 -0.8311 -0.2308
 3255TIP3    H231181   1.976   2.108  15.373 -0.5363  1.2360 -0.4791
 3256TIP3   OH231182   5.201   0.383   5.224  0.2355  0.1306  0.3821
 3256TIP3    H131183   5.219   0.421   5.310  0.8289  0.6245  0.0553
 3256TIP3    H231184   5.239   0.446   5.162 -2.2097  0.9699 -0.3605
 3257TIP3   OH231185   5.204   3.809  10.733  0.0994  0.1123 -0.5086
 3257TIP3    H131186   5.210   3.741  10.666 -1.2991  0.1635 -0.7275
 3257TIP3    H231187   5.251   3.773  10.808  0.5830 -0.4885 -1.0890
 3258TIP3   OH231188   3.908   5.516   5.302  0.5056  0.2115  0.1157
 3258TIP3    H131189   3.990   5.509   5.352  0.8130 -0.7598 -0.4881
 3258TIP3    H231190   3.865   5.431   5.314  1.1772 -0.5548 -2.2050
 3259TIP3   OH231191   1.560   0.158  12.727 -0.6262  0.4291 -0.0199
 3259TIP3    H131192   1.577   0.232  12.669 -0.2757 -1.1133 -1.9941
 3259TIP3    H231193   1.605   0.084  12.686  0.9341 -0.4780  3.0556
 3260TIP3   OH231194   4.775   3.631  15.777 -0.6287  0.0357 -0.0029
 3260TIP3    H131195   4.725   3.685  15.838 -0.1341 -0.0087  0.4434
 3260TIP3    H231196   4.844   3.689  15.745  0.2933 -0.4918  0.9581
 3261TIP3   OH231197   2.404   2.624   0.082  0.1999 -0.1720  0.1479
 3261TIP3    H131198   2.372   2.555   0.139  1.9383 -0.9876  0.2119
 3261TIP3    H231199   2.494   2.640   0.111  0.1229  1.5241 -0.4268
 3262TIP3   OH231200   3.196   6.641   1.714  0.8738  0.4325 -0.1834
 3262TIP3    H131201   3.101   6.637   1.728  1.0275 -0.1568  0.7691
 3262TIP3    H231202   3.208   6.711   1.650 -0.3797 -0.9697 -2.0424
 3263TIP3   OH231203   6.620   2.119   4.531  0.1401 -0.1191  0.2680
 3263TIP3    H131204   6.555   2.064   4.487  1.1773 -1.1584 -0.0396
 3263TIP3    H231205   6.700   2.065   4.531  1.4406  1.6726 -0.7620
 3264TIP3   OH231206   0.101   0.211   0.788  0.0253  0.6172 -0.6769
 3264TIP3    H131207   0.120   0.147   0.719  0.1874 -1.1860  0.9501
 3264TIP3    H231208   0.152   0.288   0.763  0.6481 -0.2235 -2.1822
 3265TIP3   OH231209   0.146   0.980  16.995  0.4582 -0.0696 -0.5092
 3265TIP3    H131210   0.195   0.961  17.075 -0.8030  0.2134  0.3627
 3265TIP3    H231211   0.056   0.955  17.016 -0.1123  1.1349 -1.4317
 3266TIP3   OH231212   4.083   5.410  11.911 -0.4454 -0.1393 -0.7735
 3266TIP3    H131213   4.095   5.334  11.854  0.9545  0.2457 -1.0286
 3266TIP3    H231214   4.104   5.485  11.856 -1.1647  0.3915 -0.3387
 3267TIP3   OH231215   2.355   4.250   2.010 -0.4944  1.2890  0.1618
 3267TIP3    H131216   2.356   4.331   2.061 -0.0238  0.7184  1.0989
 3267TIP3    H231217   2.265   4.242   1.979 -2.0510 -0.4029  4.3975
 3268TIP3   OH231218   2.349   2.357   5.370 -0.1724 -0.1514 -0.0968
 3268TIP3    H131219   2.338   2.430   5.309  3.8521 -0.5475 -1.6192
 3268TIP3    H231220   2.419   2.304   5.332 -2.0797 -4.2713  1.5172
 3269TIP3   OH231221   3.993   4.415  13.922  0.3531 -0.7351 -0.1772
 3269TIP3    H131222   3.940   4.408  13.843  0.6566  0.2259 -0.4721
 3269TIP3    H231223   4.057   4.344  13.915 -1.5697 -2.6632  0.7408
 3270TIP3   OH231224   4.924   2.982  13.990  0.1141 -0.3673 -0.1093
 3270TIP3    H131225   4.877   2.954  13.912  0.3907  0.2297 -0.4966
 3270TIP3    H231226   5.003   3.025  13.957 -1.1760  2.6120  0.3683
 3271TIP3   OH231227   4.588   6.520   4.316  0.3385 -0.3311  0.0786
 3271TIP3    H131228   4.621   6.546   4.230 -1.5803  0.1150 -0.5833
 3271TIP3    H231229   4.642   6.567   4.379  0.2909  1.1684 -0.9727
 3272TIP3   OH231230   4.779   5.984  12.927  0.4492 -0.3841 -0.0198
 3272TIP3    H131231   4.764   6.074  12.954 -0.4786 -0.5999  0.2060
 3272TIP3    H231232   4.811   5.940  13.006 -2.1808 -0.9953  0.8057
 3273TIP3   OH231233   4.694   3.811  13.668 -0.2441 -0.0195 -0.1138
 3273TIP3    H131234   4.759   3.871  13.631 -0.1810  0.5209  0.8616
 3273TIP3    H231235   4.739   3.727  13.673  1.4315  0.9397  3.2396
 3274TIP3   OH231236   2.719   5.805   3.435  0.7974  0.2638 -0.0943
 3274TIP3    H131237   2.626   5.804   3.413  0.2405 -3.0058  1.7545
 3274TIP3    H231238   2.721   5.789   3.530  3.2455 -0.5875 -0.2264
 3275TIP3   OH231239   3.375   5.193   6.118 -0.6509 -0.4922  0.5123
 3275TIP3    H131240   3.294   5.142   6.114  0.1847 -1.8200 -0.9520
 3275TIP3    H231241   3.413   5.170   6.203 -1.9991  0.5302  1.4346
 3276TIP3   OH231242   3.513   4.585   5.257 -0.0776 -0.0994 -0.4038
 3276TIP3    H131243   3.604   4.584   5.228 -0.1978  0.1684 -0.7893
 3276TIP3    H231244   3.511   4.524   5.331  0.2743 -0.5941 -0.8024
 3277TIP3   OH231245   4.345   0.611  15.512  0.1360 -0.0553  0.0143
 3277TIP3    H131246   4.325   0.699  15.478  0.3643 -0.6467 -1.7613
 3277TIP3    H231247   4.429   0.621  15.557  1.1856  0.2568 -1.9248
 3278TIP3   OH231248   1.453   0.396   4.684  0.5462  0.1834 -0.2296
 3278TIP3    H131249   1.535   0.347   4.689  0.2112 -0.3030  0.6253
 3278TIP3    H231250   1.403   0.368   4.760 -0.5344  0.2775 -0.8870
 3279TIP3   OH231251   3.744   2.314  15.626  0.6388  0.2431 -0.2815
 3279TIP3    H131252   3.712   2.241  15.678  1.9117 -0.5217 -0.5103
 3279TIP3    H231253   3.707   2.300  15.539 -0.3403  0.7343  0.0417
 3280TIP3   OH231254   2.155   6.578  12.928 -0.1975 -0.1341 -0.1132
 3280TIP3    H131255   2.076   6.523  12.927 -0.7961  0.6509  1.1831
 3280TIP3    H231256   2.224   6.520  12.960 -0.8097 -0.2019  1.1893
 3281TIP3   OH231257   0.157   2.568   1.561 -0.3650  0.5040  0.2093
 3281TIP3    H131258   0.201   2.507   1.620  1.3340  1.8615  0.4379
 3281TIP3    H231259   0.169   2.531   1.474 -0.0992  0.0817  0.4235
 3282TIP3   OH231260   0.756   6.187   5.273 -0.5038 -0.0016  0.0478
 3282TIP3    H131261   0.824   6.255   5.274 -0.3982 -0.0668 -1.0997
 3282TIP3    H231262   0.801   6.107   5.299 -0.3308  0.1120  0.0997
 3283TIP3   OH231263   0.567   0.040  15.464 -0.0750  0.0114  0.5492
 3283TIP3    H131264   0.540  -0.039  15.417 -1.0402  0.6586 -0.0354
 3283TIP3    H231265   0.625   0.086  15.403  0.4158 -0.2034  0.8531
 3284TIP3   OH231266   3.979   0.745  14.221 -0.1304  0.0428  0.0572
 3284TIP3    H131267   4.003   0.788  14.138 -0.6259  0.5730  0.1839
 3284TIP3    H231268   3.901   0.792  14.251  0.4636  0.3477  1.1949
 3285TIP3   OH231269   1.158   5.814  11.147 -0.3964 -0.8676  0.1584
 3285TIP3    H131270   1.240   5.771  11.124  0.2445 -0.0709  0.8965
 3285TIP3    H231271   1.182   5.905  11.163 -0.8695 -1.1769  3.2329
 3286TIP3   OH231272   6.549   1.155   1.542 -0.0702 -0.2313 -0.0704
 3286TIP3    H131273   6.468   1.158   1.491 -0.4106 -1.1441  0.3893
 3286TIP3    H231274   6.591   1.073   1.515  0.0106 -0.4481  0.6997
 3287TIP3   OH231275   5.990   1.635  13.264  0.3412  0.1725 -0.0900
 3287TIP3    H131276   6.034   1.667  13.185  2.0649 -1.5675  0.1124
 3287TIP3    H231277   5.975   1.542  13.248  0.4124 -0.1449  1.4909
 3288TIP3   OH231278   0.507   2.705   3.680  0.5379 -0.1119 -0.1640
 3288TIP3    H131279   0.592   2.747   3.694  0.8433  0.1436 -2.4115
 3288TIP3    H231280   0.528   2.622   3.638 -0.3313  0.2200 -1.2873
 3289TIP3   OH231281   4.438   0.454   0.874 -0.0602 -0.5433 -0.1461
 3289TIP3    H131282   4.526   0.420   0.858 -0.5096 -0.9758 -1.9970
 3289TIP3    H231283   4.445   0.549   0.860  0.2905 -0.4541  0.6220
 3290TIP3   OH231284   4.578   6.083   1.549  0.8329  0.1829 -0.1572
 3290TIP3    H131285   4.502   6.139   1.567 -1.7159 -2.4098 -1.8038
 3290TIP3    H231286   4.618   6.123   1.472 -0.5305  0.2011 -0.9008
 3291TIP3   OH231287   0.126   3.903  15.033  0.0666 -0.6211  0.2054
 3291TIP3    H131288   0.060   3.842  15.000 -0.2933 -2.9896  4.5986
 3291TIP3    H231289   0.079   3.959  15.094  1.0090  2.2972 -1.5336
 3292TIP3   OH231290   1.189   0.734   0.513 -0.1548  0.0512  0.2393
 3292TIP3    H131291   1.108   0.743   0.463  0.6008 -1.4367 -1.3503
 3292TIP3    H231292   1.171   0.663   0.574 -0.2984  0.2468  0.4255
 3293TIP3   OH231293   4.943   1.677  15.683 -0.4189  0.4324  0.8203
 3293TIP3    H131294   4.921   1.617  15.754 -0.0231  0.7045  1.1763
 3293TIP3    H231295   4.860   1.689  15.636 -0.1449 -1.7877 -0.3603
 3294TIP3   OH231296   2.478   2.004   4.302  0.1765 -0.2542 -1.0432
 3294TIP3    H131297   2.537   1.936   4.269 -0.9034 -1.1224 -1.2159
 3294TIP3    H231298   2.424   2.028   4.226  1.4409  1.8277 -1.3888
 3295TIP3   OH231299   0.296   1.328  12.282 -0.0182  0.1699  0.2985
 3295TIP3    H131300   0.202   1.347  12.279 -0.1351 -0.4579 -0.1017
 3295TIP3    H231301   0.306   1.263  12.351  0.3297  1.2928  1.3588
 3296TIP3   OH231302   2.670   6.364  11.960  0.4029 -0.1607 -0.4864
 3296TIP3    H131303   2.608   6.414  11.906  1.2544  0.2830 -1.0850
 3296TIP3    H231304   2.646   6.272  11.944 -0.4775  0.0116 -0.2326
 3297TIP3   OH231305   1.466   1.774  13.248  0.5396  0.3245  0.1758
 3297TIP3    H131306   1.458   1.788  13.342  1.0349  0.8922  0.1410
 3297TIP3    H231307   1.560   1.767  13.232  0.4525  0.0745 -0.2575
 3298TIP3   OH231308   0.908   4.276   2.735 -0.2703 -0.3221 -0.2404
 3298TIP3    H131309   0.915   4.331   2.814 -2.2773 -2.0233  1.2204
 3298TIP3    H231310   0.829   4.307   2.691  0.9540  0.7569 -1.7879
 3299TIP3   OH231311   2.997   0.145  12.254 -0.2182  0.8415 -0.6923
 3299TIP3    H131312   3.031   0.234  12.264 -0.5083  0.7488  2.0711
 3299TIP3    H231313   2.928   0.139  12.321  0.3013 -1.6619 -0.2895
 3300TIP3   OH231314   5.853   2.842  16.529  0.5200  0.5766  0.0286
 3300TIP3    H131315   5.868   2.923  16.481 -0.7791  0.3386 -0.8241
 3300TIP3    H231316   5.819   2.869  16.614  3.7402  1.0503  1.3091
 3301TIP3   OH231317   2.674   0.802  11.127  0.4877 -0.4192  0.7234
 3301TIP3    H131318   2.610   0.835  11.191 -0.0242  1.4889 -0.6923
 3301TIP3    H231319   2.752   0.783  11.180  0.2878  1.6648  1.9005
 3302TIP3   OH231320   0.406   2.740   2.478 -0.6596 -0.3386  0.4081
 3302TIP3    H131321   0.405   2.644   2.483 -2.1634 -0.2919  2.0134
 3302TIP3    H231322   0.337   2.761   2.415  0.2579 -0.3018 -0.6117
 3303TIP3   OH231323   0.170   0.688  11.639 -0.1298 -0.3478 -0.1312
 3303TIP3    H131324   0.075   0.685  11.626 -0.1031 -4.7238 -0.7704
 3303TIP3    H231325   0.198   0.769  11.597 -3.2971 -0.2511 -2.3626
 3304TIP3   OH231326   4.942   0.544  13.244  0.2181 -0.5746  0.0626
 3304TIP3    H131327   5.021   0.496  13.271  1.2841  0.6669 -0.7229
 3304TIP3    H231328   4.877   0.476  13.229  0.7041 -1.5511  2.0500
 3305TIP3   OH231329   3.457   0.900  16.898 -0.0424 -0.2680 -1.4076
 3305TIP3    H131330   3.547   0.870  16.888  0.4275  0.4617  0.2012
 3305TIP3    H231331   3.464   0.978  16.953 -1.7580 -0.8780 -0.2403
 3306TIP3   OH231332   4.913   0.546   3.523  0.4160  0.4028 -0.3724
 3306TIP3    H131333   4.866   0.579   3.599 -1.8965  1.5244 -2.1665
 3306TIP3    H231334   4.960   0.623   3.489  0.8962  0.0725 -0.4684
 3307TIP3   OH231335   0.181   3.287   3.185  0.1749  0.5092 -0.3298
 3307TIP3    H131336   0.212   3.371   3.220  0.8522  0.6905 -1.3107
 3307TIP3    H231337   0.234   3.221   3.228 -1.0160  0.4766  1.1815
 3308TIP3   OH231338   1.285   2.995   4.416  0.1081 -0.2128  0.6488
 3308TIP3    H131339   1.377   2.979   4.436  0.5880 -0.8533 -1.7634
 3308TIP3    H231340   1.286   3.037   4.330 -1.8284  0.6204  0.9758
 3309TIP3   OH231341   5.676   5.979   0.181 -0.1284  0.4128 -0.1039
 3309TIP3    H131342   5.726   5.925   0.242 -0.0566  1.3512  0.7044
 3309TIP3    H231343   5.629   5.916   0.126  0.8243 -0.4676  0.0531
 3310TIP3   OH231344   6.619   3.169   3.317  0.8681  0.0725  0.0594
 3310TIP3    H131345   6.531   3.146   3.288  1.0066 -0.2869 -0.0766
 3310TIP3    H231346   6.649   3.234   3.254  1.1559 -0.6784 -0.5957
 3311TIP3   OH231347   0.634   1.835   0.528 -0.2933  0.1425 -0.2784
 3311TIP3    H131348   0.641   1.872   0.440 -0.7147  1.1988  0.1140
 3311TIP3    H231349   0.548   1.793   0.530  0.3725 -1.3143 -0.8735
 3312TIP3   OH231350   6.086   1.835  12.638  0.1293 -0.4100 -0.1104
 3312TIP3    H131351   6.118   1.763  12.584 -0.1862 -0.8404  0.2655
 3312TIP3    H231352   6.015   1.874  12.587  0.8669  0.1949 -0.6995
 3313TIP3   OH231353   6.625   0.322   4.246  0.1786 -0.0966 -0.6851
 3313TIP3    H131354   6.708   0.283   4.274 -0.0876 -1.0748 -1.2085
 3313TIP3    H231355   6.558   0.264   4.281 -0.2258 -0.1631 -1.5499
 3314TIP3   OH231356   5.270   1.122  12.695  0.4426 -0.3893  0.4973
 3314TIP3    H131357   5.219   1.053  12.653 -0.7532  0.5657  0.3167
 3314TIP3    H231358   5.270   1.100  12.788 -2.0970  0.6360  0.8171
 3315TIP3   OH231359   2.920   2.919   3.292  1.1234 -0.3686  0.4335
 3315TIP3    H131360   2.871   2.837   3.287 -2.5939  1.5926  1.0737
 3315TIP3    H231361   2.915   2.957   3.204  0.7026  0.2305  0.7035
 3316TIP3   OH231362   0.429   2.764   5.161  0.1947  0.2430  0.0849
 3316TIP3    H131363   0.389   2.832   5.106  0.9142  0.0658 -0.6714
 3316TIP3    H231364   0.355   2.717   5.198 -0.3038  0.4280 -0.6574
 3317TIP3   OH231365   3.234   4.727  16.834 -0.1321 -0.4046 -0.0926
 3317TIP3    H131366   3.168   4.682  16.886 -0.3384 -1.9667 -1.6249
 3317TIP3    H231367   3.189   4.805  16.800 -1.3263 -1.5987 -1.3536
 3318TIP3   OH231368   6.569   2.322   3.300  0.2089  0.0856  0.0052
 3318TIP3    H131369   6.545   2.245   3.248 -0.2281  1.3650 -1.7700
 3318TIP3    H231370   6.536   2.303   3.388 -0.2026 -1.5921 -0.4790
 3319TIP3   OH231371   6.048   3.248  15.011 -0.1690  0.6201 -0.1638
 3319TIP3    H131372   6.137   3.241  15.046  0.0992  2.9286 -0.2277
 3319TIP3    H231373   6.025   3.158  14.987  2.7160  0.1048 -1.5509
 3320TIP3   OH231374   6.434   6.183  12.628 -0.3486 -0.8162  0.1020
 3320TIP3    H131375   6.379   6.105  12.625  0.2128 -1.1932 -1.5322
 3320TIP3    H231376   6.391   6.245  12.570  0.0603 -0.4905  0.1440
 3321TIP3   OH231377   2.753   5.697  14.983 -0.0598 -0.0698 -0.5677
 3321TIP3    H131378   2.673   5.679  14.934 -0.0847  0.1034 -0.5925
 3321TIP3    H231379   2.816   5.724  14.917  0.0277 -0.2345 -0.5507
 3322TIP3   OH231380   4.051   3.614  17.071  0.0946 -0.2003 -0.6911
 3322TIP3    H131381   4.060   3.537  17.016 -1.9960 -0.4051 -0.8216
 3322TIP3    H231382   3.971   3.599  17.121  0.8372  0.9016  0.9434
 3323TIP3   OH231383   3.546   2.857   2.138  0.0349  0.4222  0.0267
 3323TIP3    H131384   3.610   2.810   2.084 -0.7757 -0.7677  0.0786
 3323TIP3    H231385   3.569   2.834   2.228  0.9506  1.8574  0.2081
 3324TIP3   OH231386   1.679   4.758   4.119  0.0583 -1.0809 -0.4700
 3324TIP3    H131387   1.647   4.672   4.090 -0.6740 -1.2966  0.8734
 3324TIP3    H231388   1.649   4.819   4.053 -2.6799 -1.3663  0.3918
 3325TIP3   OH231389   3.413   1.825  15.765 -0.2625  1.1592  0.2697
 3325TIP3    H131390   3.490   1.878  15.742  0.2488  0.2260 -0.2220
 3325TIP3    H231391   3.407   1.760  15.695 -0.7477  0.4214  0.9826
 3326TIP3   OH231392   6.372   6.717   4.820 -0.4958 -0.3399  0.1963
 3326TIP3    H131393   6.372   6.688   4.912  3.8851 -1.1726  0.1576
 3326TIP3    H231394   6.390   6.811   4.825  1.7832 -0.7244  0.2990
 3327TIP3   OH231395   6.226   0.211   4.830 -0.4642 -0.2642 -0.1774
 3327TIP3    H131396   6.154   0.242   4.774 -0.2172 -0.9541 -0.8852
 3327TIP3    H231397   6.296   0.190   4.769  0.8788  1.7076  0.5839
 3328TIP3   OH231398   3.846   2.802   3.155  0.1241 -0.1395 -0.2273
 3328TIP3    H131399   3.769   2.771   3.203  0.3577 -0.8238 -0.2852
 3328TIP3    H231400   3.870   2.883   3.200  0.2716 -0.7119  0.7620
 3329TIP3   OH231401   0.816   2.021   3.407  0.2769 -0.1633  0.5958
 3329TIP3    H131402   0.825   2.049   3.498  1.9456 -0.2294  0.4935
 3329TIP3    H231403   0.761   2.087   3.366 -1.5874 -0.8205  1.9136
 3330TIP3   OH231404   6.186   6.566   4.362 -0.0986  0.3923  0.1770
 3330TIP3    H131405   6.216   6.575   4.452  0.7797  2.8049 -0.2916
 3330TIP3    H231406   6.264   6.539   4.313 -0.3461  0.0119 -0.0145
 3331TIP3   OH231407   6.689   5.880  16.586  0.2376 -0.0782  0.2858
 3331TIP3    H131408   6.694   5.785  16.585 -0.4442 -0.1248  0.4801
 3331TIP3    H231409   6.628   5.902  16.515  1.1786  0.2756 -0.4299
 3332TIP3   OH231410   3.841   2.191   1.304 -0.5153  0.1353 -0.2105
 3332TIP3    H131411   3.790   2.110   1.311 -0.2760  0.0472  0.5669
 3332TIP3    H231412   3.798   2.240   1.234 -0.1337 -1.0477 -1.3206
 3333TIP3   OH231413   3.745   0.714   0.278  0.0994  0.4097 -0.0068
 3333TIP3    H131414   3.732   0.807   0.296  0.3470  0.0920  2.1143
 3333TIP3    H231415   3.820   0.711   0.218 -0.9729  1.6116 -1.4980
 3334TIP3   OH231416   4.594   2.760   4.535  0.0771 -0.1187  0.5145
 3334TIP3    H131417   4.546   2.687   4.496  2.9318 -3.4880  2.6507
 3334TIP3    H231418   4.674   2.767   4.482 -0.0861  1.4190  0.4395
 3335TIP3   OH231419   2.049   0.905  15.185 -0.2288  0.5381  0.1931
 3335TIP3    H131420   2.138   0.942  15.186  0.2650 -0.4503  2.6803
 3335TIP3    H231421   1.996   0.969  15.232 -0.2693  0.0405  0.8483
 3336TIP3   OH231422   2.227   5.403  12.625 -0.2510  0.4337 -0.2859
 3336TIP3    H131423   2.267   5.318  12.608  0.6510  0.5911  0.9163
 3336TIP3    H231424   2.215   5.405  12.720 -2.1410  0.8401 -0.4965
 3337TIP3   OH231425   5.819   1.833  13.387 -0.2190  0.2498 -0.5532
 3337TIP3    H131426   5.843   1.883  13.465 -2.2761  0.8527 -0.2460
 3337TIP3    H231427   5.890   1.770  13.376  0.7649  1.0199  1.0295
 3338TIP3   OH231428   3.489   1.237   3.123  0.0859 -0.4867 -0.6319
 3338TIP3    H131429   3.448   1.218   3.208 -1.6363  1.2741 -0.9858
 3338TIP3    H231430   3.554   1.304   3.142  0.4871 -0.9003 -0.5439
 3339TIP3   OH231431   0.625   5.493   3.826 -0.5808 -0.1874  0.3473
 3339TIP3    H131432   0.685   5.489   3.901  0.2872  0.3651 -0.2894
 3339TIP3    H231433   0.594   5.403   3.815 -0.2018 -0.3992  0.9663
 3340TIP3   OH231434   2.192   3.058  10.998 -0.0921  0.1482 -0.3056
 3340TIP3    H131435   2.116   3.114  10.983 -0.0336 -0.2048 -2.0588
 3340TIP3    H231436   2.154   2.972  11.017 -0.1392  0.2723  0.1824
 3341TIP3   OH231437   3.542   5.104   4.258  0.1800 -0.1404  0.5154
 3341TIP3    H131438   3.452   5.135   4.268  0.1406  0.1050 -0.5208
 3341TIP3    H231439   3.535   5.023   4.208  0.3797 -1.3376  2.2946
 3342TIP3   OH231440   1.178   5.058   3.864 -0.4615  0.9846  0.0827
 3342TIP3    H131441   1.124   5.002   3.919  0.5755  1.0858  1.2546
 3342TIP3    H231442   1.256   5.076   3.917  2.2315 -1.6264 -2.6196
 3343TIP3   OH231443   2.105   0.657   5.003  0.3672  0.3323  0.0388
 3343TIP3    H131444   2.093   0.563   5.010 -0.6374  0.4618  0.2845
 3343TIP3    H231445   2.171   0.678   5.069 -0.3009 -0.0489  0.8579
 3344TIP3   OH231446   3.112   2.266   0.034  0.0529  0.0824 -0.3937
 3344TIP3    H131447   3.152   2.346  -0.001  0.4040  0.4566  0.8141
 3344TIP3    H231448   3.158   2.250   0.117 -1.4051 -0.2032  0.3974
 3345TIP3   OH231449   1.692   1.850   3.213 -0.7855 -0.5851  0.5654
 3345TIP3    H131450   1.669   1.781   3.150 -1.1000  0.8082 -0.8965
 3345TIP3    H231451   1.731   1.919   3.160 -1.0086  0.6244  1.9185
 3346TIP3   OH231452   3.681   6.372   5.680  0.0337  0.1510  0.1988
 3346TIP3    H131453   3.735   6.448   5.659  0.1549  0.0003 -0.0379
 3346TIP3    H231454   3.637   6.396   5.762 -0.4189  0.7307 -0.1995
 3347TIP3   OH231455   0.620   3.562  16.416 -0.4181  0.2068 -0.5812
 3347TIP3    H131456   0.676   3.497  16.375  0.2629 -0.0377  0.6985
 3347TIP3    H231457   0.670   3.594  16.491 -0.7379  2.2232 -1.1749
 3348TIP3   OH231458   3.528   6.641  15.295 -0.2785 -0.3097 -0.0921
 3348TIP3    H131459   3.471   6.622  15.220 -1.1722  1.1722  0.1810
 3348TIP3    H231460   3.472   6.632  15.372  0.1371  0.0644  0.2648
 3349TIP3   OH231461   2.925   4.146   2.024  0.2814  0.5609  0.1369
 3349TIP3    H131462   2.863   4.218   2.039  0.2485  0.6907 -0.5843
 3349TIP3    H231463   2.938   4.107   2.111 -0.1157  1.0975  0.4441
 3350TIP3   OH231464   6.077   1.879   5.424  0.1908 -0.3267  0.0224
 3350TIP3    H131465   6.000   1.903   5.475  1.0210 -2.6067  2.6090
 3350TIP3    H231466   6.137   1.841   5.488  2.4280 -0.9841 -2.3032
 3351TIP3   OH231467   0.208   1.393  13.502  0.0689  0.0969 -0.6994
 3351TIP3    H131468   0.193   1.484  13.527  0.9118  0.5731 -1.8290
 3351TIP3    H231469   0.269   1.360  13.568  0.5811  0.6798 -0.8742
 3352TIP3   OH231470   6.572   3.420   3.501  0.0202 -0.3143  0.1107
 3352TIP3    H131471   6.581   3.507   3.540  2.3421 -0.5998  0.3388
 3352TIP3    H231472   6.602   3.430   3.411 -0.8490 -0.6423 -0.2225
 3353TIP3   OH231473   3.482   1.471   4.645 -0.1471  0.2546  0.0219
 3353TIP3    H131474   3.528   1.504   4.567 -2.7623 -0.0829 -1.7825
 3353TIP3    H231475   3.435   1.547   4.678 -0.3321  0.0146  0.3088
 3354TIP3   OH231476   0.601   2.626  16.262 -0.0948 -0.1505 -0.3494
 3354TIP3    H131477   0.624   2.717  16.241  0.6869 -0.5125 -1.1260
 3354TIP3    H231478   0.621   2.618  16.355 -0.9556  0.6991 -0.0724
 3355TIP3   OH231479   1.457   2.491   0.933  0.2428  0.1785 -0.0518
 3355TIP3    H131480   1.385   2.522   0.878  0.7180  0.9199 -0.2836
 3355TIP3    H231481   1.535   2.507   0.879  0.5287 -1.2531 -0.0904
 3356TIP3   OH231482   5.536   5.858  14.677 -0.1361  0.2609 -0.2630
 3356TIP3    H131483   5.623   5.862  14.640 -0.2530 -0.0135 -0.5710
 3356TIP3    H231484   5.542   5.907  14.760  0.0382  1.1764 -0.8025
 3357TIP3   OH231485   2.312   3.901   3.173  0.3170  0.5425  0.6224
 3357TIP3    H131486   2.373   3.919   3.245 -0.0834 -1.5492  1.5649
 3357TIP3    H231487   2.228   3.887   3.217  0.1793 -1.3590 -0.1601
 3358TIP3   OH231488   3.650   0.037  13.626 -0.4651  0.9168 -0.2391
 3358TIP3    H131489   3.702   0.064  13.551 -2.2502 -1.5052 -2.5280
 3358TIP3    H231490   3.706  -0.026  13.672  0.1362  1.4004 -0.2923
 3359TIP3   OH231491   4.100   1.888   0.099 -0.0850  0.2974 -0.0106
 3359TIP3    H131492   4.039   1.878   0.026  1.8456  0.5801 -1.7442
 3359TIP3    H231493   4.177   1.838   0.074  0.9266  1.0206  1.4909
 3360TIP3   OH231494   3.578   5.848   0.434  0.3013 -0.3102  0.0894
 3360TIP3    H131495   3.573   5.905   0.510  1.8228 -0.5031  0.3712
 3360TIP3    H231496   3.493   5.857   0.391 -0.4909  0.0069  1.6498
 3361TIP3   OH231497   2.995   5.156  12.119  0.9659  0.2104  0.0789
 3361TIP3    H131498   3.090   5.150  12.126  0.9409  1.0440  1.5410
 3361TIP3    H231499   2.978   5.247  12.095  0.5544 -0.1663 -1.1346
 3362TIP3   OH231500   5.134   3.212   4.953 -0.0553 -0.2695  0.2849
 3362TIP3    H131501   5.165   3.262   4.878 -1.3284 -0.1435 -0.1903
 3362TIP3    H231502   5.065   3.266   4.991 -0.3237 -0.9275  0.7568
 3363TIP3   OH231503   6.434   1.907   4.184  0.2251 -0.6461 -0.0412
 3363TIP3    H131504   6.457   1.820   4.216  3.6510  0.1675  0.0563
 3363TIP3    H231505   6.451   1.903   4.090  3.7530  0.7065  0.4061
 3364TIP3   OH231506   2.957   5.125  15.225  0.0103 -0.1922 -0.0702
 3364TIP3    H131507   2.979   5.117  15.133  0.8117 -3.8532  0.3061
 3364TIP3    H231508   2.999   5.206  15.253  0.0446  0.8185 -2.7852
 3365TIP3   OH231509   5.400   3.689   6.390  0.0969 -0.1713  0.0813
 3365TIP3    H131510   5.450   3.737   6.456 -1.0873  0.3376  0.6408
 3365TIP3    H231511   5.357   3.757   6.338 -1.0972 -0.6033  0.4781
 3366TIP3   OH231512   0.825   1.819  17.178 -0.1675 -0.0348  0.0099
 3366TIP3    H131513   0.882   1.895  17.161  0.5038 -0.3255  0.8725
 3366TIP3    H231514   0.798   1.830  17.269 -0.3844 -0.6287  0.0203
 3367TIP3   OH231515   6.680   6.083   3.089 -0.4230  0.6691 -0.0129
 3367TIP3    H131516   6.744   6.016   3.114  1.1441  1.6071 -1.2991
 3367TIP3    H231517   6.686   6.149   3.157  1.2821  1.5596 -0.9645
 3368TIP3   OH231518   3.357   0.431  16.076 -0.3691  0.3742 -0.0408
 3368TIP3    H131519   3.345   0.354  16.130 -0.5680  0.3758 -0.0810
 3368TIP3    H231520   3.291   0.423  16.008  0.6398 -0.2381 -0.9906
 3369TIP3   OH231521   5.695   0.663   6.112  0.8204 -0.2337  0.4655
 3369TIP3    H131522   5.604   0.634   6.107  0.1453  1.2446  2.6820
 3369TIP3    H231523   5.698   0.743   6.060  0.2642  0.8621  2.0263
 3370TIP3   OH231524   1.753   5.255   0.054  0.6954  0.1119  0.0448
 3370TIP3    H131525   1.803   5.176   0.035  0.7992  0.1844  0.0141
 3370TIP3    H231526   1.808   5.304   0.115  0.8028  0.3386 -0.2326
 3371TIP3   OH231527   5.493   6.700   3.837 -0.1603  0.0573 -0.4551
 3371TIP3    H131528   5.416   6.666   3.791  0.0634  1.4389 -1.9334
 3371TIP3    H231529   5.567   6.660   3.792  0.0841 -2.6809  2.0759
 3372TIP3   OH231530   1.830   0.893  11.479 -0.0666  0.1451 -0.6307
 3372TIP3    H131531   1.790   0.933  11.403 -0.3331 -1.5321 -1.4167
 3372TIP3    H231532   1.917   0.933  11.484  0.1239 -0.0385 -2.0782
 3373TIP3   OH231533   4.073   3.250  15.285 -0.3748  0.1428  0.8407
 3373TIP3    H131534   4.043   3.246  15.194 -1.8943 -0.5758  1.3419
 3373TIP3    H231535   4.079   3.159  15.313 -1.9355  0.3615  2.0539
 3374TIP3   OH231536   6.344   3.714   5.279  0.9706 -0.2027  0.3090
 3374TIP3    H131537   6.391   3.773   5.338  0.1032  0.6536  0.1799
 3374TIP3    H231538   6.261   3.759   5.262 -0.4034 -2.1552  1.4468
 3375TIP3   OH231539   6.346   2.563  14.280  0.5136  0.2602 -0.5324
 3375TIP3    H131540   6.273   2.577  14.220  0.3431  1.8916  0.0015
 3375TIP3    H231541   6.305   2.546  14.365  0.7562 -0.8672 -0.6321
 3376TIP3   OH231542   2.789   0.116   1.547  0.0475 -0.1820  0.1825
 3376TIP3    H131543   2.801   0.176   1.622 -0.1939  0.2807 -0.1427
 3376TIP3    H231544   2.695   0.120   1.528  0.1145 -0.2625 -0.1701
 3377TIP3   OH231545   0.333   0.605   2.999 -0.0294  0.2080  0.1125
 3377TIP3    H131546   0.247   0.607   3.041 -1.1191 -1.8310 -1.7950
 3377TIP3    H231547   0.387   0.551   3.057 -1.7457 -3.3050 -1.2584
 3378TIP3   OH231548   1.242   5.783   1.507  0.4804 -0.0500  0.2704
 3378TIP3    H131549   1.323   5.741   1.480  0.1948  0.2794 -1.1358
 3378TIP3    H231550   1.176   5.752   1.445 -0.8612 -1.5450  2.2907
 3379TIP3   OH231551   1.532   4.063  11.190  0.1185  0.2194  0.3886
 3379TIP3    H131552   1.550   4.020  11.107 -0.7429  0.9950 -0.2134
 3379TIP3    H231553   1.566   4.002  11.256 -1.7772 -1.8012 -0.3856
 3380TIP3   OH231554   3.424   1.834   1.874 -0.4860  0.2004  0.2824
 3380TIP3    H131555   3.375   1.903   1.829  0.0459  0.3121 -0.1286
 3380TIP3    H231556   3.365   1.759   1.875 -0.8958  0.5212  0.3308
 3381TIP3   OH231557   5.916   1.065   1.242  0.3604  0.4125  0.4592
 3381TIP3    H131558   5.984   1.078   1.308  2.3506  0.4392 -1.4989
 3381TIP3    H231559   5.890   0.974   1.251  1.3533  0.1417  0.6247
 3382TIP3   OH231560   0.916   1.156  14.554 -0.3451 -0.9602  0.5861
 3382TIP3    H131561   0.889   1.167  14.645  1.7036 -0.1814  1.1569
 3382TIP3    H231562   0.939   1.244  14.525  0.9205 -1.4827 -0.0416
 3383TIP3   OH231563   0.293   2.211  13.075  0.3463  0.6523  0.1412
 3383TIP3    H131564   0.246   2.285  13.115 -0.9211 -0.1427  0.1511
 3383TIP3    H231565   0.369   2.252  13.033  1.4731  1.6023  2.8577
 3384TIP3   OH231566   6.345   4.831  11.436  0.3878  0.1714 -0.1955
 3384TIP3    H131567   6.270   4.814  11.378  0.8501  0.2876 -0.8418
 3384TIP3    H231568   6.307   4.876  11.512 -0.4508 -1.3351  0.3012
 3385TIP3   OH231569   6.076   0.915   5.857 -0.6715 -0.0576  0.1845
 3385TIP3    H131570   6.049   0.846   5.797 -0.3355 -1.0669  1.1650
 3385TIP3    H231571   5.998   0.934   5.909 -0.7843  0.3689 -0.1316
 3386TIP3   OH231572   5.169   3.001  14.313 -0.7569  0.0438 -0.3796
 3386TIP3    H131573   5.114   3.030  14.385 -0.0785 -0.5370  0.3855
 3386TIP3    H231574   5.122   2.926  14.275 -1.0090  0.2198 -0.4183
 3387TIP3   OH231575   6.419   3.885  12.604  0.3723 -0.0689 -0.0033
 3387TIP3    H131576   6.366   3.950  12.651 -1.5013  0.8063 -3.0369
 3387TIP3    H231577   6.509   3.913  12.616 -0.2357  1.6613  0.8273
 3388TIP3   OH231578   2.623   0.690   5.969  0.1747  0.4964 -0.4245
 3388TIP3    H131579   2.600   0.783   5.975 -0.0963  0.4207 -0.3108
 3388TIP3    H231580   2.589   0.651   6.049 -0.5849  0.1074 -0.9230
 3389TIP3   OH231581   5.088   4.461  15.723  0.1467  0.0279  0.4968
 3389TIP3    H131582   5.070   4.553  15.742 -0.0303 -0.0033  0.4758
 3389TIP3    H231583   5.067   4.415  15.804 -1.8716 -0.2796 -0.1460
 3390TIP3   OH231584   5.547   3.805  12.664 -0.2941  0.5311  0.3011
 3390TIP3    H131585   5.456   3.804  12.634 -0.7735 -1.1024  1.5978
 3390TIP3    H231586   5.582   3.721  12.635  0.0471  0.1191  1.7952
 3391TIP3   OH231587   0.620   3.141  16.318 -0.2092 -0.4721 -0.3676
 3391TIP3    H131588   0.621   3.222  16.268  1.4151  0.0780  0.4973
 3391TIP3    H231589   0.564   3.159  16.393  0.6701  0.0831  0.1651
 3392TIP3   OH231590   3.276   5.082   2.851  0.2672 -0.0459 -0.1825
 3392TIP3    H131591   3.194   5.057   2.810  0.5704  1.0259 -1.4894
 3392TIP3    H231592   3.250   5.123   2.934 -0.4419 -0.5173 -0.1609
 3393TIP3   OH231593   2.014   5.480   4.722 -0.6546  0.0624 -0.0816
 3393TIP3    H131594   1.984   5.474   4.631 -1.8501  1.4249  0.2021
 3393TIP3    H231595   2.084   5.546   4.720 -1.1199  0.5632  0.0886
 3394TIP3   OH231596   3.960   5.071   2.883 -0.1563  0.4172  0.1603
 3394TIP3    H131597   3.984   5.161   2.864 -1.3358  0.6654 -0.2144
 3394TIP3    H231598   3.920   5.039   2.802  3.0700 -1.4781 -0.8694
 3395TIP3   OH231599   4.741   5.094  14.044  0.7160 -0.0036  0.7132
 3395TIP3    H131600   4.706   5.168  13.995 -0.5983 -0.0921  1.4775
 3395TIP3    H231601   4.671   5.069  14.104  0.5199 -2.8372 -0.5418
 3396TIP3   OH231602   2.299   3.348   1.667  0.0055 -0.3662  0.1040
 3396TIP3    H131603   2.327   3.428   1.623  0.2615  0.3404  1.4944
 3396TIP3    H231604   2.380   3.298   1.680 -0.2614 -1.3228 -1.5759
 3397TIP3   OH231605   1.574   1.785   5.849 -0.1740 -0.4705 -0.5570
 3397TIP3    H131606   1.528   1.818   5.926  0.5140  0.4450 -0.5196
 3397TIP3    H231607   1.638   1.853   5.828  1.2871 -1.7670 -0.5052
 3398TIP3   OH231608   4.904   0.815  13.143 -0.0707 -0.5542  0.6598
 3398TIP3    H131609   4.937   0.791  13.057  0.0396 -1.3542  0.9109
 3398TIP3    H231610   4.918   0.736  13.197  0.9174  0.2997  1.7067
 3399TIP3   OH231611   6.707   1.018  12.973  0.0039  0.6964  0.2801
 3399TIP3    H131612   6.644   0.967  12.923 -0.5425 -0.1500  1.7426
 3399TIP3    H231613   6.657   1.048  13.050  1.4328 -0.3452  1.6925
 3400TIP3   OH231614   0.782   2.662   4.264  0.3740 -0.5205 -0.1356
 3400TIP3    H131615   0.828   2.720   4.203 -0.1274 -0.4932 -0.4935
 3400TIP3    H231616   0.693   2.695   4.266  0.9567  1.1585  2.7200
 3401TIP3   OH231617   3.406   0.041  16.881  0.5241  0.2955 -0.6722
 3401TIP3    H131618   3.470   0.015  16.815 -1.0191 -2.4416 -1.2440
 3401TIP3    H231619   3.335   0.080  16.830  0.3386  0.3256 -0.3899
 3402TIP3   OH231620   5.282   1.915   6.819  0.5128  0.2075 -0.2306
 3402TIP3    H131621   5.233   1.853   6.874 -1.0479  1.1141 -0.5339
 3402TIP3    H231622   5.265   2.000   6.858  1.6210  0.5836 -0.5500
 3403TIP3   OH231623   6.676   5.922  13.709 -0.4405  0.0254  0.8622
 3403TIP3    H131624   6.662   6.016  13.719  0.7885  0.3165  0.0729
 3403TIP3    H231625   6.706   5.911  13.619 -1.8663 -1.3101  0.4993
 3404TIP3   OH231626   5.853   0.276  10.918  0.7288 -0.3054  0.3737
 3404TIP3    H131627   5.909   0.205  10.950  2.5605  0.8517 -0.1467
 3404TIP3    H231628   5.909   0.353  10.917 -1.6352  1.6270  2.5232
 3405TIP3   OH231629   2.503   4.234   0.133  0.1637  0.3633  0.1807
 3405TIP3    H131630   2.578   4.231   0.073 -0.5926 -1.1348 -0.7540
 3405TIP3    H231631   2.445   4.165   0.102 -1.1469  0.8174  1.5113
 3406TIP3   OH231632   0.805   3.994  14.572  0.3650  0.1665  0.4515
 3406TIP3    H131633   0.751   3.960  14.501 -0.4299 -0.7360  1.4575
 3406TIP3    H231634   0.773   4.083  14.585  0.8003  0.4925 -0.5707
 3407TIP3   OH231635   1.077   2.061  13.187 -0.2501  0.0787  0.3951
 3407TIP3    H131636   1.108   2.133  13.131 -1.2313 -0.1027 -0.4107
 3407TIP3    H231637   1.142   1.992  13.175  1.6679  1.3793  2.5154
 3408TIP3   OH231638   1.222   4.384   3.446 -0.4897  0.1412  0.6393
 3408TIP3    H131639   1.304   4.341   3.467 -0.7351 -0.7098 -0.0752
 3408TIP3    H231640   1.210   4.449   3.516  0.4203 -0.2107  1.1396
 3409TIP3   OH231641   5.059   5.767   1.501 -0.0244 -0.4303  0.3804
 3409TIP3    H131642   5.030   5.795   1.414 -1.4214  1.1322  1.2805
 3409TIP3    H231643   5.115   5.692   1.484 -0.9187 -0.6990 -1.8129
 3410TIP3   OH231644   5.891   0.688   3.989 -0.0450 -0.1373 -0.4826
 3410TIP3    H131645   5.844   0.771   3.983  1.2145  0.6255 -0.1074
 3410TIP3    H231646   5.829   0.628   4.032 -0.0254  1.3682  1.8180
 3411TIP3   OH231647   5.482   3.487   1.189 -0.3997  0.6649 -0.6280
 3411TIP3    H131648   5.411   3.439   1.232  0.4301 -1.4576 -1.4632
 3411TIP3    H231649   5.555   3.483   1.252  0.2963 -1.0083 -1.4728
 3412TIP3   OH231650   2.170   6.669  13.642 -0.1854  0.5883  0.1127
 3412TIP3    H131651   2.231   6.741  13.624  0.0411  0.5551  0.7421
 3412TIP3    H231652   2.187   6.605  13.573  0.4955  0.5761  0.2873
 3413TIP3   OH231653   1.782   5.818   0.245 -0.4671  0.1865  0.3126
 3413TIP3    H131654   1.877   5.829   0.242 -0.2624 -1.3321  0.6959
 3413TIP3    H231655   1.754   5.831   0.154  0.1046  0.5583  0.1836
 3414TIP3   OH231656   0.544   4.120  14.092  0.4827  0.6281  0.0087
 3414TIP3    H131657   0.607   4.128  14.164  1.6378 -0.0069 -0.8790
 3414TIP3    H231658   0.597   4.088  14.018 -1.1226 -1.2370 -0.4185
 3415TIP3   OH231659   2.561   2.145  13.823  0.2276 -0.1533  0.3830
 3415TIP3    H131660   2.549   2.182  13.911  0.6451  0.4588  0.1901
 3415TIP3    H231661   2.643   2.096  13.829 -0.2997 -1.0154  0.6241
 3416TIP3   OH231662   5.357   1.513  14.257  0.5664 -0.4952  0.4651
 3416TIP3    H131663   5.450   1.526  14.275  0.3276 -0.3639  1.7569
 3416TIP3    H231664   5.355   1.444  14.191  1.5922 -0.2442  0.1563
 3417TIP3   OH231665   0.549   2.650  12.486  0.5242  0.0080  0.4559
 3417TIP3    H131666   0.542   2.555  12.497 -0.2406 -0.3687 -2.3647
 3417TIP3    H231667   0.569   2.661  12.393  2.8073  2.5737  1.1552
 3418TIP3   OH231668   3.492   1.063  12.873 -0.6800 -0.2003  0.0631
 3418TIP3    H131669   3.487   1.158  12.871  0.9313 -0.1069 -1.6485
 3418TIP3    H231670   3.475   1.040  12.964 -1.4549  1.6809  0.4327
 3419TIP3   OH231671   5.525   5.366  15.454  0.4385  0.7429  0.2212
 3419TIP3    H131672   5.566   5.449  15.478  0.3974  1.8796 -3.1716
 3419TIP3    H231673   5.431   5.384  15.455  0.4424  0.8788 -0.8808
 3420TIP3   OH231674   3.879   5.846  16.205  0.4633 -0.0834  0.3185
 3420TIP3    H131675   3.967   5.882  16.210  0.3707  0.4452 -1.2457
 3420TIP3    H231676   3.832   5.905  16.146 -1.8355  1.3667  3.3219
 3421TIP3   OH231677   4.504   0.039  15.282 -0.5484 -0.0414 -0.5807
 3421TIP3    H131678   4.555   0.070  15.207 -1.2911 -1.7755 -1.8758
 3421TIP3    H231679   4.425   0.093  15.282 -0.0841  0.6473 -0.4069
 3422TIP3   OH231680   5.509   0.997   2.441 -0.2553  0.0821  0.3029
 3422TIP3    H131681   5.465   1.075   2.407  1.0596  0.9197  0.4355
 3422TIP3    H231682   5.440   0.947   2.484 -1.2111  0.9465 -0.1883
 3423TIP3   OH231683   5.371   2.032   3.587 -0.1092 -0.0420  0.0274
 3423TIP3    H131684   5.419   2.057   3.508  1.5968  0.5176  1.1786
 3423TIP3    H231685   5.413   1.951   3.617  0.3923  0.6338  1.2403
 3424TIP3   OH231686   5.756   0.188   0.329  0.2743 -0.2014 -0.0276
 3424TIP3    H131687   5.836   0.240   0.319  1.2819 -1.5936  0.5115
 3424TIP3    H231688   5.785   0.098   0.320 -1.1958 -0.7611  0.5460
 3425TIP3   OH231689   0.977   4.747  14.704  0.0542 -0.0996  0.3751
 3425TIP3    H131690   0.906   4.711  14.652  1.1914 -1.8786 -0.0411
 3425TIP3    H231691   1.018   4.670  14.745  2.1702  0.7654  0.0140
 3426TIP3   OH231692   6.646   0.376  15.484  0.6367 -0.5807 -0.1168
 3426TIP3    H131693   6.664   0.296  15.533  0.8010 -0.4868 -0.0251
 3426TIP3    H231694   6.643   0.347  15.392  0.9415 -0.6497 -0.1066
 3427TIP3   OH231695   5.434   6.129  13.618 -0.2402 -0.0911  0.5864
 3427TIP3    H131696   5.353   6.165  13.656 -1.5390 -0.5698 -1.5409
 3427TIP3    H231697   5.450   6.183  13.540  1.1056 -0.4760  0.5707
 3428TIP3   OH231698   0.968   6.788  12.598 -0.1901 -0.1376 -0.1887
 3428TIP3    H131699   1.050   6.739  12.609  0.3915  0.9533  0.4999
 3428TIP3    H231700   0.953   6.831  12.682 -0.6393  0.9206 -0.7827
 3429TIP3   OH231701   3.768   2.505   5.307  0.3423 -0.1299  0.0957
 3429TIP3    H131702   3.793   2.458   5.386 -2.0660 -0.6519  0.6313
 3429TIP3    H231703   3.674   2.493   5.301 -0.3885  4.0676 -0.1285
 3430TIP3   OH231704   0.699   0.418  17.128  0.4525 -0.1001  0.0965
 3430TIP3    H131705   0.634   0.442  17.063  0.5925  0.2539  0.0845
 3430TIP3    H231706   0.681   0.475  17.202  1.0991  0.4011 -0.1205
 3431TIP3   OH231707   2.335   5.024  11.808  0.4833 -0.5049 -0.6553
 3431TIP3    H131708   2.283   5.096  11.772  0.4140 -1.1167 -1.8524
 3431TIP3    H231709   2.294   4.945  11.772 -1.2397 -1.4352  2.8663
 3432TIP3   OH231710   1.826   4.743  11.396  0.0672 -0.1936 -0.3236
 3432TIP3    H131711   1.859   4.764  11.308  1.9278 -1.0354  0.1235
 3432TIP3    H231712   1.800   4.651  11.390  2.4415 -1.0093  0.5370
 3433TIP3   OH231713   0.957   5.032   2.419  0.5206 -0.1564 -0.2857
 3433TIP3    H131714   1.044   4.994   2.430 -0.8645 -3.6313  0.1850
 3433TIP3    H231715   0.905   4.961   2.380 -2.0819  1.8122 -0.6743
 3434TIP3   OH231716   6.009   3.598   2.383 -0.3677 -0.8093  0.0188
 3434TIP3    H131717   6.105   3.597   2.390 -0.3467 -1.5266 -0.2957
 3434TIP3    H231718   5.982   3.511   2.412 -1.0073 -0.2740  1.0595
 3435TIP3   OH231719   2.105   1.799   3.793 -0.1513 -0.3284 -0.1187
 3435TIP3    H131720   2.088   1.865   3.726 -1.0486  0.3319  0.7310
 3435TIP3    H231721   2.069   1.718   3.757 -0.5510  0.0009 -0.4631
 3436TIP3   OH231722   6.518   5.053  12.441  0.4453  0.7710  0.3306
 3436TIP3    H131723   6.469   4.986  12.490  0.0535  1.2360  0.5889
 3436TIP3    H231724   6.593   5.073  12.497  2.2297 -1.5524 -1.0585
 3437TIP3   OH231725   0.488   2.330   1.019 -0.0353  0.5413  0.3857
 3437TIP3    H131726   0.573   2.374   1.010  2.0476 -3.1880 -0.7716
 3437TIP3    H231727   0.484   2.305   1.111  1.0249 -0.6359  0.1525
 3438TIP3   OH231728   3.397   1.240  12.150 -0.1048  0.5373  0.2701
 3438TIP3    H131729   3.352   1.260  12.233  0.5231 -1.0733  1.0329
 3438TIP3    H231730   3.363   1.305  12.089 -0.7520  1.6396  1.7306
 3439TIP3   OH231731   0.137   4.156   3.257 -0.0769  0.0421 -0.6710
 3439TIP3    H131732   0.183   4.216   3.316  0.6025 -1.3011  0.2258
 3439TIP3    H231733   0.153   4.192   3.170 -1.9037  2.6303 -0.0783
 3440TIP3   OH231734   0.213   0.795   5.728  1.0933  0.1049  0.0449
 3440TIP3    H131735   0.138   0.759   5.680  0.6953  0.0210  0.7215
 3440TIP3    H231736   0.213   0.748   5.811  0.0992  2.2069  1.2878
 3441TIP3   OH231737   6.343   2.421   3.704 -0.1913  0.2382  0.0455
 3441TIP3    H131738   6.318   2.419   3.797  0.6876 -0.5299  0.2835
 3441TIP3    H231739   6.366   2.512   3.688 -0.8187  0.4834  0.4403
 3442TIP3   OH231740   4.406   5.582   0.979 -0.2121 -0.7541  0.4557
 3442TIP3    H131741   4.317   5.563   0.948 -0.2340 -2.1078  1.2992
 3442TIP3    H231742   4.459   5.586   0.899 -1.2836  1.8194 -0.2255
 3443TIP3   OH231743   2.048   2.132  15.084 -0.4165 -0.1413  0.1518
 3443TIP3    H131744   2.054   2.038  15.070  0.5309 -0.3166  1.5324
 3443TIP3    H231745   2.049   2.170  14.996 -1.1165 -1.4276 -0.4225
 3444TIP3   OH231746   3.866   3.790  13.982  0.0151 -0.3113  0.3358
 3444TIP3    H131747   3.797   3.837  14.029  1.0580  0.3653  1.2387
 3444TIP3    H231748   3.916   3.859  13.939 -1.1775 -0.9397 -2.2278
 3445TIP3   OH231749   2.961   5.981  11.015 -0.2425  0.5970  0.2048
 3445TIP3    H131750   2.871   6.002  10.993 -0.5914  0.4607  1.4731
 3445TIP3    H231751   3.013   6.029  10.950 -1.1716  1.7498  0.2912
 3446TIP3   OH231752   2.794   1.271  11.090 -0.2195  0.4041 -0.9875
 3446TIP3    H131753   2.872   1.303  11.045 -0.4587  0.2578 -1.5089
 3446TIP3    H231754   2.721   1.314  11.045 -0.5131 -0.4289 -1.3248
 3447TIP3   OH231755   3.301   3.415  15.532 -0.3151 -1.0159  0.2518
 3447TIP3    H131756   3.333   3.327  15.512  1.2666 -0.4538  0.1306
 3447TIP3    H231757   3.380   3.470  15.530 -1.2734  0.4140  0.2741
 3448TIP3   OH231758   4.827   4.778   4.088 -0.8002 -0.0302 -0.2820
 3448TIP3    H131759   4.857   4.826   4.165 -3.3613  0.0097  0.7776
 3448TIP3    H231760   4.738   4.751   4.109 -0.2066 -3.5752 -1.6356
 3449TIP3   OH231761   1.007   5.651  14.551 -0.3570  0.1920  0.4840
 3449TIP3    H131762   1.080   5.710  14.533  0.4783 -0.2183  2.2808
 3449TIP3    H231763   0.937   5.682  14.494  0.6528  1.6983 -0.0200
 3450TIP3   OH231764   2.864   0.497   1.620  0.3114 -0.2803 -0.3953
 3450TIP3    H131765   2.915   0.515   1.699  1.1445 -0.1590 -0.9429
 3450TIP3    H231766   2.779   0.538   1.637  0.5519 -0.0703  0.3515
 3451TIP3   OH231767   1.684   0.884   3.524 -0.3719 -0.0606 -0.1990
 3451TIP3    H131768   1.669   0.950   3.592 -1.1670  1.2522 -1.6051
 3451TIP3    H231769   1.745   0.926   3.463 -0.4310 -0.8381 -0.8027
 3452TIP3   OH231770   2.755   3.533  13.443  0.0683  0.1459  0.7521
 3452TIP3    H131771   2.829   3.512  13.500 -0.1577 -3.9906 -0.1429
 3452TIP3    H231772   2.687   3.566  13.502  1.5502  1.0629  2.0198
 3453TIP3   OH231773   4.562   2.244   2.278  0.4809 -0.2408  0.4813
 3453TIP3    H131774   4.508   2.253   2.200  1.8813  0.8801 -0.4149
 3453TIP3    H231775   4.536   2.160   2.316 -1.0116 -0.2827 -0.5603
 3454TIP3   OH231776   2.626   3.666  16.651  0.3134 -0.2907 -0.1297
 3454TIP3    H131777   2.575   3.631  16.723  0.8363 -0.5712  0.1123
 3454TIP3    H231778   2.600   3.615  16.575  0.5240 -0.7002  0.0720
 3455TIP3   OH231779   1.062   5.328   2.769  0.4100 -0.0470 -0.2387
 3455TIP3    H131780   1.008   5.308   2.845  1.2594 -1.3416  0.0330
 3455TIP3    H231781   1.024   5.276   2.698  0.2950  0.3109 -0.4426
 3456TIP3   OH231782   1.663   1.550  16.984 -0.2596  0.3575  0.3290
 3456TIP3    H131783   1.675   1.480  16.920  0.3735 -0.6270  1.4821
 3456TIP3    H231784   1.583   1.595  16.957 -1.2317 -1.4260  0.1212
 3457TIP3   OH231785   3.825   6.708   1.355  0.0963 -0.7516  0.5389
 3457TIP3    H131786   3.832   6.760   1.435  1.6250  0.4933 -0.3378
 3457TIP3    H231787   3.731   6.693   1.344 -0.1556 -0.7530  2.4202
 3458TIP3   OH231788   0.393   6.595  12.668  0.1351  0.3259  0.1641
 3458TIP3    H131789   0.385   6.571  12.576  0.3377  0.2082  0.1786
 3458TIP3    H231790   0.372   6.515  12.716  2.5818 -0.3647  0.2047
 3459TIP3   OH231791   1.449   3.167   4.735  0.1866 -0.0799 -0.3550
 3459TIP3    H131792   1.507   3.239   4.709  0.4730 -0.5336 -0.9903
 3459TIP3    H231793   1.494   3.126   4.809 -0.0772  0.5134  0.1437
 3460TIP3   OH231794   3.579   3.958  12.764  0.0989  0.3137 -0.1853
 3460TIP3    H131795   3.666   3.925  12.786 -0.3373 -0.0090  1.1247
 3460TIP3    H231796   3.538   3.977  12.849 -0.3181  2.5647 -0.8102
 3461TIP3   OH231797   2.132   3.770   4.816  0.6861  0.1189  0.5120
 3461TIP3    H131798   2.205   3.722   4.776  0.6098 -0.5531  1.1546
 3461TIP3    H231799   2.084   3.704   4.866  0.3520  0.7897  1.1041
 3462TIP3   OH231800   0.194   1.532   6.130  0.4251 -0.1218  0.3745
 3462TIP3    H131801   0.114   1.565   6.088  0.4102 -1.1337 -0.4093
 3462TIP3    H231802   0.174   1.441   6.151  1.8636 -0.8251 -1.1549
 3463TIP3   OH231803   5.982   5.796  14.812  0.4915  0.6914  0.2811
 3463TIP3    H131804   6.007   5.753  14.730 -0.4203 -0.1494  0.4275
 3463TIP3    H231805   6.030   5.748  14.879 -1.0602 -0.6116  0.5147
 3464TIP3   OH231806   2.628   4.829  11.335 -0.3737 -0.4566 -0.2368
 3464TIP3    H131807   2.576   4.856  11.260 -0.3185 -1.2004 -0.5503
 3464TIP3    H231808   2.626   4.733  11.333 -0.1757 -0.4873  0.5704
 3465TIP3   OH231809   1.429   3.697   4.297  0.2996 -0.0300  0.2910
 3465TIP3    H131810   1.409   3.631   4.364 -2.0963 -1.1356 -1.3416
 3465TIP3    H231811   1.508   3.740   4.328 -1.0347  0.0235  4.1743
 3466TIP3   OH231812   0.604   0.060   4.749  0.1587 -0.1128 -0.6802
 3466TIP3    H131813   0.551   0.085   4.673 -1.0378 -1.7624 -0.4379
 3466TIP3    H231814   0.561   0.101   4.823  1.2539  1.3896 -0.8164
 3467TIP3   OH231815   4.799   2.973  14.262  0.4020  0.0037 -0.5843
 3467TIP3    H131816   4.840   2.962  14.177 -0.3792  0.1471 -0.9840
 3467TIP3    H231817   4.753   3.056  14.256  1.4438  0.7011  0.4389
 3468TIP3   OH231818   3.321   2.530  16.043 -0.1635  0.3092 -0.2269
 3468TIP3    H131819   3.280   2.580  16.113 -0.4235 -0.7754  0.4161
 3468TIP3    H231820   3.304   2.580  15.964  2.5787  3.1067  0.7567
 3469TIP3   OH231821   1.655   2.842   4.189 -0.3155 -0.4788 -0.7474
 3469TIP3    H131822   1.693   2.778   4.248  0.6576  2.1220  1.6746
 3469TIP3    H231823   1.561   2.826   4.192 -0.0939 -1.7752 -0.2517
 3470TIP3   OH231824   1.180   4.068  16.264  0.1917  0.0027  0.0880
 3470TIP3    H131825   1.098   4.036  16.302  0.0868 -1.6640 -1.4124
 3470TIP3    H231826   1.153   4.143  16.210 -0.0728  0.5602  0.9821
 3471TIP3   OH231827   4.974   5.214   5.441  0.6376  0.5496 -0.3503
 3471TIP3    H131828   4.906   5.170   5.390  1.4758 -0.2052 -0.8531
 3471TIP3    H231829   5.054   5.202   5.389  1.6572 -0.7923  1.4036
 3472TIP3   OH231830   1.843   3.109   4.725 -0.1201  0.7686 -0.7260
 3472TIP3    H131831   1.812   3.140   4.810 -1.0064 -0.3851 -0.6056
 3472TIP3    H231832   1.932   3.078   4.742 -0.3181  0.4704 -0.1836
 3473TIP3   OH231833   4.852   2.087   5.023 -0.2209  0.2741  0.0132
 3473TIP3    H131834   4.871   2.020   4.957 -1.2983  0.1053 -0.1451
 3473TIP3    H231835   4.936   2.127   5.041  0.1720 -0.0022 -1.1191
 3474TIP3   OH231836   5.462   5.737   2.398  0.5354 -0.1444  0.1099
 3474TIP3    H131837   5.449   5.832   2.401 -2.5182 -0.4495 -0.2973
 3474TIP3    H231838   5.511   5.722   2.317  0.3276  1.0302 -0.2464
 3475TIP3   OH231839   6.266   5.498   2.154  0.6858  0.4443  0.0435
 3475TIP3    H131840   6.328   5.486   2.225  0.4187 -0.6084  0.1235
 3475TIP3    H231841   6.289   5.582   2.115  2.5000 -0.1596 -0.2674
 3476TIP3   OH231842   3.676   5.779  16.995  0.0763 -0.6771 -0.1693
 3476TIP3    H131843   3.687   5.777  16.900  2.5434  1.2487 -0.0354
 3476TIP3    H231844   3.635   5.864  17.013  1.3544 -0.1725  0.5391
 3477TIP3   OH231845   5.418   2.444  13.755  0.3961 -0.0814 -0.4674
 3477TIP3    H131846   5.469   2.440  13.836 -1.8137 -0.1526  1.0062
 3477TIP3    H231847   5.408   2.352  13.729 -1.7822 -0.3695  1.1654
 3478TIP3   OH231848   0.947   3.705   1.476  0.3135 -0.1046  0.0249
 3478TIP3    H131849   1.004   3.673   1.406  2.3762 -0.7335  1.8870
 3478TIP3    H231850   0.965   3.799   1.480  1.4670 -0.3255  0.7250
 3479TIP3   OH231851   5.857   6.643  15.851  0.1934  0.2761 -0.0689
 3479TIP3    H131852   5.883   6.637  15.943 -1.5969 -0.3928  0.4309
 3479TIP3    H231853   5.907   6.575  15.807 -2.1970 -2.5526  1.2651
 3480TIP3   OH231854   3.473   3.103   0.742 -0.4402 -0.0408 -0.6416
 3480TIP3    H131855   3.523   3.107   0.824  0.7781  0.4717 -1.3798
 3480TIP3    H231856   3.433   3.189   0.733  0.8160  0.4819 -1.4077
 3481TIP3   OH231857   0.169   5.055   4.225 -0.3522  0.3791  0.4186
 3481TIP3    H131858   0.161   5.144   4.258 -0.9559  0.1381  0.9357
 3481TIP3    H231859   0.213   5.064   4.141 -2.6777  1.4379 -0.7751
 3482TIP3   OH231860   1.790   3.090  16.800  0.1135  0.0060  0.4799
 3482TIP3    H131861   1.729   3.163  16.800 -0.8212 -0.7355 -0.2136
 3482TIP3    H231862   1.875   3.129  16.781 -0.2692  0.9717  0.6992
 3483TIP3   OH231863   3.396   2.885  15.705  0.1311 -0.3930 -0.2859
 3483TIP3    H131864   3.342   2.953  15.745 -0.4012 -2.2973  2.5253
 3483TIP3    H231865   3.375   2.805  15.754  0.0808 -2.8643 -3.9019
 3484TIP3   OH231866   0.717   2.877  12.074 -0.6434  0.4931 -0.5252
 3484TIP3    H131867   0.809   2.866  12.050 -0.8031 -0.5504 -0.7162
 3484TIP3    H231868   0.714   2.961  12.120  0.2050  1.0661 -1.4772
 3485TIP3   OH231869   3.324   4.128  12.998 -0.6504  0.1671 -0.3969
 3485TIP3    H131870   3.360   4.040  13.011 -1.7626 -0.0549  1.5596
 3485TIP3    H231871   3.239   4.112  12.956 -0.3435  0.4142 -1.1332
 3486TIP3   OH231872   3.752   5.306  13.047  0.3889  0.2163  0.5540
 3486TIP3    H131873   3.716   5.218  13.031 -1.4645  0.6971  1.8191
 3486TIP3    H231874   3.819   5.292  13.114  1.6577 -0.4817 -0.7794
 3487TIP3   OH231875   0.013   5.376   4.811  0.4631  0.3146 -0.2452
 3487TIP3    H131876  -0.013   5.413   4.727  1.3125  1.4051 -0.0554
 3487TIP3    H231877  -0.044   5.419   4.875 -0.1923 -0.5236 -0.2532
 3488TIP3   OH231878   1.197   6.282   5.586  0.2347 -0.4639 -0.2940
 3488TIP3    H131879   1.148   6.200   5.579  0.7087 -0.8432  0.6135
 3488TIP3    H231880   1.198   6.317   5.497 -0.0258 -1.4156 -0.6855
 3489TIP3   OH231881   4.676   4.614   2.798 -0.8708 -0.2752  0.0868
 3489TIP3    H131882   4.694   4.699   2.760  0.6393 -0.9188 -0.7072
 3489TIP3    H231883   4.744   4.556   2.763 -1.7924 -1.7929  0.6660
 3490TIP3   OH231884   1.534   0.641   2.171  0.4681  0.0210 -0.3373
 3490TIP3    H131885   1.595   0.657   2.098 -0.3304  1.4542 -0.7474
 3490TIP3    H231886   1.558   0.707   2.236  0.4649 -0.5395  0.2367
 3491TIP3   OH231887   6.212   2.252   2.675 -0.6636 -0.1911 -0.2684
 3491TIP3    H131888   6.232   2.212   2.591  1.0052 -1.6561  0.7510
 3491TIP3    H231889   6.254   2.195   2.739 -3.4508 -0.2373  1.7330
 3492TIP3   OH231890   0.326   2.488   3.988  0.4940 -0.4265 -0.4640
 3492TIP3    H131891   0.237   2.455   3.972  0.6752 -0.7572 -0.7983
 3492TIP3    H231892   0.314   2.558   4.053  0.1132 -1.2194  0.3531
 3493TIP3   OH231893   1.955   2.242  16.600  0.3562 -0.2540  0.5649
 3493TIP3    H131894   1.871   2.212  16.635  0.0864 -0.8889 -0.6103
 3493TIP3    H231895   1.996   2.164  16.564  0.0264  0.5668 -1.7506
 3494TIP3   OH231896   3.678   0.675  15.192 -0.1965 -0.4578 -0.2236
 3494TIP3    H131897   3.615   0.609  15.164  1.5244 -1.8120 -1.0706
 3494TIP3    H231898   3.736   0.629  15.252 -0.1426  0.8378  0.7610
 3495TIP3   OH231899   1.839   6.263   6.016 -0.1482  0.2562  0.4017
 3495TIP3    H131900   1.810   6.328   5.952 -0.1151  0.8194  0.9423
 3495TIP3    H231901   1.832   6.308   6.101  1.6054  0.1679  0.6201
 3496TIP3   OH231902   3.977   5.678  12.696 -0.2879  0.8096 -0.1662
 3496TIP3    H131903   4.056   5.638  12.659 -0.1293  0.7281  0.2604
 3496TIP3    H231904   3.970   5.763  12.652  1.1886  1.7287  1.2590
 3497TIP3   OH231905   4.216   1.496   0.846 -0.3406 -0.0146 -0.4795
 3497TIP3    H131906   4.126   1.519   0.822 -0.4988 -0.7295 -0.5883
 3497TIP3    H231907   4.238   1.558   0.915 -0.8879  0.2269 -0.5138
 3498TIP3   OH231908   5.336   5.242   0.919 -0.0422 -0.4248 -0.5555
 3498TIP3    H131909   5.275   5.185   0.873  0.1476 -2.1464  1.1656
 3498TIP3    H231910   5.397   5.272   0.852 -0.1411 -2.2966 -1.5288
 3499TIP3   OH231911   2.444   3.626  10.994 -0.3775 -0.4731  0.6066
 3499TIP3    H131912   2.418   3.711  10.959 -2.4496 -0.7340  1.3937
 3499TIP3    H231913   2.487   3.582  10.921 -0.6399  0.6670 -0.2605
 3500TIP3   OH231914   4.446   6.164   3.558  0.3249  0.1564 -0.4811
 3500TIP3    H131915   4.358   6.142   3.589  0.7990 -1.1156  0.0564
 3500TIP3    H231916   4.500   6.089   3.585  0.9682 -0.6652 -3.6880
 3501TIP3   OH231917   1.652   5.426   2.248 -0.8015 -0.3538  0.2153
 3501TIP3    H131918   1.572   5.460   2.287  0.6964  1.4291  1.9777
 3501TIP3    H231919   1.668   5.343   2.293 -1.7201 -0.8185 -0.2886
 3502TIP3   OH231920   1.870   1.384  14.286 -0.0565  0.2616  0.4882
 3502TIP3    H131921   1.823   1.445  14.343  0.0058  1.7976 -1.0133
 3502TIP3    H231922   1.923   1.440  14.229  0.3991 -1.2285 -0.6268
 3503TIP3   OH231923   2.196   5.915  14.028  0.7051  0.2167  0.2110
 3503TIP3    H131924   2.278   5.869  14.008 -0.1873 -0.9860 -0.8965
 3503TIP3    H231925   2.129   5.865  13.981 -0.5715  1.6216  0.4614
 3504TIP3   OH231926   2.361   0.951   0.821 -0.4161 -0.1870 -0.2740
 3504TIP3    H131927   2.347   0.887   0.891  2.8236 -0.9863 -0.2045
 3504TIP3    H231928   2.302   0.922   0.751  0.1326 -2.6473  0.1720
 3505TIP3   OH231929   0.460   1.752  15.777 -0.2955 -0.2515  0.2759
 3505TIP3    H131930   0.439   1.839  15.743  0.5883 -0.6504 -1.3584
 3505TIP3    H231931   0.518   1.769  15.851 -0.7588  0.5651  0.4729
 3506TIP3   OH231932   2.476   1.851   6.133 -0.0149 -0.1789 -0.0802
 3506TIP3    H131933   2.465   1.938   6.171  0.3443  1.4499 -3.3168
 3506TIP3    H231934   2.570   1.838   6.130 -0.0006  0.0782 -1.0582
 3507TIP3   OH231935   4.782   0.228   3.228 -0.4010 -0.4121  0.5058
 3507TIP3    H131936   4.781   0.304   3.286 -0.6485  0.3699 -0.4944
 3507TIP3    H231937   4.818   0.157   3.281  1.2357  0.7573  1.0260
 3508TIP3   OH231938   3.610   4.269   0.448 -0.4192  0.2550 -0.9711
 3508TIP3    H131939   3.632   4.343   0.392  0.6940 -0.4470 -1.5096
 3508TIP3    H231940   3.649   4.193   0.403  0.0851 -0.3933  0.4972
 3509TIP3   OH231941   4.354   2.393  12.331 -0.9098  0.3642 -0.0512
 3509TIP3    H131942   4.365   2.436  12.416 -0.6097  3.3276 -1.4606
 3509TIP3    H231943   4.287   2.445  12.286  1.7339  1.4663 -3.0793
 3510TIP3   OH231944   5.249   1.830   0.841  0.3257 -0.5453  0.3738
 3510TIP3    H131945   5.155   1.823   0.825  0.7230 -2.3339 -1.6566
 3510TIP3    H231946   5.256   1.882   0.921 -2.4122 -1.2640  1.1880
 3511TIP3   OH231947   5.548   4.633   0.351  0.2617 -0.2605 -0.1232
 3511TIP3    H131948   5.603   4.555   0.362 -0.1985 -0.5818 -0.0930
 3511TIP3    H231949   5.484   4.627   0.422 -0.7881 -0.7015 -1.0785
 3512TIP3   OH231950   4.881   0.495   4.259  0.3969  0.1906  0.1264
 3512TIP3    H131951   4.898   0.533   4.173 -0.1158  0.2810  0.0628
 3512TIP3    H231952   4.834   0.563   4.306 -0.4192 -0.3101  0.0563
 3513TIP3   OH231953   2.794   6.142  13.464 -0.2673  0.0260 -0.1983
 3513TIP3    H131954   2.782   6.047  13.472 -0.2944  0.1984  2.5280
 3513TIP3    H231955   2.876   6.151  13.415 -0.7190 -1.3595 -1.3058
 3514TIP3   OH231956   0.697   2.142  15.785  0.0592  0.3153 -0.2075
 3514TIP3    H131957   0.744   2.214  15.828 -1.0999  0.7116  0.4527
 3514TIP3    H231958   0.756   2.067  15.791  0.3751  0.6453  1.1362
 3515TIP3   OH231959   3.202   1.525  14.138 -0.3339  0.1348 -0.2681
 3515TIP3    H131960   3.274   1.505  14.199  0.2729  0.7126 -0.7732
 3515TIP3    H231961   3.235   1.598  14.086 -1.5256  0.8035 -0.1138
 3516TIP3   OH231962   4.675   4.090  14.703  0.5228 -0.1291  0.2480
 3516TIP3    H131963   4.606   4.145  14.665 -0.2205 -1.0807  0.1905
 3516TIP3    H231964   4.686   4.018  14.640  1.1841 -0.2846  0.5309
 3517TIP3   OH231965   2.971   4.620  15.931 -0.1612  0.6650  0.3158
 3517TIP3    H131966   3.029   4.682  15.886 -1.2742  1.8397  0.4619
 3517TIP3    H231967   2.982   4.538  15.882  1.6203  0.8360  0.3485
 3518TIP3   OH231968   3.521   4.595  13.504 -0.2334  0.3328  0.1411
 3518TIP3    H131969   3.564   4.511  13.486  0.7136  0.7500  0.4066
 3518TIP3    H231970   3.550   4.652  13.433 -0.2666  0.6445  0.3779
 3519TIP3   OH231971   3.034   5.422   5.806 -0.5931  0.5109 -0.6322
 3519TIP3    H131972   2.963   5.358   5.798 -1.3530  1.2337  0.1911
 3519TIP3    H231973   3.114   5.370   5.797 -1.1610 -0.7603  1.2579
 3520TIP3   OH231974   6.638   4.718  12.864 -0.6054 -0.0952 -0.6365
 3520TIP3    H131975   6.722   4.753  12.834 -0.6396  0.2804 -0.3014
 3520TIP3    H231976   6.657   4.677  12.948 -0.6376 -0.5815 -0.8591
 3521TIP3   OH231977   0.437   1.729  13.973  0.1825  0.3218 -0.3885
 3521TIP3    H131978   0.379   1.789  13.927  1.6081  2.2037  0.1542
 3521TIP3    H231979   0.430   1.753  14.065 -0.4883 -1.5081  0.0703
 3522TIP3   OH231980   2.237   6.056  11.693  0.2457  0.1054 -0.2137
 3522TIP3    H131981   2.248   6.151  11.694 -0.5619  0.2103 -0.3979
 3522TIP3    H231982   2.313   6.023  11.644  0.9071  0.5907  0.4711
 3523TIP3   OH231983   3.397   1.852   0.462  0.4176  0.0230 -0.2788
 3523TIP3    H131984   3.380   1.943   0.484  2.5849  0.3428  0.3192
 3523TIP3    H231985   3.464   1.856   0.394  0.2689 -1.1156 -0.5121
 3524TIP3   OH231986   2.889   0.147  16.930  0.0858  0.1979  0.1290
 3524TIP3    H131987   2.823   0.195  16.879 -2.0724 -1.1004  1.5085
 3524TIP3    H231988   2.947   0.110  16.864 -1.2082  0.5094 -1.2562
 3525TIP3   OH231989   2.512   2.002   3.038 -0.1653 -0.1113  0.2551
 3525TIP3    H131990   2.543   2.000   2.947  1.2735 -0.3895  0.7208
 3525TIP3    H231991   2.591   2.020   3.089 -0.7183 -1.1803  1.5482
 3526TIP3   OH231992   4.034   5.280  11.103 -0.2330 -0.2438  0.0746
 3526TIP3    H131993   4.095   5.301  11.174  0.5608 -0.6240 -0.4938
 3526TIP3    H231994   4.045   5.350  11.040 -1.0928  0.2072  0.3967
 3527TIP3   OH231995   3.235   4.849   3.534  0.3608  0.2215 -0.0973
 3527TIP3    H131996   3.285   4.786   3.585  1.1458  0.5253 -0.4735
 3527TIP3    H231997   3.246   4.932   3.581 -0.2059  0.1931  0.0911
 3528TIP3   OH231998   4.101   3.923   0.605  0.5429 -0.3358  0.1189
 3528TIP3    H131999   4.052   3.980   0.545  1.7183  0.3130 -0.2536
 3528TIP3    H232000   4.132   3.851   0.549 -0.4861 -1.0901  0.4815
 3529TIP3   OH232001   4.039   6.120  15.426  0.2295  0.4329  0.4798
 3529TIP3    H132002   4.098   6.087  15.359  0.4839  3.0341 -0.7099
 3529TIP3    H232003   4.095   6.134  15.502  0.9780  1.8053 -0.2788
 3530TIP3   OH232004   5.868   6.042  11.630  0.0359 -0.0847 -0.0687
 3530TIP3    H132005   5.860   5.946  11.632 -0.7223 -0.0114  1.1977
 3530TIP3    H232006   5.911   6.060  11.546  0.4508 -1.5480 -0.2064
 3531TIP3   OH232007   2.647   0.771  15.779  0.2286 -0.4762  0.2038
 3531TIP3    H132008   2.598   0.717  15.843  2.3790 -1.0693  1.4500
 3531TIP3    H232009   2.659   0.855  15.824 -1.1084  0.3097 -0.8221
 3532TIP3   OH232010   6.231   0.003   1.302  0.2944  0.0874  0.0864
 3532TIP3    H132011   6.303  -0.034   1.353  1.2053 -2.1070 -2.5161
 3532TIP3    H232012   6.152  -0.034   1.341  1.0597 -2.7886 -0.8504
 3533TIP3   OH232013   0.437   0.471   2.395  0.6546 -0.1106  0.2037
 3533TIP3    H132014   0.415   0.422   2.315  1.0271 -0.0127  0.0438
 3533TIP3    H232015   0.487   0.546   2.365  1.4478 -0.4740  0.5986
 3534TIP3   OH232016   3.331   0.602  13.321 -0.3740  0.1853  0.3399
 3534TIP3    H132017   3.373   0.552  13.391 -1.1068 -0.0895  0.5907
 3534TIP3    H232018   3.248   0.558  13.306  0.2044 -0.3846 -1.4355
 3535TIP3   OH232019   4.336   4.194  11.911  0.4147 -0.0469 -0.2179
 3535TIP3    H132020   4.416   4.145  11.896 -0.0055 -0.4087 -1.3940
 3535TIP3    H232021   4.352   4.242  11.992  1.7992 -0.1292 -0.4172
 3536TIP3   OH232022   4.703   0.856   2.938 -0.1392  0.1142  0.0440
 3536TIP3    H132023   4.727   0.925   2.999  1.1420 -0.9120  0.7383
 3536TIP3    H232024   4.761   0.868   2.863 -1.7836  1.4436 -1.1172
 3537TIP3   OH232025   5.607   3.384  16.383  0.4368  0.2006  0.1152
 3537TIP3    H132026   5.685   3.415  16.338  0.6813 -2.0735 -1.1518
 3537TIP3    H232027   5.571   3.315  16.327 -1.4609 -0.0824  1.5422
 3538TIP3   OH232028   1.744   2.855  13.229 -0.2780  0.0507 -0.7345
 3538TIP3    H132029   1.706   2.868  13.316 -0.8729 -0.5221 -0.9021
 3538TIP3    H232030   1.814   2.920  13.224 -1.0697  0.9553 -0.3236
 3539TIP3   OH232031   3.622   5.146  17.027  0.2293 -0.2478  0.0245
 3539TIP3    H132032   3.626   5.160  17.121  1.7219  2.2780 -0.3053
 3539TIP3    H232033   3.529   5.133  17.009 -0.8229  3.7463  1.4364
 3540TIP3   OH232034   0.040   6.761  11.745 -0.5156 -0.4944  0.1504
 3540TIP3    H132035  -0.004   6.676  11.736  0.1119 -0.7998 -0.0642
 3540TIP3    H232036   0.027   6.804  11.661  0.7620 -1.1540 -0.4096
 3541TIP3   OH232037   2.185   4.686   2.385 -0.0636  0.1328  0.4115
 3541TIP3    H132038   2.102   4.644   2.361 -0.3912  0.5869  0.7134
 3541TIP3    H232039   2.209   4.739   2.309  0.6040 -0.9559 -0.1620
 3542TIP3   OH232040   4.331   5.536  15.151  0.0403  0.2413 -0.0123
 3542TIP3    H132041   4.275   5.517  15.227 -2.2056 -0.0685 -1.6290
 3542TIP3    H232042   4.381   5.455  15.138  0.0678  0.1159  0.8233
 3543TIP3   OH232043   4.317   1.063   0.788  0.1987 -0.0031 -0.4439
 3543TIP3    H132044   4.251   1.004   0.752  0.6474 -1.1916  0.6156
 3543TIP3    H232045   4.400   1.030   0.753  0.4089  0.2774 -0.2128
 3544TIP3   OH232046   5.707   5.094   3.117  0.7596 -0.5921  0.3037
 3544TIP3    H132047   5.750   5.177   3.097  0.5150 -0.4772  0.2462
 3544TIP3    H232048   5.620   5.119   3.147  0.9466 -0.7926  1.0215
 3545TIP3   OH232049   5.858   3.722  11.577 -0.2859  0.5235  0.5174
 3545TIP3    H132050   5.953   3.717  11.568 -0.3682  1.5122 -1.5929
 3545TIP3    H232051   5.830   3.632  11.590  0.7923 -0.1290 -1.2500
 3546TIP3   OH232052   0.652   3.276  15.699  0.0940  0.6881 -0.1262
 3546TIP3    H132053   0.583   3.300  15.638 -1.5855 -0.3219  1.2909
 3546TIP3    H232054   0.606   3.249  15.779  2.0632 -1.2338  0.4565
 3547TIP3   OH232055   0.484   2.619   4.814 -0.3420 -0.0607  0.4933
 3547TIP3    H132056   0.418   2.681   4.846 -1.4811 -1.5267  1.0625
 3547TIP3    H232057   0.482   2.630   4.719 -1.4726 -0.1343  0.4948
 3548TIP3   OH232058   3.199   4.448  11.157 -0.1359  0.0422 -0.6160
 3548TIP3    H132059   3.156   4.492  11.084 -1.2168 -0.6219 -0.4024
 3548TIP3    H232060   3.204   4.515  11.226  1.5387  0.8856 -1.5059
 3549TIP3   OH232061   0.029   5.734  14.043 -0.2199 -0.2430  0.8171
 3549TIP3    H132062   0.100   5.797  14.032  1.4256 -2.1982 -0.8958
 3549TIP3    H232063  -0.047   5.774  14.001  0.9046  0.4553 -0.6497
 3550TIP3   OH232064   6.341   1.037  16.938  0.1205  0.1206 -0.5046
 3550TIP3    H132065   6.296   0.956  16.914 -2.0475  0.8944  0.7395
 3550TIP3    H232066   6.274   1.092  16.978  1.8866  1.9113  0.1912
 3551TIP3   OH232067   1.466   6.137  17.170 -0.4063  0.3284 -0.1949
 3551TIP3    H132068   1.397   6.078  17.201  0.0955  0.0067  0.3393
 3551TIP3    H232069   1.471   6.205  17.237 -0.4933  0.5874 -0.4497
 3552TIP3   OH232070   2.506   4.311  12.273  0.0903  0.5344  0.2765
 3552TIP3    H132071   2.548   4.230  12.299 -0.1388  0.3058 -0.0532
 3552TIP3    H232072   2.427   4.283  12.226  1.1462  0.9041 -1.8069
 3553TIP3   OH232073   0.902   3.637  12.458 -0.4973 -0.0772  0.2421
 3553TIP3    H132074   0.939   3.619  12.544  1.6555  1.9808 -0.1578
 3553TIP3    H232075   0.847   3.715  12.472  0.2003  0.5254 -0.2823
 3554TIP3   OH232076   6.113   3.423  10.800 -0.0452 -0.0351 -0.2710
 3554TIP3    H132077   6.137   3.358  10.734  1.0949  0.9697 -0.8867
 3554TIP3    H232078   6.114   3.506  10.754  0.7688  0.6918  0.9926
 3555TIP3   OH232079   3.964   0.979  11.213 -0.2332 -0.5125 -0.4395
 3555TIP3    H132080   4.004   1.057  11.174  0.5067  0.2785  1.7466
 3555TIP3    H232081   4.006   0.906  11.168  0.7845  0.3337 -0.9212
 3556TIP3   OH232082   5.513   6.553   1.622  0.0734 -0.3895 -0.4930
 3556TIP3    H132083   5.519   6.525   1.531  0.6108 -1.4111 -0.1536
 3556TIP3    H232084   5.571   6.494   1.670 -0.3309  0.0223  0.5389
 3557TIP3   OH232085   2.355   2.374  11.063  0.0940  0.0320 -0.1201
 3557TIP3    H132086   2.365   2.469  11.070 -2.5831  0.5478 -1.7858
 3557TIP3    H232087   2.400   2.351  10.982  1.0830 -0.2240  0.4848
 3558TIP3   OH232088   5.022   4.491  14.064 -0.1731  0.1886  0.0226
 3558TIP3    H132089   5.114   4.480  14.088 -0.0742  0.9323  0.0070
 3558TIP3    H232090   5.018   4.579  14.025 -0.4970 -0.6231 -1.8855
 3559TIP3   OH232091   1.695   2.339  13.698 -0.2946  0.0097 -0.2048
 3559TIP3    H132092   1.729   2.267  13.645  0.1519 -0.0707  0.1846
 3559TIP3    H232093   1.638   2.297  13.762 -3.0548  0.3270 -2.2806
 3560TIP3   OH232094   2.897   1.623  15.792 -0.2381  0.4527  0.1937
 3560TIP3    H132095   2.867   1.532  15.802 -0.2005  0.5747  1.7046
 3560TIP3    H232096   2.910   1.653  15.882  3.1242  0.8512 -0.2992
 3561TIP3   OH232097   4.242   4.765  14.682  0.1577 -0.2244 -0.6714
 3561TIP3    H132098   4.295   4.831  14.638  1.2871 -0.9356 -0.4013
 3561TIP3    H232099   4.153   4.780  14.649  0.5662  0.7970 -1.3469
 3562TIP3   OH232100   4.095   4.735  14.229  0.3389 -0.0386  0.1624
 3562TIP3    H132101   4.165   4.745  14.164  1.6802  0.0713  1.5728
 3562TIP3    H232102   4.138   4.697  14.306 -1.0642  0.4136  1.2218
 3563TIP3   OH232103   3.209   2.986  14.761 -0.3165  0.0401 -0.2705
 3563TIP3    H132104   3.144   2.915  14.758  0.3959 -0.5663 -2.2649
 3563TIP3    H232105   3.262   2.965  14.838 -0.6306 -1.1333 -0.3445
 3564TIP3   OH232106   2.177   3.165   1.189 -0.2759 -0.3414 -0.5560
 3564TIP3    H132107   2.203   3.125   1.272 -2.4602  0.3680  0.5316
 3564TIP3    H232108   2.171   3.258   1.208 -1.2097 -0.2212 -1.4041
 3565TIP3   OH232109   1.104   2.410  14.045 -0.6609  0.0276 -0.1598
 3565TIP3    H132110   1.118   2.319  14.073 -1.1400  0.3509  1.2124
 3565TIP3    H232111   1.111   2.407  13.950  1.4912 -1.0619 -0.0133
 3566TIP3   OH232112   2.425   3.100   4.685  0.6720 -0.2725  0.0873
 3566TIP3    H132113   2.497   3.163   4.695  1.8383 -1.3587 -1.0882
 3566TIP3    H232114   2.370   3.138   4.616  0.1396  0.5157  0.9253
 3567TIP3   OH232115   2.547   5.597  14.866  0.3299 -0.4160  0.1158
 3567TIP3    H132116   2.475   5.608  14.929 -1.7321 -1.4024 -1.9080
 3567TIP3    H232117   2.503   5.574  14.784  3.0725 -3.3082 -0.7381
 3568TIP3   OH232118   2.364   2.253   3.382  0.4237  0.0490 -0.0851
 3568TIP3    H132119   2.424   2.327   3.370  1.4334 -0.8509 -0.7428
 3568TIP3    H232120   2.276   2.292   3.374  0.9240  1.1751 -0.3475
 3569TIP3   OH232121   6.006   6.097  17.128 -0.4234  0.2274  0.4344
 3569TIP3    H132122   5.996   6.003  17.145 -4.0885  0.1412 -1.2477
 3569TIP3    H232123   5.939   6.138  17.182 -0.5795  1.5770 -0.7330
 3570TIP3   OH232124   1.999   6.116  12.071 -0.0743 -0.2406 -0.3361
 3570TIP3    H132125   2.018   6.062  11.994  1.9327  0.2754 -0.2639
 3570TIP3    H232126   1.958   6.195  12.036 -1.5936 -1.1045 -0.5870
 3571TIP3   OH232127   4.889   1.895   5.897  0.4074  0.1022  0.2759
 3571TIP3    H132128   4.839   1.940   5.965  0.0111 -0.4603  0.3672
 3571TIP3    H232129   4.970   1.945   5.889 -1.0038  2.3452 -1.3800
 3572TIP3   OH232130   4.673   4.565   1.141 -0.2257 -0.5450 -0.9844
 3572TIP3    H132131   4.638   4.648   1.109  1.0496  0.6419  0.5295
 3572TIP3    H232132   4.729   4.589   1.215 -0.5203 -2.8471  0.0854
 3573TIP3   OH232133   0.405   1.424  14.183 -0.1089 -0.3272 -0.3284
 3573TIP3    H132134   0.365   1.430  14.096 -2.0950 -0.3424  0.5360
 3573TIP3    H232135   0.340   1.461  14.242  0.7779 -1.2250  1.2845
 3574TIP3   OH232136   6.388   1.706   0.416 -0.2127  0.3763 -0.1559
 3574TIP3    H132137   6.399   1.759   0.338  2.0103 -2.2693 -1.8582
 3574TIP3    H232138   6.303   1.731   0.452 -1.6072  1.2974 -3.7549
 3575TIP3   OH232139   6.412   2.327  16.795 -0.1813 -0.6812  0.0411
 3575TIP3    H132140   6.470   2.295  16.864 -2.7784 -1.7948  1.8355
 3575TIP3    H232141   6.399   2.252  16.738  0.3586 -0.3369 -0.5481
 3576TIP3   OH232142   2.932   2.685  13.756 -0.1034 -0.2257 -0.6007
 3576TIP3    H132143   2.940   2.597  13.793 -0.3176 -0.7740 -1.7981
 3576TIP3    H232144   2.940   2.672  13.661  3.9727  1.4676 -0.7203
 3577TIP3   OH232145   6.302   5.224  12.305  0.0400 -0.2861  0.4488
 3577TIP3    H132146   6.218   5.178  12.304  0.9379 -2.0929 -1.9363
 3577TIP3    H232147   6.356   5.172  12.365  0.0087 -0.2128  0.5414
 3578TIP3   OH232148   1.609   5.761  12.164 -0.3821 -0.0016  0.0368
 3578TIP3    H132149   1.593   5.848  12.128  0.9762 -0.1523 -1.0045
 3578TIP3    H232150   1.687   5.773  12.219 -0.8075 -0.3542  0.7254
 3579TIP3   OH232151   4.813   1.477  11.997  0.2594 -0.3630 -1.1415
 3579TIP3    H132152   4.810   1.571  12.015  0.4107 -0.7204  1.0927
 3579TIP3    H232153   4.906   1.457  11.987  0.1677 -0.1437 -2.6358
 3580TIP3   OH232154   1.211   6.769   1.962  0.4827 -0.5860 -0.1343
 3580TIP3    H132155   1.148   6.715   1.914  0.5277 -0.1662 -0.6681
 3580TIP3    H232156   1.207   6.854   1.919  1.4689 -0.5753 -0.2134
 3581TIP3   OH232157   6.659   2.434  15.424  0.6462  0.3175  0.2270
 3581TIP3    H132158   6.635   2.527  15.432 -1.2455 -0.1846  0.8957
 3581TIP3    H232159   6.637   2.411  15.334  0.3451  0.3222  0.2983
 3582TIP3   OH232160   6.219   1.133   4.229 -0.0316 -0.3269 -0.0741
 3582TIP3    H132161   6.298   1.146   4.282 -0.7209 -0.9343  1.1499
 3582TIP3    H232162   6.249   1.143   4.139  1.4032 -0.3401  0.3732
 3583TIP3   OH232163   4.318   3.626   1.171 -0.3168 -0.0673  0.7455
 3583TIP3    H132164   4.359   3.602   1.087 -0.8589  1.6672 -0.0611
 3583TIP3    H232165   4.230   3.654   1.147 -0.6381  0.0095  1.9700
 3584TIP3   OH232166   1.818   3.229  15.137  0.9507 -0.0286  0.4105
 3584TIP3    H132167   1.911   3.229  15.160  0.6226 -0.6806  1.8639
 3584TIP3    H232168   1.787   3.316  15.162  1.0073 -0.0901  0.7067
 3585TIP3   OH232169   4.164   6.702  13.801  0.1596 -0.0250  0.0951
 3585TIP3    H132170   4.140   6.769  13.737  0.2517  0.4266  0.5270
 3585TIP3    H232171   4.083   6.683  13.847 -0.1231 -1.0627 -0.8025
 3586TIP3   OH232172   5.653   2.966   0.785  0.3220 -0.0888 -0.4302
 3586TIP3    H132173   5.679   3.017   0.708  0.8693 -2.0797 -1.6401
 3586TIP3    H232174   5.559   2.980   0.794  0.5667  1.6496 -0.2863
 3587TIP3   OH232175   3.016   4.120  16.842  0.3031 -0.3137 -0.0858
 3587TIP3    H132176   2.928   4.120  16.803  0.3383  0.5957 -0.1945
 3587TIP3    H232177   3.030   4.211  16.869  1.4709 -0.2992 -0.6645
 3588TIP3   OH232178   1.909   0.268   6.359 -0.1825  0.3977 -0.4032
 3588TIP3    H132179   1.906   0.358   6.326 -1.8484  0.4576 -0.1419
 3588TIP3    H232180   1.847   0.220   6.304  0.7806 -0.6441 -0.6222
 3589TIP3   OH232181   6.602   6.774   3.409 -0.1089  0.5836  0.0186
 3589TIP3    H132182   6.553   6.823   3.343 -2.8370 -1.6287  0.2039
 3589TIP3    H232183   6.546   6.775   3.486  1.4970  0.3142  1.2422
 3590TIP3   OH232184   6.068   3.614  14.701  0.0631  0.5642  0.6218
 3590TIP3    H132185   6.020   3.695  14.720  0.8919  0.9961  0.9250
 3590TIP3    H232186   6.031   3.583  14.618 -2.4958 -0.4795  2.0398
 3591TIP3   OH232187   3.188   2.392  16.863  0.2790 -0.2964  0.1447
 3591TIP3    H132188   3.276   2.358  16.877  0.3083 -0.2800  0.0006
 3591TIP3    H232189   3.166   2.436  16.945  0.2521 -0.6375  0.3208
 3592TIP3   OH232190   2.893   1.431  17.137  0.4489  0.5044  0.5621
 3592TIP3    H132191   2.818   1.447  17.193  0.4558 -0.1065  0.7581
 3592TIP3    H232192   2.961   1.491  17.169  1.3368 -1.5811  2.9742
 3593TIP3   OH232193   1.148   6.675   4.078  0.1438 -0.4056  0.1230
 3593TIP3    H132194   1.071   6.732   4.088 -0.0975 -0.7646  0.3342
 3593TIP3    H232195   1.118   6.604   4.022 -0.2017 -1.4809  1.6065
 3594TIP3   OH232196   5.850   1.565  11.110  0.3327 -0.0180  0.6378
 3594TIP3    H132197   5.842   1.545  11.017 -0.9700  0.0869  0.7114
 3594TIP3    H232198   5.766   1.602  11.134  0.8281  0.4328  1.7543
 3595TIP3   OH232199   3.124   2.581   3.363 -0.2523  0.0955 -0.0314
 3595TIP3    H132200   3.126   2.549   3.453  0.6719 -0.2986 -0.1779
 3595TIP3    H232201   3.190   2.528   3.318 -1.2298 -0.2252 -1.1173
 3596TIP3   OH232202   0.901   6.545   1.373  0.1517 -0.1153 -0.3211
 3596TIP3    H132203   0.912   6.471   1.433 -0.3003 -2.5094 -2.9598
 3596TIP3    H232204   0.985   6.591   1.377 -0.2270  0.5066  2.8557
 3597TIP3   OH232205   5.879   2.097  15.196  0.1971  0.2612  0.3142
 3597TIP3    H132206   5.853   2.009  15.224 -0.6692 -0.1011 -1.4770
 3597TIP3    H232207   5.931   2.083  15.117 -1.6742  1.3950 -1.1984
 3598TIP3   OH232208   2.526   3.210   5.821 -0.5074 -0.3320  0.2267
 3598TIP3    H132209   2.434   3.221   5.845 -0.5282  1.1016 -0.3902
 3598TIP3    H232210   2.565   3.164   5.895 -1.5582 -0.2671  0.8359
 3599TIP3   OH232211   1.075   2.542  15.325 -0.2336 -0.5111  0.0152
 3599TIP3    H132212   1.144   2.544  15.392 -0.7335  2.2052  0.5770
 3599TIP3    H232213   1.113   2.493  15.252  0.7303 -2.6258  1.8025
 3600TIP3   OH232214   2.503   1.326  13.639 -0.2507  0.3188  0.2239
 3600TIP3    H132215   2.543   1.376  13.710  1.8140 -0.9929  0.0743
 3600TIP3    H232216   2.576   1.279  13.598 -2.0464 -3.6206  0.9904
 3601TIP3   OH232217   4.158   5.026   0.531  0.3565 -0.2769  0.5484
 3601TIP3    H132218   4.101   5.010   0.456  0.2952 -0.9206  0.7247
 3601TIP3    H232219   4.239   5.059   0.492 -0.2992  1.1372  0.3354
 3602TIP3   OH232220   3.582   1.026  12.255  0.2892 -0.1981 -0.0369
 3602TIP3    H132221   3.531   1.098  12.217 -1.9524 -1.5148  0.3091
 3602TIP3    H232222   3.670   1.062  12.266 -0.5311  2.1795 -0.7227
 3603TIP3   OH232223   1.904   6.132   0.797  0.1625  0.0525 -0.7137
 3603TIP3    H132224   1.894   6.186   0.718 -0.7472 -1.0986 -1.4242
 3603TIP3    H232225   1.825   6.149   0.848  0.1588 -0.1435 -0.6541
 3604TIP3   OH232226   1.369   6.424  14.629  0.1156  0.3232 -0.5714
 3604TIP3    H132227   1.324   6.434  14.713 -0.2891  0.8125 -0.8380
 3604TIP3    H232228   1.437   6.360  14.645 -0.5131 -0.2315 -0.0827
 3605TIP3   OH232229   4.606   1.781   6.239  0.2749 -0.2467  0.2579
 3605TIP3    H132230   4.673   1.776   6.307  2.5147 -1.0069 -1.8266
 3605TIP3    H232231   4.582   1.873   6.235  0.5483 -0.1008  1.6408
 3606TIP3   OH232232   2.133   0.893   0.064  0.3832 -0.5402 -0.5030
 3606TIP3    H132233   2.173   0.979   0.078  0.7174 -0.8270  0.3770
 3606TIP3    H232234   2.082   0.903  -0.016  0.2595  0.5335 -0.3068
 3607TIP3   OH232235   5.433   3.586  13.745 -0.6558  0.2412  0.1514
 3607TIP3    H132236   5.502   3.565  13.807 -0.3255  0.7130 -0.0513
 3607TIP3    H232237   5.371   3.639  13.795  0.1829  1.6097 -0.1992
 3608TIP3   OH232238   4.875   1.750  12.049 -0.0458 -0.5215  0.1293
 3608TIP3    H132239   4.891   1.730  12.141  1.6616 -2.3152 -0.4798
 3608TIP3    H232240   4.789   1.791  12.047  0.5333  1.0210  2.6898
 3609TIP3   OH232241   1.592   1.626   4.972 -0.2246 -0.0595  0.2594
 3609TIP3    H132242   1.642   1.576   4.907  1.5898  2.6261 -0.5846
 3609TIP3    H232243   1.601   1.576   5.053  1.7264 -0.9861 -0.4622
 3610TIP3   OH232244   1.479   5.337  14.278  0.0522 -0.3921  0.1359
 3610TIP3    H132245   1.443   5.329  14.366  0.6609  0.3756  0.4582
 3610TIP3    H232246   1.473   5.430  14.258  0.5477 -0.4659 -0.3671
 3611TIP3   OH232247   1.743   4.476  10.661 -0.0861 -0.0963  0.3763
 3611TIP3    H132248   1.791   4.523  10.593  2.3528  0.1855  2.1572
 3611TIP3    H232249   1.705   4.546  10.715  1.1831 -0.1467  1.4035
 3612TIP3   OH232250   3.753   2.311   0.531 -0.0067  0.6461 -0.2527
 3612TIP3    H132251   3.761   2.292   0.624  1.6899  0.2578 -0.4584
 3612TIP3    H232252   3.802   2.392   0.518 -0.5890  0.9304 -0.7556
 3613TIP3   OH232253   3.616   1.512   5.711 -0.1768  0.2077 -0.2524
 3613TIP3    H132254   3.643   1.487   5.623  0.0758  1.8405 -0.6631
 3613TIP3    H232255   3.525   1.540   5.702  0.1632  1.3735 -0.2131
 3614TIP3   OH232256   2.233   6.480  16.827  0.3754  0.0624  0.2383
 3614TIP3    H132257   2.209   6.511  16.740  0.2024 -0.8231 -0.0452
 3614TIP3    H232258   2.213   6.553  16.886  0.2336  0.5654 -0.4287
 3615TIP3   OH232259   2.024   4.606   1.572 -0.1277 -0.6614  0.1403
 3615TIP3    H132260   1.934   4.612   1.541  0.2738 -2.7179 -1.6384
 3615TIP3    H232261   2.020   4.540   1.642 -0.1614  0.0458  0.8137
 3616TIP3   OH232262   3.502   4.015  15.374 -0.4453  0.2694 -0.2470
 3616TIP3    H132263   3.464   4.091  15.329 -0.9542 -1.2304 -2.4908
 3616TIP3    H232264   3.447   4.004  15.452 -1.3663  1.2553 -0.7287
 3617TIP3   OH232265   4.422   5.449   5.242  0.3149  0.0340  0.2220
 3617TIP3    H132266   4.332   5.483   5.242  0.3457  0.1604 -1.3647
 3617TIP3    H232267   4.475   5.522   5.272 -0.1634 -0.3040  2.0589
 3618TIP3   OH232268   1.851   2.676  15.056 -0.0089  0.5396  0.3518
 3618TIP3    H132269   1.855   2.646  14.965  0.9754  0.4892  0.4066
 3618TIP3    H232270   1.899   2.759  15.056  1.7046 -0.4088  1.1924
 3619TIP3   OH232271   4.535   6.367   4.766 -0.1254 -0.3411  0.0175
 3619TIP3    H132272   4.551   6.406   4.852 -0.3646  1.0738 -0.5453
 3619TIP3    H232273   4.490   6.436   4.717 -1.7443 -1.7815 -0.6357
 3620TIP3   OH232274   5.828   5.369   2.719 -0.1786 -0.2177  0.1306
 3620TIP3    H132275   5.801   5.277   2.710  2.5549 -1.0945 -0.0021
 3620TIP3    H232276   5.824   5.386   2.813 -1.0674 -0.3171  0.1219
 3621TIP3   OH232277   4.287   1.340   4.459  0.0352 -0.2116  0.6473
 3621TIP3    H132278   4.362   1.334   4.518  2.5413  0.4327 -2.2212
 3621TIP3    H232279   4.292   1.428   4.423 -1.2066 -0.6605 -0.7293
 3622TIP3   OH232280   4.016   4.572   5.075  0.6327  0.4000 -0.9907
 3622TIP3    H132281   4.022   4.666   5.061  1.0585  0.1357 -2.8246
 3622TIP3    H232282   4.061   4.533   5.001 -1.9596 -1.2997 -1.8226
 3623TIP3   OH232283   6.417   4.133  15.185  0.0521  0.4408 -0.0667
 3623TIP3    H132284   6.449   4.221  15.165  0.5860  0.0524 -1.0170
 3623TIP3    H232285   6.442   4.081  15.109  1.2970 -0.9315  1.2293
 3624TIP3   OH232286   6.053   4.229  12.733 -0.0860  0.0979  0.0779
 3624TIP3    H132287   6.039   4.254  12.825  1.0067  0.9666  0.0287
 3624TIP3    H232288   6.052   4.311  12.685 -1.8813 -0.4405 -0.9072
 3625TIP3   OH232289   1.409   4.117  14.203 -0.3153  0.7223 -0.4164
 3625TIP3    H132290   1.406   4.212  14.204  1.7818  0.8435  1.3029
 3625TIP3    H232291   1.486   4.094  14.255  0.2677 -1.8701 -2.1629
 3626TIP3   OH232292   6.425   1.582   0.063 -0.3083 -0.0738  0.0208
 3626TIP3    H132293   6.416   1.670   0.098 -0.6490  0.6787 -1.8097
 3626TIP3    H232294   6.420   1.524   0.139  0.6548  1.5069  1.3373
 3627TIP3   OH232295   5.712   0.155   5.464 -0.1975  0.7086 -0.1050
 3627TIP3    H132296   5.760   0.167   5.546 -0.4331  1.1409 -0.0274
 3627TIP3    H232297   5.767   0.196   5.397  0.3851 -0.3620 -0.2959
 3628TIP3   OH232298   6.012   5.772   6.867 -0.3415 -0.1183 -0.0368
 3628TIP3    H132299   6.067   5.784   6.790 -0.8216  2.9425 -0.0481
 3628TIP3    H232300   6.032   5.848   6.922 -2.8041 -0.1482  1.0419
 3629TIP3   OH232301   5.597   0.968   0.528 -0.4055  0.2565 -0.4633
 3629TIP3    H132302   5.534   1.037   0.509 -1.9403 -0.3512  1.9301
 3629TIP3    H232303   5.551   0.887   0.506 -0.8988 -0.2390  2.0201
 3630TIP3   OH232304   4.883   6.440   0.137  0.2890 -0.1861 -0.1516
 3630TIP3    H132305   4.894   6.468   0.228  0.4750  2.3621 -0.8747
 3630TIP3    H232306   4.791   6.459   0.117 -0.0636 -1.7989 -0.2205
 3631TIP3   OH232307   1.235   2.620   0.825 -0.5184  0.4377 -0.0074
 3631TIP3    H132308   1.248   2.686   0.757  0.5437 -0.6511 -0.8882
 3631TIP3    H232309   1.144   2.593   0.816 -0.3196  0.1335 -1.1651
 3632TIP3   OH232310   5.671   5.727  13.089  0.3028 -0.6399 -0.5897
 3632TIP3    H132311   5.598   5.702  13.145  0.9521  0.3543  0.7530
 3632TIP3    H232312   5.749   5.709  13.141  0.9902 -0.7941 -1.6400
 3633TIP3   OH232313   2.380   4.144   1.408  0.1193  0.5695  0.1935
 3633TIP3    H132314   2.450   4.113   1.466 -0.3979  2.3930  1.8898
 3633TIP3    H232315   2.426   4.193   1.340  0.6588 -0.6020 -0.3075
 3634TIP3   OH232316   0.492   4.589   1.296 -0.2551 -0.1128  0.7441
 3634TIP3    H132317   0.534   4.513   1.334 -3.4771 -2.2341  0.4425
 3634TIP3    H232318   0.462   4.559   1.210  0.2932  2.2269 -0.3452
 3635TIP3   OH232319   4.016   0.391  12.773  0.5067 -0.4684  0.1557
 3635TIP3    H132320   4.036   0.376  12.866 -0.8716 -1.8897  0.2626
 3635TIP3    H232321   4.098   0.376  12.728  1.5784  1.6684  1.2289
 3636TIP3   OH232322   6.117   1.223  17.053 -0.1773 -0.0524  0.1002
 3636TIP3    H132323   6.022   1.222  17.041 -0.1302 -0.0408 -0.3049
 3636TIP3    H232324   6.131   1.192  17.142 -0.4846 -1.7835 -0.4095
 3637TIP3   OH232325   5.628   3.166  12.449 -0.0548 -0.0051 -0.8731
 3637TIP3    H132326   5.574   3.245  12.452 -0.6739 -0.4389 -0.0566
 3637TIP3    H232327   5.571   3.097  12.483  0.7092 -0.6678 -0.8998
 3638TIP3   OH232328   3.370   1.211   0.166  0.3626 -0.3567 -0.7191
 3638TIP3    H132329   3.301   1.196   0.101 -1.6229 -0.2704  1.2236
 3638TIP3    H232330   3.368   1.133   0.221  0.0309  0.6909  0.8343
 3639TIP3   OH232331   6.373   2.245  14.917  0.0635 -0.0674 -0.0661
 3639TIP3    H132332   6.405   2.228  15.006 -0.2544 -0.6054 -0.0562
 3639TIP3    H232333   6.296   2.190  14.907  0.9279 -1.1261 -1.1892
 3640TIP3   OH232334   6.592   3.593   1.064 -0.0940 -0.0636 -0.5251
 3640TIP3    H132335   6.592   3.573   1.158  0.2334 -1.3591 -0.7918
 3640TIP3    H232336   6.680   3.571   1.035  0.2196  1.5695 -0.9042
 3641TIP3   OH232337   3.359   1.779  16.466  0.5992 -0.4925 -0.5933
 3641TIP3    H132338   3.400   1.852  16.420  2.1706  0.3752  2.0204
 3641TIP3    H232339   3.429   1.740  16.518 -1.1198 -1.1417  1.3755
 3642TIP3   OH232340   2.028   2.959  12.454 -0.0588  0.5194 -0.6259
 3642TIP3    H132341   2.057   2.874  12.487 -1.0726  0.7950  1.0858
 3642TIP3    H232342   2.072   2.967  12.370  2.0268 -0.6151  0.2534
 3643TIP3   OH232343   5.640   5.783  15.842  0.1807 -0.0238 -0.3376
 3643TIP3    H132344   5.624   5.689  15.838 -1.1358  0.1810 -0.3804
 3643TIP3    H232345   5.649   5.802  15.936 -0.7316 -0.0358 -0.2318
 3644TIP3   OH232346   1.278   1.851  15.848  0.4297 -0.4200 -0.4566
 3644TIP3    H132347   1.347   1.863  15.913  0.9626 -0.0595 -1.0839
 3644TIP3    H232348   1.314   1.786  15.788  0.7591  0.7124 -1.5099
 3645TIP3   OH232349   3.809   4.974  11.577 -0.4470 -0.1840  0.3241
 3645TIP3    H132350   3.896   4.942  11.555  0.3132  1.4389  0.8421
 3645TIP3    H232351   3.822   5.032  11.652 -2.0851 -0.4906  0.9049
 3646TIP3   OH232352   3.673   4.131  16.054  0.0274  0.2532  0.2071
 3646TIP3    H132353   3.614   4.102  16.124 -0.9340  0.4283 -0.5003
 3646TIP3    H232354   3.689   4.052  16.002 -1.4661  0.6288 -0.9142
 3647TIP3   OH232355   3.086   5.793  11.508  0.5279 -0.5174 -0.0750
 3647TIP3    H132356   3.068   5.872  11.559  0.4956 -0.4682 -0.1618
 3647TIP3    H232357   3.157   5.819  11.449  0.4805 -0.5378 -0.1406
 3648TIP3   OH232358   4.100   4.925  10.107  0.0873 -0.1815 -0.0993
 3648TIP3    H132359   4.079   4.955  10.196 -0.0466 -1.2644  0.2572
 3648TIP3    H232360   4.191   4.950  10.094  0.5086 -1.1041  0.8540
 3649TIP3   OH232361   5.346   3.212  13.227  0.0108 -0.0321  0.2172
 3649TIP3    H132362   5.304   3.226  13.312 -0.0018 -0.5129  0.2914
 3649TIP3    H232363   5.438   3.233  13.242 -0.1385  0.6999  0.1379
 3650TIP3   OH232364   1.045   2.889   4.505 -0.4652 -0.4284  0.4633
 3650TIP3    H132365   1.127   2.928   4.476 -1.1770 -0.4539 -1.8305
 3650TIP3    H232366   1.003   2.956   4.557  0.0680  0.4020 -0.1454
 3651TIP3   OH232367   2.019   6.140   4.329  0.6547 -0.7197  0.5083
 3651TIP3    H132368   2.103   6.127   4.286  0.0370  0.8582 -1.3312
 3651TIP3    H232369   1.954   6.118   4.262 -0.3661 -0.0019  1.2308
 3652TIP3   OH232370   2.233   4.823  15.705 -0.0363 -0.6423  0.0271
 3652TIP3    H132371   2.327   4.825  15.726  0.1964 -0.9465 -0.9303
 3652TIP3    H232372   2.228   4.774  15.623 -1.2858 -2.8197  1.3149
 3653TIP3   OH232373   3.134   3.898  10.882  0.0802  0.1426 -0.2869
 3653TIP3    H132374   3.144   3.826  10.944 -1.5324  0.7639  0.7873
 3653TIP3    H232375   3.217   3.902  10.836  0.4765 -1.9038  0.1468
 3654TIP3   OH232376   6.506   0.707   6.215  0.1419  1.0134  0.3261
 3654TIP3    H132377   6.591   0.748   6.198  0.9790 -0.7167  0.0318
 3654TIP3    H232378   6.459   0.711   6.132  0.9768 -0.2362 -0.2426
 3655TIP3   OH232379   6.025   1.908   6.530 -0.1810 -0.3778  0.2510
 3655TIP3    H132380   5.934   1.888   6.551 -0.5781  0.2909 -0.7376
 3655TIP3    H232381   6.039   1.868   6.444 -0.4256  1.8913 -0.9119
 3656TIP3   OH232382   2.684   0.687   3.574 -0.4054  0.1033 -0.0050
 3656TIP3    H132383   2.649   0.669   3.661  3.1552 -1.8534  1.2258
 3656TIP3    H232384   2.627   0.637   3.515 -1.2533 -0.8029  1.5171
 3657TIP3   OH232385   2.666   0.487   1.915 -0.3252 -0.0338  0.2462
 3657TIP3    H132386   2.599   0.473   1.982  0.2840  0.5871  1.0030
 3657TIP3    H232387   2.708   0.570   1.939  2.9652 -1.9528  1.7455
 3658TIP3   OH232388   3.196   5.912  16.900 -0.2525 -0.3395  0.7819
 3658TIP3    H132389   3.167   5.853  16.969  2.0685  0.3551  2.4423
 3658TIP3    H232390   3.230   5.989  16.945 -0.8238  1.2123 -1.2384
 3659TIP3   OH232391   1.375   5.649  15.385  0.7300 -0.0314  0.2932
 3659TIP3    H132392   1.460   5.606  15.383  1.0498  0.5569  0.8334
 3659TIP3    H232393   1.393   5.739  15.358  0.0621 -0.2205 -0.8796
 3660TIP3   OH232394   6.268   2.276   1.625 -0.1044  0.1937 -0.0679
 3660TIP3    H132395   6.298   2.338   1.691 -2.1269  1.7805 -0.5348
 3660TIP3    H232396   6.233   2.202   1.676  0.0645  0.5496  0.5743
 3661TIP3   OH232397   2.206   4.504  12.356  0.1262 -0.1156  0.0093
 3661TIP3    H132398   2.281   4.563  12.353  0.2046 -0.0386  2.1354
 3661TIP3    H232399   2.203   4.465  12.269  1.7745  0.9171 -0.5612
 3662TIP3   OH232400   1.795   4.373  12.419 -0.4456  0.5809 -0.1741
 3662TIP3    H132401   1.715   4.408  12.457 -1.8212 -1.1251 -1.3511
 3662TIP3    H232402   1.776   4.280  12.404  1.8875  0.0364 -0.1691
 3663TIP3   OH232403   2.270   2.213  12.070 -0.0933 -0.3934  0.0673
 3663TIP3    H132404   2.357   2.180  12.048  0.4991  0.7824  0.5333
 3663TIP3    H232405   2.218   2.198  11.991  0.5740 -0.9536 -0.2813
 3664TIP3   OH232406   6.299   1.760   3.393  0.8356  0.2401 -0.3057
 3664TIP3    H132407   6.266   1.683   3.439 -1.7589  0.7632 -1.0987
 3664TIP3    H232408   6.294   1.737   3.300  0.6911  1.1075 -0.5249
 3665TIP3   OH232409   2.779   4.371  15.507  0.0550 -0.1212  0.1907
 3665TIP3    H132410   2.834   4.322  15.569 -0.8543 -2.0833 -0.4601
 3665TIP3    H232411   2.762   4.309  15.436 -0.4598  1.4610 -1.1288
 3666TIP3   OH232412   1.025   1.137  12.776 -0.0159  0.1083  0.1603
 3666TIP3    H132413   1.028   1.147  12.681 -2.3515  1.9913  0.1939
 3666TIP3    H232414   1.005   1.045  12.791 -0.1850 -0.0828 -1.1900
 3667TIP3   OH232415   0.481   0.128  13.794  0.1837  0.4044 -0.2673
 3667TIP3    H132416   0.566   0.085  13.781  1.0002  1.9355 -0.2463
 3667TIP3    H232417   0.503   0.212  13.833 -1.4578  0.3362  0.9336
 3668TIP3   OH232418   6.223   2.071   3.599 -0.1713  0.8341 -0.1636
 3668TIP3    H132419   6.160   2.017   3.552 -0.1785  2.5020 -2.2090
 3668TIP3    H232420   6.169   2.127   3.655 -0.1698 -1.0366  1.8430
 3669TIP3   OH232421   0.751   2.189  10.989  0.4706  0.1766  0.6029
 3669TIP3    H132422   0.767   2.124  10.920  1.6358  0.3678  0.6794
 3669TIP3    H232423   0.771   2.273  10.948  0.2077  0.3786  0.8833
 3670TIP3   OH232424   6.730   1.207  14.176  0.1350 -0.0355 -0.2956
 3670TIP3    H132425   6.659   1.228  14.116  0.4328  0.0421 -0.6193
 3670TIP3    H232426   6.695   1.137  14.231  0.2282 -0.8357 -1.2429
 3671TIP3   OH232427   3.200   0.427   4.929 -0.9295  0.1916 -0.3140
 3671TIP3    H132428   3.254   0.364   4.881  0.9694 -0.4907  2.4536
 3671TIP3    H232429   3.117   0.427   4.882  0.6535 -0.4867 -3.4176
 3672TIP3   OH232430   6.413   3.780   0.121  0.6593  0.4030 -0.0229
 3672TIP3    H132431   6.426   3.725   0.043 -0.8160 -0.8837  0.5905
 3672TIP3    H232432   6.493   3.767   0.172  0.2250 -1.5104  0.2620
 3673TIP3   OH232433   6.383   4.824   3.179 -0.3811 -0.8233  0.7149
 3673TIP3    H132434   6.344   4.810   3.093  0.2266  3.1952 -0.4292
 3673TIP3    H232435   6.465   4.775   3.177  0.3712  0.4145 -1.6717
 3674TIP3   OH232436   1.560   4.975   1.671 -0.7982  0.8485 -0.2376
 3674TIP3    H132437   1.536   4.983   1.578  0.7906 -0.5647 -0.8366
 3674TIP3    H232438   1.525   4.889   1.696  1.2102 -0.0562 -0.3880
 3675TIP3   OH232439   0.876   6.291   0.811  0.5382  0.2558  0.0121
 3675TIP3    H132440   0.788   6.256   0.829  0.1554  0.9515 -0.4541
 3675TIP3    H232441   0.927   6.215   0.785 -0.3624  0.0620 -1.3010
 3676TIP3   OH232442   2.043   1.091   3.842 -0.8355 -0.1215  0.0684
 3676TIP3    H132443   2.132   1.063   3.819 -1.0676 -2.7291  1.9127
 3676TIP3    H232444   2.056   1.169   3.897  0.4055 -0.8440  0.8543
 3677TIP3   OH232445   0.456   5.783  13.174 -0.1007 -0.1634 -0.2032
 3677TIP3    H132446   0.443   5.860  13.229  0.0021  0.7992 -1.4680
 3677TIP3    H232447   0.463   5.818  13.085  1.2163 -1.5196 -0.6788
 3678TIP3   OH232448   5.102   4.115   5.332 -0.3703 -0.2794 -0.1695
 3678TIP3    H132449   5.126   4.166   5.255  0.2593  0.4421  0.4852
 3678TIP3    H232450   5.072   4.181   5.396  1.8831 -0.5116  1.2301
 3679TIP3   OH232451   4.469   6.715  16.113  0.3477 -0.3612  0.3800
 3679TIP3    H132452   4.454   6.622  16.100 -0.6446 -0.1519 -0.1109
 3679TIP3    H232453   4.457   6.754  16.026 -1.5839  0.4861  0.9450
 3680TIP3   OH232454   2.229   2.270   4.225  0.3174 -0.2474  0.6158
 3680TIP3    H132455   2.286   2.279   4.149 -1.1115  1.1881 -0.3610
 3680TIP3    H232456   2.287   2.288   4.300  1.9327 -2.4809  0.0079
 3681TIP3   OH232457   5.449   2.483  16.865  0.3324 -0.5840  0.2432
 3681TIP3    H132458   5.395   2.456  16.939 -0.9863  0.3666 -0.3352
 3681TIP3    H232459   5.486   2.567  16.892 -2.6355  1.3750 -1.2464
 3682TIP3   OH232460   0.069   0.073   5.706  0.1433 -0.2600  0.2471
 3682TIP3    H132461   0.049   0.140   5.772 -1.1953 -0.3535 -0.0225
 3682TIP3    H232462   0.076   0.122   5.624  1.4768 -0.1874  0.3774
 3683TIP3   OH232463   1.014   3.045   6.771 -0.3894  0.1449  0.6458
 3683TIP3    H132464   1.052   3.133   6.764  0.5774 -0.3315 -0.4216
 3683TIP3    H232465   0.931   3.059   6.817  0.7193  1.3190  2.4430
 3684TIP3   OH232466   0.631   2.795  15.922  0.2573  0.1938  0.4331
 3684TIP3    H132467   0.589   2.861  15.977 -1.3753 -0.4307  0.0135
 3684TIP3    H232468   0.603   2.816  15.833 -0.8613 -1.3923  0.3588
 3685TIP3   OH232469   1.648   1.504   0.072  0.0906  0.2266 -0.2175
 3685TIP3    H132470   1.625   1.453  -0.006 -0.6986 -0.0491  0.1821
 3685TIP3    H232471   1.573   1.492   0.131  0.4952  0.7672  0.4163
 3686TIP3   OH232472   2.064   3.426   2.214 -0.6777  0.0151  0.1442
 3686TIP3    H132473   2.124   3.481   2.163 -0.2271 -2.0189 -1.6885
 3686TIP3    H232474   1.984   3.422   2.162 -0.9947 -0.4311  0.6510
 3687TIP3   OH232475   6.506   6.419  15.667 -0.3791  0.0810 -0.2482
 3687TIP3    H132476   6.431   6.391  15.613  0.0519 -1.6356 -0.0111
 3687TIP3    H232477   6.472   6.419  15.756 -1.1697  3.1822 -0.4122
 3688TIP3   OH232478   5.828   6.182   1.865  0.4348  0.4833  0.4759
 3688TIP3    H132479   5.802   6.097   1.900 -1.0184  0.1417 -1.2672
 3688TIP3    H232480   5.809   6.175   1.771  1.1005  2.4388  0.1671
 3689TIP3   OH232481   4.747   4.186  11.621 -0.9210  0.3105  0.0136
 3689TIP3    H132482   4.834   4.224  11.612 -1.5751  2.3288  1.4269
 3689TIP3    H232483   4.715   4.177  11.531 -0.0260  1.4404 -0.4451
 3690TIP3   OH232484   0.535   1.172   3.964 -0.3191  0.6742  0.1996
 3690TIP3    H132485   0.598   1.184   3.893 -0.8493 -1.1819 -0.6413
 3690TIP3    H232486   0.499   1.085   3.950 -2.2023  1.2065  1.3622
 3691TIP3   OH232487   2.380   1.838  13.209 -0.3994 -0.1952 -0.0082
 3691TIP3    H132488   2.402   1.913  13.266 -1.3686  0.5087 -0.5285
 3691TIP3    H232489   2.308   1.795  13.254  0.7052 -1.3527  0.7192
 3692TIP3   OH232490   3.950   6.759   0.084  0.1887  0.1157 -0.0344
 3692TIP3    H132491   3.980   6.848   0.102  1.6311 -0.0090 -1.5233
 3692TIP3    H232492   3.908   6.731   0.165  0.5386  1.8168  0.7839
 3693TIP3   OH232493   6.060   3.139   3.308  1.1434 -0.1798  0.0739
 3693TIP3    H132494   6.079   3.205   3.241 -1.0921 -2.2794 -2.9111
 3693TIP3    H232495   5.964   3.135   3.311  1.1934 -1.3412  2.2751
 3694TIP3   OH232496   6.201   3.517  17.086  0.3107 -0.3920 -0.4794
 3694TIP3    H132497   6.212   3.478  16.999 -0.9517 -0.3833 -0.6640
 3694TIP3    H232498   6.143   3.455  17.133  1.5247 -0.7563  0.6095
 3695TIP3   OH232499   2.709   1.289  14.042 -0.4527  0.9781 -0.2878
 3695TIP3    H132500   2.755   1.336  14.112  0.2830  0.4025 -0.3737
 3695TIP3    H232501   2.746   1.201  14.044 -0.8756  0.7784 -0.9974
 3696TIP3   OH232502   1.917   0.493  13.182 -1.0153  0.0648 -0.2530
 3696TIP3    H132503   1.898   0.585  13.199 -1.2451 -0.2807  1.4517
 3696TIP3    H232504   1.931   0.454  13.268  0.5192 -1.2013 -1.0198
 3697TIP3   OH232505   5.353   6.102  11.723  0.4077 -0.0516  0.0694
 3697TIP3    H132506   5.357   6.017  11.679  0.4232  0.2901 -0.5960
 3697TIP3    H232507   5.343   6.080  11.816  1.6920 -0.7954  0.0585
 3698TIP3   OH232508   5.108   3.549   5.817 -0.9191  0.1386  0.4310
 3698TIP3    H132509   5.023   3.520   5.783  0.0769  0.5870 -2.8447
 3698TIP3    H232510   5.111   3.643   5.797 -0.0600  0.3624  1.5062
 3699TIP3   OH232511   6.283   0.930   0.522  0.0360 -0.8836 -0.2201
 3699TIP3    H132512   6.192   0.917   0.547 -0.2290  1.5819  0.2879
 3699TIP3    H232513   6.282   0.940   0.427 -0.2640 -0.6060 -0.1877
 3700TIP3   OH232514   2.985   6.295   0.924  0.6416  0.8478  0.1699
 3700TIP3    H132515   3.070   6.251   0.926  0.1722 -0.1228 -0.6719
 3700TIP3    H232516   2.924   6.233   0.962  0.3180  1.5976  0.8994
 3701TIP3   OH232517   4.117   2.786   2.550 -0.2225 -0.2412  0.2719
 3701TIP3    H132518   4.082   2.742   2.472  1.5170  0.1548 -0.7813
 3701TIP3    H232519   4.167   2.860   2.515  1.5285 -0.6983  1.6673
 3702TIP3   OH232520   0.024   5.854   0.272 -0.5734 -0.7330  0.6857
 3702TIP3    H132521   0.052   5.810   0.353 -0.1079 -1.4207  0.1626
 3702TIP3    H232522  -0.071   5.838   0.268 -0.7869  0.1806  1.6063
 3703TIP3   OH232523   4.370   5.422   2.835 -0.0801  0.5005 -0.1508
 3703TIP3    H132524   4.290   5.474   2.834 -0.1356  0.5517  2.0842
 3703TIP3    H232525   4.425   5.462   2.902  1.8667  0.4730 -1.6468
 3704TIP3   OH232526   3.088   2.630   4.632  0.4143  0.0337 -0.1678
 3704TIP3    H132527   3.096   2.548   4.681  1.7247  1.5538  2.3607
 3704TIP3    H232528   3.178   2.660   4.622  0.2121 -0.0365 -3.4623
 3705TIP3   OH232529   2.252   4.512   1.391 -0.3171  0.2417 -0.5715
 3705TIP3    H132530   2.284   4.448   1.327 -0.3876  0.0804 -0.4437
 3705TIP3    H232531   2.178   4.469   1.434 -0.1793  0.2988 -0.2789
 3706TIP3   OH232532   3.245   3.328   2.282  0.2406 -0.1258 -0.1987
 3706TIP3    H132533   3.336   3.360   2.280 -0.1811  1.3062  1.2937
 3706TIP3    H232534   3.232   3.288   2.196  2.4529 -0.8965 -0.2524
 3707TIP3   OH232535   0.682   4.299   6.344  0.2227  0.4496 -0.5967
 3707TIP3    H132536   0.596   4.291   6.384  0.5384  1.4539  0.3390
 3707TIP3    H232537   0.688   4.224   6.284 -0.5285 -0.7470  0.7641
 3708TIP3   OH232538   3.257   3.524   4.474 -0.1598 -0.0286  0.1149
 3708TIP3    H132539   3.310   3.450   4.505  1.0339  0.3108 -1.0001
 3708TIP3    H232540   3.234   3.571   4.554 -0.1817 -1.1005  0.7688
 3709TIP3   OH232541   4.785   1.235  15.140 -0.0285  0.4352  0.1166
 3709TIP3    H132542   4.826   1.268  15.221  1.0667  0.1530 -0.3073
 3709TIP3    H232543   4.788   1.140  15.149  0.2279  0.4007 -0.3183
 3710TIP3   OH232544   6.107   6.538  14.328  0.1828 -0.5254 -0.4657
 3710TIP3    H132545   6.063   6.494  14.400 -1.2907  0.6836 -0.5864
 3710TIP3    H232546   6.117   6.629  14.357 -1.4058  0.2471 -2.1453
 3711TIP3   OH232547   2.069   2.053   5.792 -0.5714 -0.1498  0.0205
 3711TIP3    H132548   2.155   2.011   5.788 -0.5006  0.0890 -2.1408
 3711TIP3    H232549   2.086   2.145   5.773 -1.2185  0.0519  0.3850
 3712TIP3   OH232550   2.801   5.522   0.421  0.0134 -0.1454  0.6801
 3712TIP3    H132551   2.816   5.579   0.497  1.1428  0.5549 -0.0516
 3712TIP3    H232552   2.866   5.549   0.357  0.1336 -1.8283  0.0540
 3713TIP3   OH232553   6.220   5.222  11.356 -0.1636 -0.5964  0.3959
 3713TIP3    H132554   6.277   5.299  11.355  0.5958 -1.1234  1.2141
 3713TIP3    H232555   6.209   5.199  11.264 -0.7433  0.7262  0.1176
 3714TIP3   OH232556   5.792   2.901   1.226 -0.0093  0.1289 -0.3407
 3714TIP3    H132557   5.823   2.992   1.229 -0.8630  0.4083  0.9816
 3714TIP3    H232558   5.837   2.863   1.150  1.6499  1.1792  0.0528
 3715TIP3   OH232559   5.608   0.799   3.940  0.6989 -0.2995 -0.3526
 3715TIP3    H132560   5.656   0.876   3.910  0.9504 -0.6719 -0.9347
 3715TIP3    H232561   5.516   0.827   3.940  0.8938  0.4064  0.7377
 3716TIP3   OH232562   6.752   2.102   1.102  0.4933  0.3641  0.4885
 3716TIP3    H132563   6.840   2.137   1.090  0.6440 -0.0319  0.4551
 3716TIP3    H232564   6.750   2.021   1.052  0.7169 -0.6103  1.9788
 3717TIP3   OH232565   3.459   3.117   1.554  0.4216  0.0355  0.7584
 3717TIP3    H132566   3.471   3.180   1.483 -0.6158  0.5415  1.0134
 3717TIP3    H232567   3.482   3.165   1.633 -0.4022  0.1172  0.9558
 3718TIP3   OH232568   0.825   1.616   0.655  0.4009  0.1308  0.4190
 3718TIP3    H132569   0.814   1.668   0.575 -1.4561 -0.6258  0.1244
 3718TIP3    H232570   0.798   1.527   0.630  0.8679 -0.3687  1.6060
 3719TIP3   OH232571   2.598   0.944  12.174  0.4411  0.1712  0.1115
 3719TIP3    H132572   2.625   0.853  12.174 -0.7604 -0.2138  0.4507
 3719TIP3    H232573   2.555   0.956  12.259 -1.1817  0.4738 -0.7011
 3720TIP3   OH232574   1.833   4.355  16.206 -0.2790 -0.3493 -0.5365
 3720TIP3    H132575   1.927   4.343  16.193  0.2768  2.4402  0.1747
 3720TIP3    H232576   1.827   4.405  16.287 -2.6126 -2.8008  0.9722
 3721TIP3   OH232577   2.793   4.693   0.464  0.2878 -0.0382  0.2499
 3721TIP3    H132578   2.853   4.767   0.461  0.6686 -0.2526  1.5864
 3721TIP3    H232579   2.706   4.733   0.469  0.4977  0.3389  1.1232
 3722TIP3   OH232580   2.327   6.115   3.311 -0.8095 -0.1879 -0.0321
 3722TIP3    H132581   2.403   6.167   3.336  0.1726 -1.5084 -0.2050
 3722TIP3    H232582   2.309   6.061   3.388  0.3101 -2.0392 -1.0118
 3723TIP3   OH232583   3.945   0.441   1.283  0.9269  0.0338 -0.3131
 3723TIP3    H132584   3.964   0.427   1.376 -0.3703 -0.4927 -0.1083
 3723TIP3    H232585   4.010   0.505   1.255  1.4524  0.0652  0.9128
 3724TIP3   OH232586   3.377   4.979  14.685 -0.5410  0.4281  0.0607
 3724TIP3    H132587   3.356   4.947  14.597 -3.3224  1.9551  0.0414
 3724TIP3    H232588   3.362   4.904  14.742 -0.7114 -0.0313 -0.5769
 3725TIP3   OH232589   6.567   0.827  15.305 -0.6345 -0.0145  0.0126
 3725TIP3    H132590   6.498   0.890  15.287  2.1263  3.2009 -0.3056
 3725TIP3    H232591   6.551   0.800  15.396 -1.6602  1.5051  0.3241
 3726TIP3   OH232592   4.596   5.789  11.534  0.1890  0.7333 -0.5021
 3726TIP3    H132593   4.529   5.721  11.544 -1.3632  2.3754  1.2480
 3726TIP3    H232594   4.590   5.840  11.615  2.1238  2.2181 -1.2211
 3727TIP3   OH232595   0.883   6.135  12.707 -0.6265 -0.3188 -0.4924
 3727TIP3    H132596   0.799   6.090  12.712 -0.7194 -0.0918  0.1864
 3727TIP3    H232597   0.907   6.132  12.615 -2.0221  0.7858 -0.9221
 3728TIP3   OH232598   6.312   4.150  16.716 -0.3917  0.7798 -0.1585
 3728TIP3    H132599   6.284   4.193  16.797 -2.0847 -1.1147  0.3550
 3728TIP3    H232600   6.234   4.106  16.684  0.9799 -1.0991 -1.1294
 3729TIP3   OH232601   5.923   5.607   1.269 -0.0058  0.3809  0.4026
 3729TIP3    H132602   5.993   5.657   1.310  1.0771 -0.8199  0.0494
 3729TIP3    H232603   5.912   5.648   1.183  1.3913 -0.4101 -0.1821
 3730TIP3   OH232604   1.710   0.797   0.499  0.8017 -0.0868 -0.8374
 3730TIP3    H132605   1.738   0.725   0.442  0.4663 -0.8642 -0.0647
 3730TIP3    H232606   1.749   0.776   0.584 -1.3522 -0.7716  0.0707
 3731TIP3   OH232607   1.098   4.566  14.899  0.4606  0.4378  0.2850
 3731TIP3    H132608   1.120   4.642  14.953 -0.3043 -0.7482  2.3994
 3731TIP3    H232609   1.021   4.528  14.941 -0.1762 -0.6079 -1.6698
 3732TIP3   OH232610   1.128   4.960   3.624 -0.5860 -0.6083 -0.3471
 3732TIP3    H132611   1.061   5.028   3.623 -1.0366 -1.0593 -0.7504
 3732TIP3    H232612   1.182   4.982   3.700 -1.6176 -0.6675  0.4267
 3733TIP3   OH232613   3.018   0.910   5.101 -0.0630  0.8476 -0.0292
 3733TIP3    H132614   3.014   0.999   5.066  0.7369  1.6629  1.7661
 3733TIP3    H232615   3.083   0.865   5.048 -0.7143  1.2193 -1.1632
 3734TIP3   OH232616   6.392   4.633   4.009 -0.6983  0.6412 -0.0959
 3734TIP3    H132617   6.487   4.621   4.003 -0.5843  1.8434 -1.1212
 3734TIP3    H232618   6.363   4.562   4.067  0.9279  0.7993  0.9942
 3735TIP3   OH232619   5.933   2.564  16.642 -0.2961  0.2647  0.3822
 3735TIP3    H132620   5.934   2.638  16.580  0.2369  0.5367  0.7036
 3735TIP3    H232621   6.020   2.527  16.637 -0.8165 -0.8951 -0.4058
 3736TIP3   OH232622   2.197   6.167   0.530 -0.9139  0.1496 -0.4920
 3736TIP3    H132623   2.228   6.116   0.605  0.2597 -0.1514 -1.1608
 3736TIP3    H232624   2.155   6.244   0.569 -0.0650  0.1425  0.4784
 3737TIP3   OH232625   1.810   3.927  17.055  0.1097  0.1462  0.0640
 3737TIP3    H132626   1.745   3.876  17.103 -0.1423  1.1443  0.8362
 3737TIP3    H232627   1.856   3.864  17.000 -2.0064 -0.4713 -1.0762
 3738TIP3   OH232628   6.628   5.716  17.079  0.1184  0.3648  0.9950
 3738TIP3    H132629   6.546   5.710  17.130 -0.2539  0.0701  0.3769
 3738TIP3    H232630   6.692   5.749  17.141 -0.4415  0.4627  1.5354
 3739TIP3   OH232631   2.746   0.173   2.073  0.2474 -0.2299  0.7921
 3739TIP3    H132632   2.697   0.255   2.074 -0.6907 -0.6842 -1.6863
 3739TIP3    H232633   2.819   0.188   2.134  0.6790  2.8048 -0.2970
 3740TIP3   OH232634   6.357   5.619   5.073 -0.2166 -0.4866  0.8641
 3740TIP3    H132635   6.373   5.668   5.153 -0.1074  1.0086 -0.0429
 3740TIP3    H232636   6.413   5.541   5.081  0.0689 -0.1738  2.0556
 3741TIP3   OH232637   4.084   0.019   3.359  0.0698  0.0034  0.0319
 3741TIP3    H132638   4.006   0.054   3.317 -0.9230  1.9678  3.1210
 3741TIP3    H232639   4.156   0.069   3.322 -0.3250 -0.5009 -1.4844
 3742TIP3   OH232640   2.763   6.709   1.116  0.0706  0.2442 -0.3263
 3742TIP3    H132641   2.808   6.625   1.115  1.3649  0.9074 -0.1641
 3742TIP3    H232642   2.789   6.750   1.198  0.3649  1.2689 -0.9103
 3743TIP3   OH232643   2.654   5.308  13.685 -0.3423 -0.2990  0.5520
 3743TIP3    H132644   2.724   5.277  13.627  0.4751  0.1921  1.2508
 3743TIP3    H232645   2.700   5.348  13.759 -1.3665  0.0863  1.0011
 3744TIP3   OH232646   5.787   1.981  11.066 -0.0522 -0.2536  0.2404
 3744TIP3    H132647   5.752   2.055  11.017  1.0410  0.2295  0.1674
 3744TIP3    H232648   5.801   2.016  11.154  2.0060  0.1408 -0.1920
 3745TIP3   OH232649   1.720   1.302   3.863  0.5909  0.0014  0.2784
 3745TIP3    H132650   1.660   1.269   3.930  1.5379 -0.0397  1.1422
 3745TIP3    H232651   1.801   1.320   3.911  1.0275  0.7804 -0.7119
 3746TIP3   OH232652   1.680   1.780  11.017 -0.3847  0.3461  0.4855
 3746TIP3    H132653   1.649   1.844  11.081 -0.9803 -0.1452  0.6942
 3746TIP3    H232654   1.603   1.761  10.963 -0.1641 -0.0720  0.3199
 3747TIP3   OH232655   3.696   4.346   5.465  0.2907 -0.3847 -0.4618
 3747TIP3    H132656   3.700   4.313   5.376 -0.3282 -0.5798 -0.4237
 3747TIP3    H232657   3.646   4.280   5.513  1.6044 -0.8670  0.3023
 3748TIP3   OH232658   2.103   1.304   4.899 -0.7622  0.0513  0.7552
 3748TIP3    H132659   2.175   1.240   4.895 -0.6610  0.1699  0.6323
 3748TIP3    H232660   2.072   1.300   4.989  0.2711  0.9417  1.1761
 3749TIP3   OH232661   3.134   1.510   4.692  0.0490 -0.5988  0.2854
 3749TIP3    H132662   3.094   1.596   4.709 -2.4490 -1.9565  1.8707
 3749TIP3    H232663   3.076   1.468   4.629  1.0722 -1.2820 -0.2322
 3750TIP3   OH232664   5.517   6.640  11.833 -0.3129  0.3026 -0.3158
 3750TIP3    H132665   5.462   6.664  11.758  0.3884  1.5492 -0.4553
 3750TIP3    H232666   5.533   6.722  11.879  2.0778  0.1623 -0.7375
 3751TIP3   OH232667   2.800   0.039   5.221  0.0983 -0.0630 -0.3691
 3751TIP3    H132668   2.747   0.107   5.262 -0.4177 -1.5734  1.6619
 3751TIP3    H232669   2.798   0.060   5.128  0.0928  2.7331  0.1770
 3752TIP3   OH232670   1.433   3.346   1.358  0.7152 -0.1376  0.0522
 3752TIP3    H132671   1.492   3.330   1.432  0.3152 -0.4876  0.3001
 3752TIP3    H232672   1.418   3.440   1.359  1.9489  0.0894 -0.5406
 3753TIP3   OH232673   0.732   4.737  12.188 -0.2544 -0.0086 -0.3675
 3753TIP3    H132674   0.671   4.699  12.125 -2.4528 -2.4412  2.8883
 3753TIP3    H232675   0.678   4.795  12.242  0.4125 -1.3939  1.9468
 3754TIP3   OH232676   3.206   3.539   2.454  0.2524  0.6358  0.0479
 3754TIP3    H132677   3.211   3.457   2.404 -1.1301 -0.3831  1.4351
 3754TIP3    H232678   3.262   3.524   2.530 -0.5419  0.6745  0.6584
 3755TIP3   OH232679   1.818   1.049   4.451  0.6922 -0.1403  1.0299
 3755TIP3    H132680   1.900   1.093   4.475  1.2854 -1.6274  1.8353
 3755TIP3    H232681   1.759   1.066   4.525  0.3560  0.6737  0.5871
 3756TIP3   OH232682   1.231   2.737  15.822 -0.1884 -0.1508 -0.4906
 3756TIP3    H132683   1.138   2.726  15.805 -0.5395  1.1820  0.3909
 3756TIP3    H232684   1.260   2.801  15.758 -0.5382  1.5516  0.9816
 3757TIP3   OH232685   3.005   6.307   5.575 -0.3060  0.3056  0.0305
 3757TIP3    H132686   2.979   6.366   5.646 -1.0621  0.3596 -0.2838
 3757TIP3    H232687   3.048   6.234   5.620 -2.8068 -0.8091  0.8113
 3758TIP3   OH232688   4.851   1.096   1.605 -0.0255 -0.3831  0.1202
 3758TIP3    H132689   4.924   1.105   1.667  0.2729  1.1882 -0.4105
 3758TIP3    H232690   4.815   1.185   1.598 -0.4134 -0.6432 -1.5105
 3759TIP3   OH232691   4.554   0.994   5.010 -0.2156  0.0371 -0.2846
 3759TIP3    H132692   4.618   0.994   5.081  1.4570  1.0717 -1.7114
 3759TIP3    H232693   4.573   0.915   4.960 -0.6547 -0.1118 -0.2210
 3760TIP3   OH232694   3.188   5.867   5.425  0.0386  0.0576 -0.1126
 3760TIP3    H132695   3.118   5.849   5.363  0.7629 -1.0763 -0.6237
 3760TIP3    H232696   3.230   5.782   5.439 -1.5886 -0.3326  3.7911
 3761TIP3   OH232697   3.285   5.748  11.067  0.2730 -0.3244  0.4634
 3761TIP3    H132698   3.269   5.804  10.991 -0.4667 -0.5980  0.4078
 3761TIP3    H232699   3.211   5.766  11.126  0.8116 -0.1509  1.1041
 3762TIP3   OH232700   5.229   3.780  13.452 -0.1125 -0.0260  0.0074
 3762TIP3    H132701   5.176   3.702  13.467 -0.1735  0.0384  0.1342
 3762TIP3    H232702   5.210   3.836  13.527  0.9048 -0.4205  0.5706
 3763TIP3   OH232703   3.043   2.280  15.894 -0.1821 -0.2595  0.0465
 3763TIP3    H132704   3.076   2.276  15.804  0.1893 -3.2978  0.2278
 3763TIP3    H232705   2.966   2.336  15.889  0.5412  0.6634 -1.8793
 3764TIP3   OH232706   0.484   2.138   1.625 -0.0741 -0.0537 -0.1810
 3764TIP3    H132707   0.519   2.077   1.690  1.1524 -0.0265 -0.7872
 3764TIP3    H232708   0.550   2.140   1.556 -0.6893  0.9968 -0.7650
 3765TIP3   OH232709   5.304   1.072   4.357  0.6865  0.2731  0.1110
 3765TIP3    H132710   5.254   1.152   4.372  0.6704  0.2859 -0.0153
 3765TIP3    H232711   5.267   1.034   4.277 -0.3678 -0.6688  0.9962
 3766TIP3   OH232712   0.236   6.557   4.078  0.5249 -0.0036 -0.0108
 3766TIP3    H132713   0.173   6.613   4.033 -0.3724 -0.5247  0.5731
 3766TIP3    H232714   0.231   6.473   4.032 -1.8343 -1.1837  2.1424
 3767TIP3   OH232715   4.466   1.498  12.619 -0.1651 -0.1167  0.3117
 3767TIP3    H132716   4.473   1.453  12.703 -0.5295  0.6152  0.7426
 3767TIP3    H232717   4.488   1.589  12.638  0.4516 -0.0820 -0.5283
 3768TIP3   OH232718   3.989   4.254  12.819  0.3615  0.5217 -0.4421
 3768TIP3    H132719   4.040   4.197  12.877  1.6916  0.8613 -1.2478
 3768TIP3    H232720   4.039   4.335  12.813 -2.1460  2.4342  1.7670
 3769TIP3   OH232721   0.217   3.463  14.999 -0.4492  0.1984 -0.1053
 3769TIP3    H132722   0.273   3.427  14.930  1.1089 -2.7885  2.4526
 3769TIP3    H232723   0.128   3.446  14.968  0.1117  0.5243 -2.0770
 3770TIP3   OH232724   3.706   6.463  15.111 -0.0140 -0.2667  0.2470
 3770TIP3    H132725   3.777   6.498  15.164 -0.2797 -0.6264  0.8499
 3770TIP3    H232726   3.652   6.413  15.173 -0.7842 -0.0045 -0.1930
 3771TIP3   OH232727   6.586   6.319   2.789 -0.1769  0.0156 -0.1626
 3771TIP3    H132728   6.516   6.331   2.854  0.4174 -0.0532  0.4992
 3771TIP3    H232729   6.612   6.408   2.766  1.4598  0.1009  1.7358
 3772TIP3   OH232730   5.951   1.247  12.219 -0.6890 -0.5006  0.0902
 3772TIP3    H132731   5.877   1.274  12.274 -2.8566  0.9975 -3.2174
 3772TIP3    H232732   5.997   1.328  12.199 -0.3826 -0.8858 -0.8259
 3773TIP3   OH232733   2.933   5.213   1.802  0.0957  0.1147  0.1633
 3773TIP3    H132734   2.941   5.117   1.807 -4.4529 -0.3868  2.0046
 3773TIP3    H232735   2.917   5.230   1.709  2.5428 -0.5799 -0.4734
 3774TIP3   OH232736   2.354   3.277  14.690  0.2552 -0.5057  0.2553
 3774TIP3    H132737   2.364   3.252  14.598 -0.6419 -1.5482  0.4099
 3774TIP3    H232738   2.435   3.322  14.712  0.4457 -0.1609 -1.0670
 3775TIP3   OH232739   2.228   0.144  12.296  0.1183  0.0806  0.5977
 3775TIP3    H132740   2.242   0.146  12.201  0.1337 -2.3285  0.4743
 3775TIP3    H232741   2.264   0.227  12.328 -0.6358  1.2941 -1.5700
 3776TIP3   OH232742   3.141   1.043  16.306 -0.0355  0.1427 -0.6658
 3776TIP3    H132743   3.157   0.973  16.242  0.6130  1.0220 -1.5142
 3776TIP3    H232744   3.050   1.033  16.331 -0.1703 -0.5214 -1.3822
 3777TIP3   OH232745   6.772   6.457   2.017 -0.0479  0.2127  0.1452
 3777TIP3    H132746   6.690   6.470   1.970  0.3249 -0.7815 -0.8068
 3777TIP3    H232747   6.762   6.373   2.062 -0.0194  0.6819  1.0618
 3778TIP3   OH232748   2.177   4.199   3.303  0.1472  0.0551 -0.3555
 3778TIP3    H132749   2.170   4.147   3.383 -0.9238  1.4000  0.4648
 3778TIP3    H232750   2.266   4.185   3.272  0.4301 -0.8388  0.8272
 3779TIP3   OH232751   3.792   0.035  15.838  0.0610 -0.0687  0.0662
 3779TIP3    H132752   3.820   0.109  15.893  0.8641 -1.3547  1.4890
 3779TIP3    H232753   3.757  -0.028  15.900 -0.7043 -0.8466 -1.1305
 3780TIP3   OH232754   4.823   5.877   4.568  0.1300  0.8246 -0.1217
 3780TIP3    H132755   4.789   5.960   4.600 -1.9379 -0.6230  1.7562
 3780TIP3    H232756   4.897   5.857   4.625 -0.4904  0.5558  0.6008
 3781TIP3   OH232757   6.217   3.970  15.643  0.5103  0.6089 -0.0429
 3781TIP3    H132758   6.220   4.010  15.556 -0.7195 -0.4474 -0.5960
 3781TIP3    H232759   6.150   4.019  15.690  0.2538  0.3528 -0.1357
 3782TIP3   OH232760   4.154   0.416  14.820 -0.0446 -0.5954  0.4179
 3782TIP3    H132761   4.170   0.497  14.869 -2.0987  0.3058 -0.3102
 3782TIP3    H232762   4.079   0.376  14.864  0.8282 -2.0573  0.6550
 3783TIP3   OH232763   2.791   2.502   2.733  0.0864 -0.0267 -0.4533
 3783TIP3    H132764   2.758   2.413   2.750  1.5854 -0.6026 -0.4186
 3783TIP3    H232765   2.820   2.500   2.642  0.6435  0.2521 -0.2852
 3784TIP3   OH232766   2.588   2.684  14.997 -0.5341 -0.1656  0.1823
 3784TIP3    H132767   2.498   2.700  15.025 -0.5176  1.2699 -0.4922
 3784TIP3    H232768   2.640   2.698  15.077 -0.9163 -1.4481  0.6828
 3785TIP3   OH232769   3.316   5.045   1.467  0.3801  0.1111 -0.4394
 3785TIP3    H132770   3.286   5.011   1.383  1.0165  0.3621 -0.7800
 3785TIP3    H232771   3.392   4.989   1.489  0.8025  0.6516 -0.5035
 3786TIP3   OH232772   6.768   1.574   2.272  0.1229 -0.1429  0.3686
 3786TIP3    H132773   6.805   1.503   2.324  0.2996  1.2337  2.2283
 3786TIP3    H232774   6.674   1.557   2.270  0.2001 -0.5880  0.5377
 3787TIP3   OH232775   4.470   2.301  15.014  0.4823 -0.2643 -0.3364
 3787TIP3    H132776   4.530   2.275  14.944 -0.1321  0.5370 -1.1963
 3787TIP3    H232777   4.393   2.245  15.000  1.2287 -1.7362  1.1486
 3788TIP3   OH232778   2.073   2.384   2.564  0.1296 -0.2006  1.0503
 3788TIP3    H132779   2.075   2.476   2.536  1.3059 -0.8565 -1.2128
 3788TIP3    H232780   1.980   2.364   2.573 -0.1706  0.9537  0.7396
 3789TIP3   OH232781   2.670   4.924  17.032 -0.0035  0.6128 -0.3063
 3789TIP3    H132782   2.695   4.909  16.940 -1.4062 -1.0027 -0.4809
 3789TIP3    H232783   2.659   4.836  17.067  0.3930  1.2206  1.4088
 3790TIP3   OH232784   1.472   5.669  13.561 -0.2926 -0.4028  0.1184
 3790TIP3    H132785   1.400   5.721  13.525  1.5518  2.1729 -0.1646
 3790TIP3    H232786   1.542   5.733  13.577  1.2735 -2.4570  2.1912
 3791TIP3   OH232787   1.300   1.474  15.433  0.0703 -0.3121  0.2980
 3791TIP3    H132788   1.390   1.505  15.445 -0.2067  0.9398 -0.7069
 3791TIP3    H232789   1.292   1.457  15.339 -0.7329 -0.4129  0.3738
 3792TIP3   OH232790   1.147   3.063  12.649  0.5110  0.3864 -0.2443
 3792TIP3    H132791   1.239   3.046  12.628  0.3634  0.6915 -1.1950
 3792TIP3    H232792   1.098   3.006  12.590  0.0806 -1.1054  1.4744
 3793TIP3   OH232793   0.638   1.405   1.203 -0.7019 -0.3667  0.1177
 3793TIP3    H132794   0.648   1.361   1.287  1.4214 -1.5723 -0.6932
 3793TIP3    H232795   0.725   1.400   1.162 -1.2655  1.5523 -1.5111
 3794TIP3   OH232796   5.194   5.577   5.634  0.3814 -0.1728 -0.0087
 3794TIP3    H132797   5.105   5.541   5.636  0.8845 -1.4375  0.8065
 3794TIP3    H232798   5.221   5.579   5.725  0.9502  0.8637 -0.1896
 3795TIP3   OH232799   1.076   2.164  14.128 -0.4789  0.5320  0.0535
 3795TIP3    H132800   1.004   2.128  14.076  0.1494  0.8739 -1.0823
 3795TIP3    H232801   1.099   2.094  14.189 -1.9537  0.5169  0.6450
 3796TIP3   OH232802   4.639   1.499   4.002  0.2340  0.3275  0.4683
 3796TIP3    H132803   4.561   1.538   4.040 -0.8145 -1.7029  0.5411
 3796TIP3    H232804   4.629   1.514   3.908 -0.2557  0.1206  0.4799
 3797TIP3   OH232805   3.965   4.843   1.392  0.0326  0.3102 -0.5779
 3797TIP3    H132806   3.909   4.893   1.333  0.2338  1.1473 -0.0695
 3797TIP3    H232807   4.026   4.797   1.334  1.1929  2.2750 -1.0173
 3798TIP3   OH232808   4.384   1.828  11.816  0.0765 -0.0579 -0.7472
 3798TIP3    H132809   4.475   1.856  11.826  0.3828 -0.5288 -2.0343
 3798TIP3    H232810   4.338   1.906  11.786  0.1013  0.1231 -0.3145
 3799TIP3   OH232811   5.617   2.939  16.206  0.1498 -0.5226  0.1195
 3799TIP3    H132812   5.624   2.941  16.111 -2.8453 -1.0064 -0.1908
 3799TIP3    H232813   5.688   2.997  16.236  0.4931  0.5123 -2.4284
 3800TIP3   OH232814   6.456   3.834  16.014  0.5476  0.3603 -0.9206
 3800TIP3    H132815   6.495   3.748  16.032 -0.3790  0.1982  0.4312
 3800TIP3    H232816   6.412   3.823  15.930 -0.8844 -0.9931 -0.0558
 3801TIP3   OH232817   3.559   1.079  16.650  0.4685  0.4848  0.3103
 3801TIP3    H132818   3.479   1.067  16.700  1.6384 -3.8638  1.6539
 3801TIP3    H232819   3.538   1.047  16.563  0.4855  0.1561  0.4237
 3802TIP3   OH232820   3.852   2.005   1.558  0.2265 -0.0642 -0.1718
 3802TIP3    H132821   3.843   2.096   1.587  0.4285  1.0378 -3.2494
 3802TIP3    H232822   3.936   1.977   1.595 -1.1908 -0.1932  3.4046
 3803TIP3   OH232823   1.792   6.057   0.444 -0.3348 -0.4809  0.3015
 3803TIP3    H132824   1.745   5.998   0.385  1.0553 -1.5798  0.2582
 3803TIP3    H232825   1.723   6.113   0.480 -1.3025 -0.2143 -1.8242
 3804TIP3   OH232826   2.691   6.687   3.170  0.2067  0.0381  0.4990
 3804TIP3    H132827   2.774   6.696   3.123  0.1416  0.8105  0.5295
 3804TIP3    H232828   2.632   6.647   3.107  0.9525 -1.8046  0.8814
 3805TIP3   OH232829   3.432   2.579  15.542 -0.1474 -0.1841 -0.2694
 3805TIP3    H132830   3.381   2.498  15.543  0.1506 -0.3736  1.2317
 3805TIP3    H232831   3.367   2.648  15.561  0.0617 -0.3991  1.3793
 3806TIP3   OH232832   3.873   3.994   5.842 -0.0191 -0.1285  0.1960
 3806TIP3    H132833   3.899   3.913   5.886 -0.2438  0.0574  0.6734
 3806TIP3    H232834   3.917   3.989   5.756  3.0532  0.9408  1.5604
 3807TIP3   OH232835   5.116   3.578   2.606 -0.7542 -0.4186 -0.6925
 3807TIP3    H132836   5.083   3.501   2.652 -0.3347 -0.5722 -0.6467
 3807TIP3    H232837   5.051   3.646   2.624 -0.8592 -0.6202 -0.3032
 3808TIP3   OH232838   2.874   0.512  16.569 -0.2152  0.5605 -0.2388
 3808TIP3    H132839   2.847   0.501  16.478  0.8329  0.1682 -0.5120
 3808TIP3    H232840   2.958   0.558  16.564 -0.6709  1.5436  0.5846
 3809TIP3   OH232841   5.763   5.176  13.025 -0.4847  0.5284  0.5893
 3809TIP3    H132842   5.673   5.208  13.034  0.1784  2.1436  2.2366
 3809TIP3    H232843   5.816   5.243  13.068  1.4429 -0.7837  0.3735
 3810TIP3   OH232844   4.213   1.928   5.816 -0.1981  0.0363  0.5862
 3810TIP3    H132845   4.241   1.860   5.879 -0.3698 -1.2413 -0.6650
 3810TIP3    H232846   4.270   2.002   5.835  0.0413 -0.4674  1.9716
 3811TIP3   OH232847   5.909   3.207   2.874 -0.0010 -0.1065 -0.6668
 3811TIP3    H132848   5.941   3.250   2.953  1.5277  0.0079 -1.3080
 3811TIP3    H232849   5.975   3.226   2.807 -1.2791 -0.1434 -2.0066
 3812TIP3   OH232850   0.269   0.218   1.901  0.7307 -0.3414  0.3473
 3812TIP3    H132851   0.328   0.270   1.846  0.2114  0.4963  0.5654
 3812TIP3    H232852   0.317   0.137   1.918  1.5273  0.0383 -0.0527
 3813TIP3   OH232853   0.538   6.292   5.028  0.5662 -0.3136 -0.4527
 3813TIP3    H132854   0.508   6.240   4.953 -1.7255  1.3542 -0.7949
 3813TIP3    H232855   0.525   6.234   5.103 -3.1803  0.0098 -0.6550
 3814TIP3   OH232856   0.425   0.273   5.309  0.5276 -0.1430 -0.0574
 3814TIP3    H132857   0.456   0.333   5.241  0.8728 -1.1666 -0.8405
 3814TIP3    H232858   0.503   0.256   5.362  0.1870  0.8956  0.8050
 3815TIP3   OH232859   6.525   0.828  14.996 -0.0433  0.3678  0.8019
 3815TIP3    H132860   6.482   0.749  15.029 -1.6329  0.7590 -0.2249
 3815TIP3    H232861   6.584   0.854  15.067 -0.4512 -0.9911  1.6874
 3816TIP3   OH232862   5.073   3.638  17.034 -0.4525 -0.5968 -0.3275
 3816TIP3    H132863   4.998   3.688  17.066 -0.3062 -0.6648  0.1302
 3816TIP3    H232864   5.049   3.546  17.049 -0.9955 -0.7116 -1.7630
 3817TIP3   OH232865   0.930   2.655  13.747  0.3526 -0.1190  0.3352
 3817TIP3    H132866   0.858   2.716  13.735  0.7376  0.9986  3.0492
 3817TIP3    H232867   0.900   2.596  13.816  0.9700 -1.4355 -0.4876
 3818TIP3   OH232868   5.475   5.505  14.283  0.3748 -0.6719 -0.5373
 3818TIP3    H132869   5.500   5.550  14.364 -1.3085 -0.5372 -0.0677
 3818TIP3    H232870   5.488   5.570  14.214  1.5259 -0.6916 -0.3619
 3819TIP3   OH232871   4.592   3.994  12.842 -0.1686 -0.2428  0.6255
 3819TIP3    H132872   4.621   4.025  12.756  2.6897 -0.0610  1.5505
 3819TIP3    H232873   4.594   3.899  12.835 -0.9848 -0.2424  0.2155
 3820TIP3   OH232874   1.222   5.792   5.354 -0.3753  0.0807  0.6628
 3820TIP3    H132875   1.207   5.781   5.260  0.4040  1.1696  0.4061
 3820TIP3    H232876   1.175   5.718   5.394 -2.4693  0.7330 -0.4204
 3821TIP3   OH232877   3.202   3.006  17.219  0.3403 -0.2409  0.3934
 3821TIP3    H132878   3.207   2.973  17.309 -0.5789 -2.3878 -0.2619
 3821TIP3    H232879   3.276   2.965  17.175  0.4576  0.3494  0.0466
 3822TIP3   OH232880   4.621   3.704   1.545 -0.3526 -0.2844  0.2213
 3822TIP3    H132881   4.671   3.706   1.463  1.2951  0.9687  1.1976
 3822TIP3    H232882   4.677   3.657   1.606 -0.4914  0.8513  1.2537
 3823TIP3   OH232883   4.927   0.492   2.638 -0.4390  0.3817  0.3408
 3823TIP3    H132884   4.848   0.475   2.586  0.2340  1.1028 -0.9891
 3823TIP3    H232885   4.896   0.499   2.728 -1.7654 -0.1858 -0.0462
 3824TIP3   OH232886   6.345   4.826   6.390 -0.2173  0.5508 -0.4827
 3824TIP3    H132887   6.351   4.730   6.391 -1.2979  0.4821  0.4883
 3824TIP3    H232888   6.336   4.850   6.482  0.2545  1.6151 -0.7044
 3825TIP3   OH232889   0.474   5.668   0.288 -0.2382  0.6648 -0.0380
 3825TIP3    H132890   0.397   5.640   0.238 -0.6207  1.1765  0.2597
 3825TIP3    H232891   0.478   5.609   0.363  1.2451 -1.1525 -1.4342
 3826TIP3   OH232892   3.824   4.202  13.176 -0.0049  0.0485  0.4559
 3826TIP3    H132893   3.778   4.126  13.210 -0.2064  0.1142  0.3308
 3826TIP3    H232894   3.916   4.176  13.175  0.0230  0.1131  1.2134
 3827TIP3   OH232895   2.792   3.744  11.263  0.3689 -0.1382 -0.1526
 3827TIP3    H132896   2.827   3.832  11.279 -0.1329  0.2314 -1.0294
 3827TIP3    H232897   2.859   3.685  11.299  0.2828  0.5983  1.2764
 3828TIP3   OH232898   5.865   0.944   3.381 -0.1399 -0.0098 -0.1417
 3828TIP3    H132899   5.820   1.011   3.433  0.8651 -0.5274  1.4887
 3828TIP3    H232900   5.836   0.861   3.419  1.8889 -0.3598  0.7557
 3829TIP3   OH232901   0.924   2.314   0.166  0.3356 -0.0854  0.0143
 3829TIP3    H132902   0.954   2.327   0.256 -0.6353  1.8261  0.1237
 3829TIP3    H232903   0.850   2.253   0.175  0.5843 -0.3309  0.4437
 3830TIP3   OH232904   6.747   1.239   6.043  0.1921 -0.1135 -0.0659
 3830TIP3    H132905   6.710   1.167   6.095  1.9792 -1.2559 -0.2942
 3830TIP3    H232906   6.833   1.255   6.083  0.5458  0.7082 -1.1216
 3831TIP3   OH232907   0.183   3.931   0.359  0.3354  0.4448 -0.3448
 3831TIP3    H132908   0.239   3.858   0.388  1.9184  0.7698 -2.3896
 3831TIP3    H232909   0.220   4.008   0.403 -0.3715  0.2695  0.5922
 3832TIP3   OH232910   6.779   4.074  12.015 -0.4809 -0.1824 -0.0142
 3832TIP3    H132911   6.687   4.059  11.994 -0.5966 -0.2109  0.4923
 3832TIP3    H232912   6.802   4.004  12.076 -0.0345 -0.3586 -0.3753
 3833TIP3   OH232913   4.970   2.692  13.713  0.2261  0.6543 -0.1609
 3833TIP3    H132914   5.025   2.638  13.770  1.3137  1.4179 -0.4595
 3833TIP3    H232915   4.882   2.680  13.748  0.7448  0.3973  1.1350
 3834TIP3   OH232916   0.714   3.324   0.423  0.5355 -0.3347 -0.3829
 3834TIP3    H132917   0.689   3.333   0.515  0.5966 -0.3102 -0.3689
 3834TIP3    H232918   0.773   3.249   0.420  1.7639  0.5910 -0.1569
 3835TIP3   OH232919   4.405   2.850   5.539  0.2569  0.2604 -0.1185
 3835TIP3    H132920   4.394   2.758   5.563  0.8768  0.1484 -0.2595
 3835TIP3    H232921   4.335   2.896   5.587  1.2119 -0.0035  1.5874
 3836TIP3   OH232922   1.119   0.426   3.695 -0.1887 -0.5170  0.3358
 3836TIP3    H132923   1.201   0.475   3.700 -0.7785  0.3948  1.6559
 3836TIP3    H232924   1.105   0.412   3.601 -0.4668  2.7201 -0.2406
 3837TIP3   OH232925   5.150   1.543   2.887 -0.1540  0.3782 -0.0740
 3837TIP3    H132926   5.166   1.625   2.840  1.2877  0.5976  0.7293
 3837TIP3    H232927   5.226   1.489   2.867 -0.4527 -0.2517  0.4647
 3838TIP3   OH232928   2.209   4.654  15.203 -0.4429  0.5964 -0.2476
 3838TIP3    H132929   2.166   4.688  15.125 -0.5096 -0.2410 -0.5815
 3838TIP3    H232930   2.280   4.599  15.170 -0.0643  0.7527  0.2896
 3839TIP3   OH232931   2.248   2.886  11.590 -0.0758 -0.3364 -0.0949
 3839TIP3    H132932   2.251   2.981  11.582 -0.6886 -0.4302 -1.6764
 3839TIP3    H232933   2.174   2.869  11.648  0.9197  0.1683  1.3985
 3840TIP3   OH232934   5.861   2.682  13.610 -0.2399  0.2065 -0.0921
 3840TIP3    H132935   5.786   2.735  13.638  0.6706  1.5333 -0.0833
 3840TIP3    H232936   5.906   2.736  13.546  1.2466 -0.1757  0.5839
 3841TIP3   OH232937   3.127   4.016  11.830 -0.2028 -0.4877  0.1176
 3841TIP3    H132938   3.178   4.071  11.769 -1.8153  0.4901 -0.3963
 3841TIP3    H232939   3.127   4.065  11.912 -0.4462 -0.4088  0.0702
 3842TIP3   OH232940   5.486   4.864  12.537  0.0394  0.4460 -0.7952
 3842TIP3    H132941   5.436   4.878  12.617 -0.8265  1.6029 -1.5068
 3842TIP3    H232942   5.424   4.826  12.475  0.6992 -0.4488 -0.9351
 3843TIP3   OH232943   4.536   4.433   1.525 -0.1415 -0.2512  0.2659
 3843TIP3    H132944   4.589   4.420   1.604 -1.9007 -0.7719  1.4277
 3843TIP3    H232945   4.553   4.355   1.472  0.8998  0.0022  0.2010
 3844TIP3   OH232946   0.477   2.507   5.423  0.1643 -0.1565  0.2509
 3844TIP3    H132947   0.430   2.580   5.464  0.3466 -0.2517  0.6362
 3844TIP3    H232948   0.560   2.544   5.395 -0.6894  0.3753 -1.7540
 3845TIP3   OH232949   3.359   4.471   1.416 -0.3949  0.0939 -0.3324
 3845TIP3    H132950   3.334   4.538   1.479 -3.0967  0.6002 -1.7996
 3845TIP3    H232951   3.358   4.517   1.331  0.1640 -1.2446 -1.0980
 3846TIP3   OH232952   4.085   1.484   0.060 -0.0157 -0.4970  0.3210
 3846TIP3    H132953   4.018   1.492   0.127 -1.5419 -1.3398 -1.0319
 3846TIP3    H232954   4.147   1.555   0.078 -0.1395 -0.9589  2.8246
 3847TIP3   OH232955   0.725   6.101   0.109 -0.0376 -0.1799  0.0963
 3847TIP3    H132956   0.789   6.066   0.047  1.5772  1.8575  0.4877
 3847TIP3    H232957   0.685   6.024   0.149  2.0195 -1.5655 -0.3490
 3848TIP3   OH232958   0.889   3.450   2.232  0.4541 -0.1433 -0.1532
 3848TIP3    H132959   0.919   3.523   2.178 -0.1862  1.3125  1.3443
 3848TIP3    H232960   0.928   3.466   2.318 -1.2054 -0.4964  0.7072
 3849TIP3   OH232961   3.438   4.174   2.439 -0.4223  0.5100 -0.0440
 3849TIP3    H132962   3.519   4.160   2.390 -0.6728 -1.4355 -0.0067
 3849TIP3    H232963   3.467   4.206   2.525  0.1801  1.4706 -0.5959
 3850TIP3   OH232964   5.334   4.651  14.920  0.1317  0.2143  0.2909
 3850TIP3    H132965   5.317   4.609  15.004  0.3496 -0.2629  0.1016
 3850TIP3    H232966   5.314   4.583  14.855  0.7628  0.3067 -0.0077
 3851TIP3   OH232967   2.425   6.469  11.804 -0.0327 -0.4888  0.8156
 3851TIP3    H132968   2.377   6.405  11.751 -1.4314  0.6193  0.6622
 3851TIP3    H232969   2.489   6.507  11.744  0.0154 -0.9254  0.5880
 3852TIP3   OH232970   6.724   0.202   3.952  0.2935 -0.4680  0.1083
 3852TIP3    H132971   6.734   0.292   3.983  0.1425 -0.8640  1.3633
 3852TIP3    H232972   6.813   0.166   3.955  0.3635 -0.3477 -0.4503
 3853TIP3   OH232973   1.743   4.071  11.488 -0.4976 -0.6145  0.1630
 3853TIP3    H132974   1.815   4.016  11.518  1.3073  0.4702 -1.8542
 3853TIP3    H232975   1.670   4.011  11.475  0.0813 -1.7988  2.0518
 3854TIP3   OH232976   2.765   6.212   4.539 -0.9408  0.1469  0.5383
 3854TIP3    H132977   2.740   6.217   4.631  1.0645 -0.4107  1.1675
 3854TIP3    H232978   2.689   6.173   4.496 -1.2477 -1.3507  2.2897
 3855TIP3   OH232979   3.101   6.410  12.777  0.5701 -0.1005 -0.3708
 3855TIP3    H132980   3.024   6.466  12.793 -0.1415 -1.8108  2.9928
 3855TIP3    H232981   3.153   6.459  12.713 -1.0104  3.3730  0.7682
 3856TIP3   OH232982   4.954   2.116  15.644 -0.3044 -0.1362 -0.2745
 3856TIP3    H132983   4.872   2.109  15.595 -0.6568 -0.5605  0.3592
 3856TIP3    H232984   5.006   2.180  15.595 -1.3301  0.7529 -0.2361
 3857TIP3   OH232985   4.946   0.602  14.076 -0.3073  0.0344 -0.4919
 3857TIP3    H132986   4.928   0.690  14.042  0.7689  0.3142 -0.3651
 3857TIP3    H232987   4.907   0.543  14.011 -0.6834  0.5953 -0.7844
 3858TIP3   OH232988   6.004   3.247   4.923  0.1942 -0.0942  0.1325
 3858TIP3    H132989   5.981   3.168   4.971 -0.7112  0.6169  0.9026
 3858TIP3    H232990   6.086   3.276   4.963  1.0735 -1.1471 -0.8111
 3859TIP3   OH232991   5.931   3.281   5.987  0.3869 -0.9116 -0.1986
 3859TIP3    H132992   5.850   3.331   5.977  0.4279 -0.9066 -0.5028
 3859TIP3    H232993   5.968   3.312   6.070  0.4971 -0.3116 -0.4646
 3860TIP3   OH232994   2.730   6.559  16.978  0.0392 -0.4636 -0.5187
 3860TIP3    H132995   2.727   6.471  16.941  0.6782 -1.0086  0.6520
 3860TIP3    H232996   2.818   6.590  16.958 -0.0675 -0.2282 -0.6218
 3861TIP3   OH232997   0.410   0.734  15.420 -0.1671  0.3287  0.1389
 3861TIP3    H132998   0.331   0.787  15.407  0.0703  0.5910 -0.2664
 3861TIP3    H232999   0.377   0.647  15.443 -0.5508  1.0809  2.7037
 3862TIP3   OH233000   3.064   5.551  12.222  0.4718  0.3003 -0.8527
 3862TIP3    H133001   3.080   5.514  12.308 -1.3653  3.4659  1.0452
 3862TIP3    H233002   2.969   5.549  12.212  0.6155  0.3918 -2.6198
 3863TIP3   OH233003   0.006   4.167  11.644 -0.0450 -0.1913 -0.4674
 3863TIP3    H133004   0.045   4.097  11.696 -2.8306 -1.1413  0.5415
 3863TIP3    H233005   0.024   4.142  11.553  1.0253 -0.9411 -0.0701
 3864TIP3   OH233006   1.913   5.057  11.307  0.2945 -0.0743  0.3469
 3864TIP3    H133007   1.900   5.145  11.273  1.2815  0.2983  0.9013
 3864TIP3    H233008   1.985   5.021  11.256  0.2459 -0.3654  0.4780
 3865TIP3   OH233009   3.579   4.894   4.553  0.0457 -0.1194  0.9842
 3865TIP3    H133010   3.636   4.840   4.497 -0.9671 -0.2872  0.0863
 3865TIP3    H233011   3.624   4.895   4.637  1.4561 -0.1249  0.2699
 3866TIP3   OH233012   1.097   4.765  16.506 -0.2804 -0.2168  0.2381
 3866TIP3    H133013   1.146   4.752  16.587  0.4868 -0.8173 -0.3103
 3866TIP3    H233014   1.009   4.790  16.535 -0.0510 -0.5484  1.2503
 3867TIP3   OH233015   3.654   3.760   5.294  0.0859 -0.0536  0.5354
 3867TIP3    H133016   3.614   3.693   5.238 -1.2322  0.3286  0.9867
 3867TIP3    H233017   3.580   3.804   5.336  0.9245  1.8297  0.1148
 3868TIP3   OH233018   2.188   3.531   5.012 -0.0421 -0.2657  0.3005
 3868TIP3    H133019   2.120   3.512   4.948 -0.2295 -0.1835  0.4753
 3868TIP3    H233020   2.247   3.456   5.008 -0.6817 -0.8011  0.8615
 3869TIP3   OH233021   6.132   6.591   5.666  0.0591  0.1716  0.1837
 3869TIP3    H133022   6.211   6.577   5.719 -0.5244 -0.5438  0.8946
 3869TIP3    H233023   6.067   6.623   5.728 -0.2400  0.6756 -0.3832
 3870TIP3   OH233024   1.552   0.985   4.378 -0.0149 -0.0580 -0.3415
 3870TIP3    H133025   1.644   1.011   4.378  0.0307 -0.2121 -0.1529
 3870TIP3    H233026   1.503   1.067   4.378  0.1242  0.0243  0.0071
 3871TIP3   OH233027   4.953   3.725  13.030 -0.1282 -0.7936  0.3456
 3871TIP3    H133028   5.045   3.717  13.053 -0.5034  2.6160  4.0830
 3871TIP3    H233029   4.953   3.776  12.949  1.2111 -1.7535 -0.3011
 3872TIP3   OH233030   4.990   4.750   5.116  0.2046 -0.0222 -0.2102
 3872TIP3    H133031   4.984   4.744   5.021  0.4478  0.6350 -0.2703
 3872TIP3    H233032   5.068   4.802   5.133 -0.3903  0.7438  0.3120
 3873TIP3   OH233033   1.863   0.362   0.670  0.5076 -0.7653  0.0450
 3873TIP3    H133034   1.800   0.292   0.690  0.8015 -0.7746  0.9657
 3873TIP3    H233035   1.816   0.419   0.609 -0.3080 -0.9136  0.5191
 3874TIP3   OH233036   2.512   5.300  12.196 -0.1623  0.7613  0.0875
 3874TIP3    H133037   2.485   5.269  12.110  0.6101  0.2643  0.0191
 3874TIP3    H233038   2.594   5.255  12.214  0.5086  2.0474  0.4024
 3875TIP3   OH233039   2.899   0.859  16.667  0.0027  0.2303 -0.0420
 3875TIP3    H133040   2.834   0.813  16.615 -0.4025  1.8957 -1.1110
 3875TIP3    H233041   2.850   0.894  16.742 -0.1982  0.8323 -0.4436
 3876TIP3   OH233042   5.844   3.489  16.278 -0.0068  0.1803 -0.5406
 3876TIP3    H133043   5.841   3.582  16.301 -1.3793 -0.3091  1.4697
 3876TIP3    H233044   5.921   3.456  16.324  0.7888  0.3694 -1.6735
 3877TIP3   OH233045   1.263   4.862   2.775  0.3507 -0.4733 -0.3146
 3877TIP3    H133046   1.204   4.932   2.801 -0.9251 -1.6942  0.2380
 3877TIP3    H233047   1.351   4.898   2.789 -0.1345  2.0459 -2.8883
 3878TIP3   OH233048   6.419   4.717  13.226 -0.7197 -0.1069 -0.2268
 3878TIP3    H133049   6.439   4.657  13.154 -1.2162 -1.2746  0.5749
 3878TIP3    H233050   6.324   4.725  13.226 -0.7219 -0.0872  0.2689
 3879TIP3   OH233051   3.163   5.225  11.886  0.3527  0.1730  0.4031
 3879TIP3    H133052   3.172   5.282  11.962 -1.4535  0.8543  0.1698
 3879TIP3    H233053   3.159   5.284  11.811  2.0762 -0.4930 -0.2628
 3880TIP3   OH233054   0.285   2.090   2.604  0.2661 -0.0064  0.3769
 3880TIP3    H133055   0.364   2.140   2.582 -0.1655  0.0735 -1.0995
 3880TIP3    H233056   0.244   2.141   2.674  2.0996 -0.6889  2.0771
 3881TIP3   OH233057   2.727   0.212   0.364 -0.3723  0.1596 -0.5609
 3881TIP3    H133058   2.697   0.302   0.376  1.0494  0.3815  2.3585
 3881TIP3    H233059   2.780   0.214   0.284  0.3985  2.1774 -0.0541
 3882TIP3   OH233060   4.637   1.516  13.077 -0.5618  0.0381  0.2886
 3882TIP3    H133061   4.724   1.550  13.099 -0.5703  1.1293 -1.1595
 3882TIP3    H233062   4.634   1.520  12.981 -1.7638 -1.1410  0.2551
 3883TIP3   OH233063   3.276   6.621  11.330 -0.1025 -0.1129 -0.2610
 3883TIP3    H133064   3.304   6.704  11.370  0.0221 -0.2014 -0.1667
 3883TIP3    H233065   3.190   6.641  11.293  0.2621  0.2733 -0.9120
 3884TIP3   OH233066   6.447   6.271  10.551 -0.5671  0.0169 -0.6231
 3884TIP3    H133067   6.402   6.319  10.481  1.2993  1.8026 -0.6872
 3884TIP3    H233068   6.515   6.331  10.582 -0.1199 -1.4454  1.4663
 3885TIP3   OH233069   6.333   4.043   3.367 -0.1809 -0.0991  0.4326
 3885TIP3    H133070   6.242   4.072   3.353  0.5044  1.5589 -0.9733
 3885TIP3    H233071   6.335   3.954   3.334 -1.1309  0.1231 -0.2858
 3886TIP3   OH233072   2.945   1.779  10.214 -0.0979  0.1381 -0.2786
 3886TIP3    H133073   3.034   1.775  10.249 -0.2066 -1.5733 -0.1303
 3886TIP3    H233074   2.910   1.691  10.226 -0.8190 -0.0187 -2.9124
 3887TIP3   OH233075   2.129   1.609   3.033 -0.0328  0.2830 -0.6425
 3887TIP3    H133076   2.111   1.563   3.115 -0.0860 -1.1452 -1.4262
 3887TIP3    H233077   2.156   1.697   3.060 -0.8952  0.1164  0.8617
 3888TIP3   OH233078   5.856   6.057  16.886  0.0995 -0.2085  0.2619
 3888TIP3    H133079   5.868   5.962  16.891  1.1486 -0.2047 -1.3210
 3888TIP3    H233080   5.865   6.087  16.976  0.5980 -1.5258  0.6777
 3889TIP3   OH233081   2.965   1.740  13.699  0.4224  0.0289  0.3491
 3889TIP3    H133082   2.917   1.696  13.629  2.8071 -3.9727  0.9232
 3889TIP3    H233083   2.922   1.711  13.780  0.0991  1.4789  0.7431
 3890TIP3   OH233084   4.618   5.156  11.036 -1.2317  0.2703  0.4842
 3890TIP3    H133085   4.635   5.147  10.942 -1.2888  0.4024  0.4617
 3890TIP3    H233086   4.606   5.250  11.050  0.3219  0.4515  0.8725
 3891TIP3   OH233087   1.584   0.757  16.737  0.0699 -0.3961  0.2653
 3891TIP3    H133088   1.509   0.726  16.787 -0.3333 -2.0411 -1.2330
 3891TIP3    H233089   1.602   0.844  16.771  0.2270 -1.6162  3.6431
 3892TIP3   OH233090   3.306   4.079   6.306 -0.0689  0.2417  0.2363
 3892TIP3    H133091   3.240   4.058   6.240 -1.0493  4.2391 -0.3257
 3892TIP3    H233092   3.376   4.123   6.257  1.5823 -1.0989  1.2740
 3893TIP3   OH233093   3.183   0.467  12.558 -0.4792 -0.5081 -0.6461
 3893TIP3    H133094   3.216   0.383  12.525  1.8236  0.2982 -0.5952
 3893TIP3    H233095   3.219   0.474  12.646 -0.3207  0.6990 -0.7914
 3894TIP3   OH233096   6.734   6.603   3.212 -0.1444 -0.0812 -0.0756
 3894TIP3    H133097   6.689   6.625   3.293  1.1571  0.8597  0.4183
 3894TIP3    H233098   6.663   6.578   3.151 -1.0898 -1.5454  1.5232
 3895TIP3   OH233099   6.740   6.575  16.825  0.6447 -0.1512  0.0755
 3895TIP3    H133100   6.820   6.569  16.878  1.2535 -0.1244 -0.8142
 3895TIP3    H233101   6.727   6.668  16.812  1.2310 -0.1844 -0.8729
 3896TIP3   OH233102   4.309   1.811  16.325 -0.6625 -0.0952  0.2458
 3896TIP3    H133103   4.399   1.797  16.353 -0.7141  0.8920  0.9349
 3896TIP3    H233104   4.256   1.768  16.392 -0.7164 -0.3570  0.0367
 3897TIP3   OH233105   4.932   4.168  11.226  0.5489  0.1487  0.3433
 3897TIP3    H133106   4.922   4.198  11.317 -2.6902 -0.1169  0.2180
 3897TIP3    H233107   4.855   4.204  11.181  1.4496 -0.7211 -2.0162
 3898TIP3   OH233108   1.181   1.185  13.880 -0.5717  0.3841 -0.2551
 3898TIP3    H133109   1.089   1.186  13.904 -0.7420 -1.2855 -0.6939
 3898TIP3    H233110   1.226   1.153  13.958 -0.6084 -0.6930 -0.6600
 3899TIP3   OH233111   1.091   0.575  13.808  0.2569  0.9911  0.2104
 3899TIP3    H133112   1.185   0.565  13.789  1.1263 -0.2594  4.3084
 3899TIP3    H233113   1.083   0.666  13.838  0.4226  0.7133  1.0979
 3900TIP3   OH233114   6.489   1.289  12.682  0.2397 -0.3328  0.3193
 3900TIP3    H133115   6.495   1.200  12.715  4.1740 -1.4044 -2.5406
 3900TIP3    H233116   6.539   1.342  12.744 -0.2450 -0.5244  0.8742
 3901TIP3   OH233117   5.633   4.666  14.700  0.3138  0.6063 -0.4102
 3901TIP3    H133118   5.655   4.736  14.639  1.8471 -1.7361 -2.7923
 3901TIP3    H233119   5.688   4.681  14.776  1.0487  1.6598 -1.1346
 3902TIP3   OH233120   1.864   4.703  14.083  0.3164  0.2523  0.2419
 3902TIP3    H133121   1.857   4.679  13.990  0.1456  0.2134  0.2649
 3902TIP3    H233122   1.958   4.698  14.102  0.2098 -1.1937  0.4622
 3903TIP3   OH233123   0.704   4.996  11.227  0.1392  0.1149 -0.4448
 3903TIP3    H133124   0.716   4.917  11.174 -0.4580 -0.8375  0.7828
 3903TIP3    H233125   0.768   4.988  11.297 -0.1880  0.5214 -0.0898
 3904TIP3   OH233126   2.330   3.442  16.334  0.3889 -0.0816 -0.3869
 3904TIP3    H133127   2.325   3.536  16.351 -0.8977 -0.4978  1.8955
 3904TIP3    H233128   2.290   3.431  16.248  0.6830  1.4538 -0.7484
 3905TIP3   OH233129   0.737   1.593  16.408 -0.1305  0.7608  0.3233
 3905TIP3    H133130   0.734   1.603  16.504 -1.2006  2.1831  0.1695
 3905TIP3    H233131   0.826   1.562  16.390 -0.7197 -2.3295  1.9854
 3906TIP3   OH233132   2.216   0.824  11.831 -0.5171 -0.6484 -0.4986
 3906TIP3    H133133   2.134   0.775  11.832 -1.2323  0.5270  1.2944
 3906TIP3    H233134   2.191   0.914  11.848  1.1916 -0.3461  0.5979
 3907TIP3   OH233135   0.214   3.241   5.006  0.2681  0.3027  0.2029
 3907TIP3    H133136   0.137   3.275   5.051 -0.1896 -0.5660  0.0918
 3907TIP3    H233137   0.189   3.235   4.915  0.8800  1.1418 -0.0406
 3908TIP3   OH233138   0.669   3.869   5.028  0.2932 -0.3708  0.0988
 3908TIP3    H133139   0.601   3.913   5.080  1.0369 -0.2610  1.0119
 3908TIP3    H233140   0.626   3.792   4.991 -0.6226  0.3008 -0.2704
 3909TIP3   OH233141   1.648   5.329   4.110 -0.2552  0.1030 -0.7099
 3909TIP3    H133142   1.632   5.419   4.082  0.7529 -0.0080 -1.7219
 3909TIP3    H233143   1.743   5.319   4.104 -0.4017 -1.1940 -1.1882
 3910TIP3   OH233144   5.466   5.423   6.279  0.6356 -0.0934 -0.3407
 3910TIP3    H133145   5.509   5.476   6.345 -3.0563  0.9183  1.5233
 3910TIP3    H233146   5.491   5.462   6.195 -0.7439  3.8401  0.8749
 3911TIP3   OH233147   0.429   4.710  13.901  0.1363 -0.4237 -0.2577
 3911TIP3    H133148   0.507   4.678  13.947 -0.3702 -1.7288 -0.2515
 3911TIP3    H233149   0.444   4.686  13.809  1.1215  2.1246 -0.8317
 3912TIP3   OH233150   0.393   5.819  13.712  0.4226  0.5073 -0.1946
 3912TIP3    H133151   0.363   5.787  13.798  1.2889 -1.5457 -0.5914
 3912TIP3    H233152   0.446   5.895  13.733  1.2381 -0.3819  1.2132
 3913TIP3   OH233153   4.305   2.578  16.009 -0.3478 -0.8091  0.7556
 3913TIP3    H133154   4.319   2.495  15.964  2.2532  0.1801 -0.4409
 3913TIP3    H233155   4.325   2.645  15.943  0.3844  0.7520  2.4669
 3914TIP3   OH233156   1.184   1.439  15.183  0.0726  0.0359 -0.4693
 3914TIP3    H133157   1.244   1.473  15.116 -0.1397 -0.6119 -0.9943
 3914TIP3    H233158   1.160   1.352  15.152 -0.4426 -0.0640  0.1904
 3915TIP3   OH233159   5.190   1.130  15.920  0.0005  0.0019 -0.0716
 3915TIP3    H133160   5.192   1.225  15.934  1.8096 -0.1564  1.1374
 3915TIP3    H233161   5.281   1.107  15.899 -0.3899 -1.4626 -0.2433
 3916TIP3   OH233162   3.792   2.911  16.574  0.0514 -0.0264  0.6410
 3916TIP3    H133163   3.825   2.922  16.485 -0.8368 -1.7700  0.0501
 3916TIP3    H233164   3.767   3.000  16.601  0.5888  0.5797 -0.7381
 3917TIP3   OH233165   0.035   2.574   5.821  0.1735 -0.4249  0.7829
 3917TIP3    H133166   0.019   2.630   5.897 -2.0116  0.3826 -0.1846
 3917TIP3    H233167  -0.033   2.599   5.759  0.7869 -2.3371 -0.7355
 3918TIP3   OH233168   1.132   5.048  16.358 -0.3228  0.2770 -0.1764
 3918TIP3    H133169   1.146   4.969  16.410 -2.3672 -1.0971 -1.5630
 3918TIP3    H233170   1.092   5.110  16.418 -2.9096 -1.3746 -0.0071
 3919TIP3   OH233171   4.077   0.643   5.250  0.6082  0.4085 -0.2871
 3919TIP3    H133172   4.164   0.681   5.247  0.1423  1.5689  0.4328
 3919TIP3    H233173   4.022   0.710   5.290 -0.7451 -0.0592 -1.2668
 3920TIP3   OH233174   1.945   6.210  16.849 -0.2984  0.0458 -0.1646
 3920TIP3    H133175   1.865   6.261  16.833 -0.7913  0.1167  2.1451
 3920TIP3    H233176   1.912   6.123  16.874  0.3721 -0.1211  0.1435
 3921TIP3   OH233177   5.269   0.390   4.517  0.4100  0.6632 -0.3007
 3921TIP3    H133178   5.239   0.367   4.605 -1.5868 -0.6782 -1.2796
 3921TIP3    H233179   5.313   0.312   4.485  2.0758  1.4933 -0.1667
 3922TIP3   OH233180   2.901   6.264   1.952  0.1887 -0.2456 -0.1724
 3922TIP3    H133181   2.895   6.351   1.991  0.7215  0.2160 -1.0766
 3922TIP3    H233182   2.843   6.269   1.875 -0.8957 -1.1521  0.5524
 3923TIP3   OH233183   1.054   5.636  15.027 -0.1343 -0.1567  0.2961
 3923TIP3    H133184   1.127   5.581  14.999  0.3504  0.0151  1.1829
 3923TIP3    H233185   1.062   5.639  15.123 -1.4291 -0.3089  0.4270
 3924TIP3   OH233186   0.075   1.920  11.799 -0.3646 -0.1754  0.6368
 3924TIP3    H133187   0.025   1.984  11.749  1.3848  0.9291  0.2187
 3924TIP3    H233188   0.086   1.960  11.885 -0.0887 -0.3314  0.6771
 3925TIP3   OH233189   5.714   2.568  12.877 -0.1384  0.8712  0.5198
 3925TIP3    H133190   5.700   2.656  12.913 -0.2327  1.0288  0.1044
 3925TIP3    H233191   5.728   2.583  12.783  1.9128  0.6558  0.7370
 3926TIP3   OH233192   0.653   0.770  13.325 -0.8772  0.0157 -0.4059
 3926TIP3    H133193   0.634   0.862  13.306  2.5840  0.6772 -1.2552
 3926TIP3    H233194   0.597   0.721  13.263 -2.3674  1.5126 -0.3133
 3927TIP3   OH233195   1.532   4.891  13.551  0.3212  0.3029 -0.8287
 3927TIP3    H133196   1.560   4.926  13.636 -0.8953 -1.1505  0.2309
 3927TIP3    H233197   1.583   4.811  13.540 -0.8370 -0.4863 -0.5718
 3928TIP3   OH233198   1.022   2.978  16.814  0.6976  0.7736 -0.1412
 3928TIP3    H133199   0.942   2.955  16.766  0.6478 -0.1175  0.3472
 3928TIP3    H233200   1.056   3.055  16.768  0.7339 -0.1304 -1.7159
 3929TIP3   OH233201   0.470   0.563  16.571  0.1124  0.0890 -0.0854
 3929TIP3    H133202   0.422   0.623  16.513 -0.0995  0.9497  0.9408
 3929TIP3    H233203   0.563   0.583  16.554  0.0400  1.8029  1.2953
 3930TIP3   OH233204   2.492   5.985  16.479  0.4422 -0.1932 -0.1438
 3930TIP3    H133205   2.428   6.013  16.545  1.4039 -1.6855  1.4879
 3930TIP3    H233206   2.470   6.038  16.401 -1.6072  0.6215  0.9035
 3931TIP3   OH233207   5.520   3.810   1.647  0.2160 -0.4319  0.4514
 3931TIP3    H133208   5.605   3.848   1.670  0.5352 -0.8680  0.0103
 3931TIP3    H233209   5.541   3.725   1.609 -0.3817 -0.2987 -0.2035
 3932TIP3   OH233210   1.474   5.887  15.309  0.1253 -0.0851  0.3345
 3932TIP3    H133211   1.523   5.875  15.227 -1.1635 -0.4500 -0.3990
 3932TIP3    H233212   1.520   5.958  15.354  0.9579 -0.0001 -0.6164
 3933TIP3   OH233213   2.171   3.612   6.077 -0.2374  0.4348 -0.2317
 3933TIP3    H133214   2.098   3.662   6.112 -0.6563  0.0344 -0.5263
 3933TIP3    H233215   2.134   3.528   6.053  0.2526  0.3391 -0.6793
 3934TIP3   OH233216   0.835   0.881  14.553  0.0458  0.3597  0.1644
 3934TIP3    H133217   0.849   0.976  14.556  0.4120  0.6294 -4.1208
 3934TIP3    H233218   0.743   0.871  14.531 -0.3009 -0.4092  1.8078
 3935TIP3   OH233219   3.196   0.375  15.102  0.1996 -0.3718 -0.1344
 3935TIP3    H133220   3.215   0.282  15.089  2.2722  0.0683 -0.5652
 3935TIP3    H233221   3.140   0.377  15.180 -0.8123 -2.0283 -0.7553
 3936TIP3   OH233222   5.504   3.129  11.175 -0.2448  0.4262  0.2235
 3936TIP3    H133223   5.465   3.112  11.089 -1.2119  0.7691  0.5804
 3936TIP3    H233224   5.457   3.071  11.234 -0.1441  0.7756  0.6478
 3937TIP3   OH233225   6.626   6.429   6.269  0.1273  0.3515 -0.1948
 3937TIP3    H133226   6.539   6.397   6.247  0.1002  0.9735 -1.0966
 3937TIP3    H233227   6.620   6.457   6.360 -0.6827  0.5976 -0.3199
 3938TIP3   OH233228   3.895   1.957  16.130 -0.2769  0.3498  0.3540
 3938TIP3    H133229   3.968   2.018  16.122 -0.8206  0.8981 -0.6547
 3938TIP3    H233230   3.936   1.872  16.147  0.7178  0.3603 -1.6208
 3939TIP3   OH233231   5.512   5.270   3.763  0.0208  0.1758 -0.4341
 3939TIP3    H133232   5.458   5.348   3.774  0.9621  0.6487  1.2702
 3939TIP3    H233233   5.488   5.214   3.837 -0.5919 -1.1551 -1.5935
 3940TIP3   OH233234   2.246   5.599  16.341  0.3996 -0.2024  0.7637
 3940TIP3    H133235   2.288   5.600  16.427  0.9909  0.2432  0.4726
 3940TIP3    H233236   2.152   5.601  16.361  0.4794  3.1044  1.4139
 3941TIP3   OH233237   1.495   2.054   5.588 -0.1774 -0.4646  0.4922
 3941TIP3    H133238   1.476   2.132   5.640 -0.4598  0.1248 -0.4761
 3941TIP3    H233239   1.410   2.026   5.555 -0.1290 -1.4005  1.1013
 3942TIP3   OH233240   4.620   2.079  15.698 -0.1507 -0.8197 -0.0557
 3942TIP3    H133241   4.663   2.012  15.751 -0.7278 -0.7717  0.4850
 3942TIP3    H233242   4.660   2.069  15.611 -1.0370 -2.6578 -0.3152
 3943TIP3   OH233243   6.332   6.087  16.658  0.6207  0.1218  0.5065
 3943TIP3    H133244   6.336   6.167  16.606  0.1138  0.0680  0.3756
 3943TIP3    H233245   6.283   6.113  16.737 -1.7230 -0.6062 -0.6103
 3944TIP3   OH233246   3.315   6.475   2.757 -0.1920 -0.1797 -0.1692
 3944TIP3    H133247   3.232   6.492   2.713  0.6465  0.2889 -1.6462
 3944TIP3    H233248   3.345   6.392   2.719 -0.0423 -0.4140  0.4552
 3945TIP3   OH233249   3.574   2.578  16.742  0.5724  0.2338  0.0073
 3945TIP3    H133250   3.562   2.562  16.649 -0.0716  0.4388  0.0518
 3945TIP3    H233251   3.667   2.563  16.757  0.2673 -2.4634 -0.1712
 3946TIP3   OH233252   5.654   6.287  14.998 -0.3771  0.2439 -0.2270
 3946TIP3    H133253   5.581   6.316  15.053  0.5153 -0.1668  1.2226
 3946TIP3    H233254   5.653   6.347  14.923  0.3336  2.9449  1.7829
 3947TIP3   OH233255   0.645   5.391  15.181 -0.3968 -0.9566 -0.0313
 3947TIP3    H133256   0.569   5.381  15.125 -1.0787 -1.4844  0.9525
 3947TIP3    H233257   0.712   5.430  15.125 -1.3512 -0.5915 -0.9355
 3948TIP3   OH233258   4.904   0.170  13.069  0.5033 -0.1543 -0.4726
 3948TIP3    H133259   4.999   0.168  13.081  0.4237  1.3490  0.6287
 3948TIP3    H233260   4.869   0.129  13.148  0.2063  1.2720  0.1660
 3949TIP3   OH233261   4.561   0.637  12.918 -0.7250 -0.3055  0.2809
 3949TIP3    H133262   4.575   0.693  12.994 -2.3383 -0.5679  0.8058
 3949TIP3    H233263   4.479   0.591  12.936 -0.9706 -0.6390 -1.4481
 3950TIP3   OH233264   2.181   3.122   4.100  0.1298  0.4370  0.4102
 3950TIP3    H133265   2.243   3.111   4.172 -0.3866  0.5195  0.8755
 3950TIP3    H233266   2.173   3.035   4.061  1.5807  0.6924 -0.5446
 3951TIP3   OH233267   6.562   3.091   4.439  0.5947  0.6085  0.0848
 3951TIP3    H133268   6.487   3.064   4.493  2.2397 -1.2767  1.5449
 3951TIP3    H233269   6.599   3.009   4.407  2.7725  1.4116  0.4388
 3952TIP3   OH233270   2.586   2.275   5.262 -0.5117 -0.3570 -0.4263
 3952TIP3    H133271   2.653   2.235   5.206  0.3074 -1.5712  1.3279
 3952TIP3    H233272   2.635   2.338   5.315 -1.2274  0.5698 -0.8354
 3953TIP3   OH233273   3.373   0.953   3.916  0.8870 -0.3059  0.0543
 3953TIP3    H133274   3.350   0.880   3.859  0.2379  0.1983 -0.3554
 3953TIP3    H233275   3.375   1.029   3.857  1.2926  0.0482  0.5153
 3954TIP3   OH233276   3.404   5.284  11.126 -0.4291 -0.7313 -0.2070
 3954TIP3    H133277   3.446   5.355  11.078 -0.3656 -0.7981 -0.2508
 3954TIP3    H233278   3.358   5.234  11.059  1.9868 -2.5208 -0.6902
 3955TIP3   OH233279   1.679   5.210   0.551  0.6249 -0.2612  0.1723
 3955TIP3    H133280   1.661   5.286   0.495  0.9759 -0.9303 -0.8804
 3955TIP3    H233281   1.771   5.221   0.578  0.5888 -0.1649  0.2555
 3956TIP3   OH233282   3.009   2.661   3.086 -0.2836  0.1643 -0.1786
 3956TIP3    H133283   3.078   2.651   3.021 -0.6403  1.7201 -0.8454
 3956TIP3    H233284   3.051   2.644   3.170  0.7083  0.3076 -0.6396
 3957TIP3   OH233285   3.992   4.744   2.365  0.0494  0.0273  0.4885
 3957TIP3    H133286   3.964   4.826   2.324 -0.2893 -0.2992  0.0529
 3957TIP3    H233287   4.059   4.770   2.427  1.6634  0.4057 -1.3049
 3958TIP3   OH233288   0.684   4.131  14.814  0.2269  0.3601 -0.1405
 3958TIP3    H133289   0.611   4.098  14.866 -2.2406  1.2025 -2.7876
 3958TIP3    H233290   0.702   4.062  14.751  0.6612  0.7958 -0.5014
 3959TIP3   OH233291   4.727   4.790   4.903  0.7941  0.5407  0.0290
 3959TIP3    H133292   4.696   4.840   4.827 -0.4519  1.3881  1.0562
 3959TIP3    H233293   4.820   4.814   4.910  0.0440  3.5781  1.0510
 3960TIP3   OH233294   3.180   4.888  11.799  0.3868 -0.1204 -0.1559
 3960TIP3    H133295   3.197   4.954  11.867  1.2464 -0.7642  0.2725
 3960TIP3    H233296   3.229   4.919  11.723  3.9130 -2.0632  1.1272
 3961TIP3   OH233297   5.154   4.591  17.111  0.5374 -0.4422 -0.5926
 3961TIP3    H133298   5.106   4.608  17.030 -0.0624  1.0323  0.0259
 3961TIP3    H233299   5.244   4.618  17.092 -0.1675  2.7362  0.0194
 3962TIP3   OH233300   3.011   5.284   4.495 -0.4233 -0.5995 -0.2379
 3962TIP3    H133301   3.063   5.354   4.532  0.7453 -1.6619  0.1857
 3962TIP3    H233302   3.002   5.307   4.402 -0.7937  0.5274  0.0659
 3963TIP3   OH233303   0.895   2.198   2.550  0.4256  0.1456  0.0151
 3963TIP3    H133304   0.936   2.214   2.465 -2.1164 -1.7469 -1.7037
 3963TIP3    H233305   0.816   2.252   2.550 -0.5434 -1.2188  0.3586
 3964TIP3   OH233306   1.271   2.637   1.167  0.1586 -0.2400  0.1128
 3964TIP3    H133307   1.296   2.669   1.254  3.1626 -0.4654 -0.5897
 3964TIP3    H233308   1.348   2.593   1.134  0.1469  2.2493 -3.8110
 3965TIP3   OH233309   0.048   5.477  13.441  0.2599  0.2047  0.4765
 3965TIP3    H133310   0.117   5.444  13.499  1.0872 -1.6116 -1.4043
 3965TIP3    H233311   0.094   5.537  13.381  0.1051 -0.4388 -0.3115
 3966TIP3   OH233312   0.396   4.817  16.018  0.3315 -0.2791  0.0520
 3966TIP3    H133313   0.360   4.855  16.098  0.0880  0.2371 -0.2926
 3966TIP3    H233314   0.481   4.860  16.008  0.0622  0.1758 -0.3312
 3967TIP3   OH233315   2.325   0.897  16.890  0.5007  0.2686  0.1370
 3967TIP3    H133316   2.315   0.982  16.933 -0.0190  1.0237 -1.3986
 3967TIP3    H233317   2.237   0.859  16.893  0.7345 -0.2519  0.8309
 3968TIP3   OH233318   0.495   1.447  16.360 -0.5931  0.0992  0.6144
 3968TIP3    H133319   0.456   1.524  16.318  0.0154  0.7930  1.2704
 3968TIP3    H233320   0.587   1.472  16.374  0.2003 -1.6011 -1.1629
 3969TIP3   OH233321   3.278   0.140  12.875 -0.0070  0.2487 -0.2042
 3969TIP3    H133322   3.325   0.086  12.811  1.6077  1.5849 -0.2039
 3969TIP3    H233323   3.194   0.158  12.834  0.0385 -0.9459 -0.8716
 3970TIP3   OH233324   4.990   4.945   5.735  0.0008  0.4338 -0.0575
 3970TIP3    H133325   4.932   4.956   5.810 -1.0404  2.9105 -1.0844
 3970TIP3    H233326   4.978   4.854   5.707 -0.4608 -0.1875  2.0295
 3971TIP3   OH233327   2.625   3.737   1.507 -0.4080  0.0201 -0.5371
 3971TIP3    H133328   2.710   3.740   1.551 -0.4584  1.5278 -0.5025
 3971TIP3    H233329   2.619   3.820   1.461 -0.6683 -1.2241 -2.8577
 3972TIP3   OH233330   2.409   0.496   4.890 -0.5841  0.5123  0.1506
 3972TIP3    H133331   2.454   0.548   4.957 -0.5700  0.3546  0.2638
 3972TIP3    H233332   2.318   0.493   4.920 -0.6653  0.8111 -0.0665
 3973TIP3   OH233333   2.312   2.012   1.261 -0.4894  0.4663  0.5793
 3973TIP3    H133334   2.358   1.965   1.330  0.0032 -0.1827 -0.1763
 3973TIP3    H233335   2.381   2.036   1.199 -1.1221 -0.2773 -0.4327
 3974TIP3   OH233336   4.495   5.854   6.567  0.8341 -0.0487  0.3619
 3974TIP3    H133337   4.513   5.777   6.620  0.1183 -0.7522 -0.3778
 3974TIP3    H233338   4.567   5.858   6.505  0.0934 -1.0762 -0.6195
 3975TIP3   OH233339   0.095   1.132  16.434 -0.4872  0.1760  0.1373
 3975TIP3    H133340   0.064   1.124  16.524 -0.3825 -0.1763  0.1453
 3975TIP3    H233341   0.168   1.193  16.438  1.8987 -2.5297  0.9017
 3976TIP3   OH233342   5.004   2.273  11.342 -0.7368  0.2949  0.4424
 3976TIP3    H133343   5.082   2.258  11.394 -0.6796 -0.8396  0.0547
 3976TIP3    H233344   5.027   2.242  11.254 -1.2881  0.8969  0.0718
 3977TIP3   OH233345   6.245   0.760   5.616 -0.4783 -0.0903  0.1145
 3977TIP3    H133346   6.255   0.827   5.549 -1.6798  0.2441  0.2315
 3977TIP3    H233347   6.321   0.770   5.672  0.0377  0.2833 -0.6397
 3978TIP3   OH233348   5.501   2.047  15.512  0.4977 -0.4658 -0.0477
 3978TIP3    H133349   5.409   2.065  15.493  0.5073 -1.6832 -1.3391
 3978TIP3    H233350   5.513   2.079  15.602 -0.6096  1.6970 -0.6001
 3979TIP3   OH233351   1.278   5.219   4.234 -0.4311  0.3458 -0.6700
 3979TIP3    H133352   1.202   5.201   4.289  0.4531 -1.3288  0.0806
 3979TIP3    H233353   1.299   5.311   4.251 -0.4738  0.0152  1.4750
 3980TIP3   OH233354   0.269   6.221  11.715  0.0476 -0.2191 -0.8079
 3980TIP3    H133355   0.312   6.165  11.651  0.7324 -1.0714  0.3627
 3980TIP3    H233356   0.331   6.291  11.732  2.1349 -2.5717  2.4838
 3981TIP3   OH233357   2.515   5.918   6.377  0.1370  0.3619 -0.1191
 3981TIP3    H133358   2.479   5.992   6.425 -1.4595  0.0706 -0.8125
 3981TIP3    H233359   2.499   5.842   6.433  0.2143  0.3059 -0.1718
 3982TIP3   OH233360   2.021   5.574   3.676  0.1521  0.0774 -0.4899
 3982TIP3    H133361   2.105   5.608   3.708  0.0287 -1.4099  1.6360
 3982TIP3    H233362   2.039   5.483   3.655 -0.6284  0.1194 -1.3884
 3983TIP3   OH233363   2.378   0.810   4.525 -0.1990 -0.3688  0.2245
 3983TIP3    H133364   2.444   0.761   4.574 -0.5560 -1.5836 -0.4813
 3983TIP3    H233365   2.302   0.753   4.522 -0.7441  0.3579 -0.3430
 3984TIP3   OH233366   4.987   5.016  14.307  0.5603 -0.5266 -0.1457
 3984TIP3    H133367   4.953   4.926  14.306  3.3556 -1.6549 -0.6240
 3984TIP3    H233368   4.988   5.042  14.215  1.3826 -0.6672 -0.1769
 3985TIP3   OH233369   1.246   2.364  15.174  0.2599  0.4748 -0.5345
 3985TIP3    H133370   1.335   2.329  15.173 -0.2882 -1.0277  0.1282
 3985TIP3    H233371   1.220   2.367  15.082  0.4064 -0.7272 -0.6312
 3986TIP3   OH233372   6.697   0.775   0.497 -0.1322 -0.4519  0.2091
 3986TIP3    H133373   6.644   0.750   0.572 -1.2718  0.7349 -0.1722
 3986TIP3    H233374   6.777   0.812   0.535 -1.4120  1.7168  0.9226
 3987TIP3   OH233375   5.064   1.926  12.118  0.2504 -0.3772  0.3857
 3987TIP3    H133376   5.028   1.840  12.099 -1.9198  1.3496 -5.2027
 3987TIP3    H233377   4.988   1.980  12.138  1.2913  0.7994  1.3603
 3988TIP3   OH233378   5.572   5.503  16.562  0.1776 -0.2121  0.3861
 3988TIP3    H133379   5.666   5.520  16.548  0.4487 -0.3892  1.8732
 3988TIP3    H233380   5.570   5.430  16.624 -0.9528 -0.2436  0.3233
 3989TIP3   OH233381   4.360   3.665   5.362 -0.2394 -0.0468  0.5242
 3989TIP3    H133382   4.427   3.598   5.348 -1.0383 -0.7887  0.2198
 3989TIP3    H233383   4.381   3.702   5.447  1.1382  0.4025  0.0222
 3990TIP3   OH233384   6.267   4.094   6.082  0.0889 -0.4891  0.2668
 3990TIP3    H133385   6.228   4.078   5.997  0.1847 -0.2721  0.1811
 3990TIP3    H233386   6.355   4.125   6.063  0.4903 -1.4692  0.4727
 3991TIP3   OH233387   5.066   3.051   2.494 -0.6099 -0.2890 -0.0689
 3991TIP3    H133388   4.994   3.071   2.434 -0.0677 -0.1123 -0.6674
 3991TIP3    H233389   5.026   3.052   2.581 -1.6251 -1.5283 -0.4841
 3992TIP3   OH233390   6.194   4.916  13.042 -0.5481 -0.1921  0.0606
 3992TIP3    H133391   6.279   4.940  13.080 -1.8737  1.4942  2.2845
 3992TIP3    H233392   6.189   4.821  13.052  1.7673 -0.6142 -1.8549
 3993TIP3   OH233393   1.333   5.138   0.781 -0.3236  0.5603  0.3046
 3993TIP3    H133394   1.307   5.054   0.745 -0.4662  0.3635  0.8521
 3993TIP3    H233395   1.363   5.118   0.869  1.9133  0.7633 -0.3684
 3994TIP3   OH233396   5.245   4.416  16.741  0.3373 -0.6137  0.6209
 3994TIP3    H133397   5.150   4.409  16.735 -0.1243  3.8109 -0.8355
 3994TIP3    H233398   5.262   4.437  16.833  0.0653 -1.9426  1.0051
 3995TIP3   OH233399   6.333   6.324  11.279 -0.1629  1.0988 -0.2574
 3995TIP3    H133400   6.335   6.413  11.314 -1.1371  1.2719 -0.6043
 3995TIP3    H233401   6.423   6.309  11.248  0.2676  1.5749  0.7116
 3996TIP3   OH233402   6.371   2.077  16.086 -0.0334  0.0752 -0.6171
 3996TIP3    H133403   6.454   2.061  16.041 -0.3243  1.7562 -1.8739
 3996TIP3    H233404   6.305   2.052  16.022 -0.4935 -0.1665 -0.0537
 3997TIP3   OH233405   6.221   5.965   6.244  0.0518 -0.6060  0.2554
 3997TIP3    H133406   6.125   5.965   6.237  0.0185  1.2027  0.1410
 3997TIP3    H233407   6.239   5.920   6.327 -0.9733 -0.0378  0.8091
 3998TIP3   OH233408   3.612   5.433  14.404 -0.2937 -0.1706  0.3309
 3998TIP3    H133409   3.524   5.404  14.381  0.0529 -1.4513  0.5361
 3998TIP3    H233410   3.607   5.454  14.497 -0.4680  0.0858  0.2623
 3999TIP3   OH233411   4.979   2.900  15.746  0.2829  0.1408 -0.1890
 3999TIP3    H133412   4.932   2.948  15.814 -0.1764 -0.1457 -0.2922
 3999TIP3    H233413   4.998   2.814  15.785 -0.1649 -0.0979 -0.4831
 4000TIP3   OH233414   6.388   2.830   3.320 -0.3074 -0.1120 -0.3736
 4000TIP3    H133415   6.430   2.747   3.344 -0.2346  0.1284  0.3416
 4000TIP3    H233416   6.449   2.871   3.258  0.5741  0.2839  0.7325
 4001TIP3   OH233417   2.795   1.689   0.960 -0.2687  0.5250  0.3733
 4001TIP3    H133418   2.809   1.609   0.909  0.1224  1.3124 -0.8129
 4001TIP3    H233419   2.806   1.662   1.051 -0.7197 -0.8775  0.0356
 4002TIP3   OH233420   2.764   4.587  16.689  0.4495  0.2184 -0.1443
 4002TIP3    H133421   2.693   4.548  16.740 -0.3877  1.5065 -0.2703
 4002TIP3    H233422   2.757   4.547  16.602 -1.3552  1.6610 -0.7312
 4003TIP3   OH233423   2.637   6.139   3.838 -0.0112  0.0753 -0.6251
 4003TIP3    H133424   2.698   6.153   3.765 -1.2254  1.0298 -1.5161
 4003TIP3    H233425   2.687   6.089   3.902  2.1740  2.0057 -0.6686
 4004TIP3   OH233426   3.481   3.622   3.896  0.6407  0.1371  0.2120
 4004TIP3    H133427   3.487   3.637   3.990 -1.2674  0.3878  0.3274
 4004TIP3    H233428   3.497   3.708   3.857 -0.2422  0.4056  0.4104
 4005TIP3   OH233429   4.741   2.727   3.629  0.6640 -0.1299 -0.0061
 4005TIP3    H133430   4.800   2.768   3.693  0.6130  1.8244 -1.1336
 4005TIP3    H233431   4.700   2.801   3.584  0.1294 -1.4521 -1.7744
 4006TIP3   OH233432   6.020   5.734   3.140 -0.1026 -0.1785 -0.2859
 4006TIP3    H133433   6.096   5.741   3.197  0.0078 -0.3959 -0.4075
 4006TIP3    H233434   6.052   5.761   3.054 -0.2714  0.1621 -0.2474
 4007TIP3   OH233435   3.245   0.115  13.703  0.2603  0.2451  0.1996
 4007TIP3    H133436   3.174   0.176  13.717  0.4944  1.3558 -2.8630
 4007TIP3    H233437   3.203   0.030  13.690 -0.4598  0.7474 -0.7874
 4008TIP3   OH233438   6.141   3.123  13.631 -0.3310  0.2998 -0.4030
 4008TIP3    H133439   6.190   3.196  13.594 -0.7048  1.1459  0.7246
 4008TIP3    H233440   6.161   3.124  13.724 -2.2442  0.5136  0.0531
 4009TIP3   OH233441   3.585   3.602   1.566  0.2751  0.3441  0.2115
 4009TIP3    H133442   3.545   3.536   1.624 -1.0619  1.0325  0.1118
 4009TIP3    H233443   3.542   3.588   1.482 -0.1707  1.4787  0.2458
 4010TIP3   OH233444   4.783   0.196  11.223 -0.0208 -0.2668 -0.0683
 4010TIP3    H133445   4.823   0.143  11.153  1.6282  1.5374 -0.5743
 4010TIP3    H233446   4.699   0.224  11.186  0.4248 -0.0901 -0.9921
 4011TIP3   OH233447   5.307   5.188  12.582  0.2353 -0.0196  0.4187
 4011TIP3    H133448   5.330   5.143  12.500  0.4344 -0.1509  0.5487
 4011TIP3    H233449   5.391   5.216  12.619  0.2118 -0.7144  1.0139
 4012TIP3   OH233450   4.492   0.623  11.363 -0.2154 -0.1231  0.4377
 4012TIP3    H133451   4.535   0.546  11.402  0.8671  1.0697  1.7108
 4012TIP3    H233452   4.544   0.642  11.285  0.0883 -0.1326  0.6350
 4013TIP3   OH233453   5.338   0.936  15.608  0.0477 -0.4264 -0.0606
 4013TIP3    H133454   5.308   0.950  15.698 -0.4000  1.4881 -0.4445
 4013TIP3    H233455   5.384   0.853  15.610 -0.3547 -0.6521  1.8333
 4014TIP3   OH233456   6.149   0.716  11.642 -0.4978  0.1289 -0.2113
 4014TIP3    H133457   6.059   0.712  11.610  0.2760 -0.1106 -2.5109
 4014TIP3    H233458   6.179   0.625  11.641  0.0825  0.3199 -0.4190
 4015TIP3   OH233459   3.100   1.267  16.846 -0.6504 -0.0146  0.4698
 4015TIP3    H133460   3.097   1.180  16.886  0.8064  0.1798  1.0759
 4015TIP3    H233461   3.140   1.323  16.913 -2.6347  1.4109  0.5502
 4016TIP3   OH233462   4.340   0.327  14.306  0.0334 -0.2402  0.0422
 4016TIP3    H133463   4.294   0.388  14.249  0.7045  2.5354  2.2550
 4016TIP3    H233464   4.271   0.291  14.363 -0.2675 -1.0938 -0.8378
 4017TIP3   OH233465   6.217   3.162  10.913  0.1738 -0.3827  0.3606
 4017TIP3    H133466   6.181   3.154  10.825 -0.5509 -0.3707  0.6532
 4017TIP3    H233467   6.206   3.075  10.951 -0.5536 -0.0884  0.8323
 4018TIP3   OH233468   0.176   0.606   0.121 -0.1885  0.0167 -0.2225
 4018TIP3    H133469   0.221   0.525   0.099  0.0215 -0.2011  0.9507
 4018TIP3    H233470   0.117   0.622   0.047  0.1589 -0.9109 -0.7108
 4019TIP3   OH233471   5.573   3.547  16.943  0.5090  0.5601  0.2604
 4019TIP3    H133472   5.640   3.479  16.946 -1.8207 -1.9381 -0.2608
 4019TIP3    H233473   5.598   3.609  17.011  3.7910  0.2918 -0.5324
 4020TIP3   OH233474   6.404   4.505  15.374 -0.2039  0.1936 -0.2685
 4020TIP3    H133475   6.477   4.445  15.393 -0.9655 -0.6399  0.0871
 4020TIP3    H233476   6.351   4.458  15.310 -1.3340  0.0504  0.7404
 4021TIP3   OH233477   2.714   2.511  11.264  0.3871  0.3463  0.1930
 4021TIP3    H133478   2.740   2.597  11.231 -1.7861  0.7737 -0.5242
 4021TIP3    H233479   2.788   2.454  11.241  0.9364  1.5806 -1.3046
 4022TIP3   OH233480   3.030   4.233  13.121 -0.2350  0.0689  0.6620
 4022TIP3    H133481   3.061   4.175  13.052 -0.5319  1.1293 -0.3908
 4022TIP3    H233482   2.955   4.186  13.159  0.9249 -1.2545  1.3889
 4023TIP3   OH233483   1.412   3.335  10.479  0.5564 -0.2008 -0.1418
 4023TIP3    H133484   1.329   3.301  10.512 -0.1495  0.9910 -0.6532
 4023TIP3    H233485   1.446   3.265  10.423 -0.0448 -0.7380  0.1575
 4024TIP3   OH233486   5.852   5.109   5.895  0.0271 -0.4300 -0.0479
 4024TIP3    H133487   5.867   5.187   5.949 -1.6425 -0.7850  0.9899
 4024TIP3    H233488   5.831   5.143   5.808 -0.3128  0.2643  0.3018
 4025TIP3   OH233489   1.129   5.986   1.926 -0.4392 -0.0811 -0.1615
 4025TIP3    H133490   1.158   6.063   1.976 -1.6914  0.1904  0.1781
 4025TIP3    H233491   1.153   5.911   1.981  0.3272  0.0825 -0.2626
 4026TIP3   OH233492   6.727   1.027   3.538  0.4714  0.3636  0.1145
 4026TIP3    H133493   6.724   1.071   3.453  1.5922 -2.5407 -1.5845
 4026TIP3    H233494   6.819   1.033   3.564  0.1898  0.9604  1.0251
 4027TIP3   OH233495   5.434   0.033  12.692  0.4651 -0.4232  0.0162
 4027TIP3    H133496   5.361   0.012  12.751 -0.4043 -0.3281 -0.9989
 4027TIP3    H233497   5.422  -0.025  12.617  0.3412  0.8981 -1.0197
 4028TIP3   OH233498   5.660   1.780   5.663 -0.7823  0.1414 -0.5428
 4028TIP3    H133499   5.639   1.829   5.742 -2.3576 -0.3596 -0.6165
 4028TIP3    H233500   5.671   1.690   5.692 -0.6372  0.0753 -0.7971
 4029TIP3   OH233501   2.574   0.640   3.826 -0.0742 -0.2476 -0.3396
 4029TIP3    H133502   2.490   0.614   3.789 -0.0858 -0.6939 -0.0033
 4029TIP3    H233503   2.553   0.678   3.911  0.1349 -1.2877  0.2007
 4030TIP3   OH233504   1.474   4.386  16.106 -0.0070 -0.1386  0.0449
 4030TIP3    H133505   1.544   4.347  16.053  1.9737  1.0927  1.6060
 4030TIP3    H233506   1.428   4.445  16.046 -0.3514 -1.6424 -1.2473
 4031TIP3   OH233507   3.200   4.848  14.501 -0.9897 -0.6634  0.5526
 4031TIP3    H133508   3.168   4.888  14.420 -1.5413  0.8352  1.4824
 4031TIP3    H233509   3.265   4.784  14.472  0.7162  1.6341 -0.9419
 4032TIP3   OH233510   3.217   2.347   4.942 -0.4211  0.1944  0.2970
 4032TIP3    H133511   3.259   2.379   4.862  0.4067 -1.4176  0.0602
 4032TIP3    H233512   3.187   2.259   4.920  0.6581 -0.6652  2.0212
 4033TIP3   OH233513   3.196   4.606  15.750 -0.1414  0.2090 -0.2581
 4033TIP3    H133514   3.177   4.695  15.721  1.0412  0.9652  1.1680
 4033TIP3    H233515   3.185   4.552  15.671 -2.8457  1.2762 -0.7227
 4034TIP3   OH233516   3.670   1.808  10.827  0.2442  0.4601  0.2427
 4034TIP3    H133517   3.634   1.766  10.749  0.5269 -0.0098  0.3633
 4034TIP3    H233518   3.765   1.804  10.814  0.3354 -0.6803  1.1592
 4035TIP3   OH233519   2.300   1.268  16.741 -0.2661  0.3573  0.3807
 4035TIP3    H133520   2.387   1.290  16.776  0.0076 -0.5566  0.2944
 4035TIP3    H233521   2.241   1.331  16.782  0.4020  0.8304  0.6344
 4036TIP3   OH233522   6.323   3.330   2.539 -0.5539 -0.5456 -0.1720
 4036TIP3    H133523   6.339   3.409   2.591  2.0783 -1.9450  1.3762
 4036TIP3    H233524   6.306   3.363   2.451  2.5251  1.7938 -0.0946
 4037TIP3   OH233525   6.499   0.955   3.874  0.1022  0.1784 -0.4300
 4037TIP3    H133526   6.590   0.984   3.870 -0.0029  0.6313  0.2536
 4037TIP3    H233527   6.467   0.961   3.784  0.5921  0.5235 -0.5797
 4038TIP3   OH233528   0.105   1.740  15.632 -0.0560 -0.0195  0.4987
 4038TIP3    H133529   0.014   1.756  15.606  0.0293 -1.2307 -0.5997
 4038TIP3    H233530   0.149   1.824  15.615 -0.6533  0.1327 -0.3878
 4039TIP3   OH233531   2.706   0.482  13.876  0.1925 -0.4287 -0.1620
 4039TIP3    H133532   2.654   0.524  13.808  0.1264 -0.3200 -0.0455
 4039TIP3    H233533   2.718   0.392  13.846 -0.6771 -0.6596  0.1595
 4040TIP3   OH233534   6.572   0.504   4.436  0.7396 -0.4516 -0.2144
 4040TIP3    H133535   6.585   0.439   4.366 -1.0337 -0.6912 -0.3596
 4040TIP3    H233536   6.505   0.563   4.402  2.2889  1.4849 -0.0569
 4041TIP3   OH233537   3.581   5.568   3.418  0.1390  0.1795 -0.1252
 4041TIP3    H133538   3.633   5.585   3.340  0.3711 -0.5315 -0.1282
 4041TIP3    H233539   3.590   5.648   3.470 -1.8512  1.6003 -1.8175
 4042TIP3   OH233540   0.835   5.358  11.501  0.2192 -0.0101  0.4433
 4042TIP3    H133541   0.908   5.342  11.442 -0.0471 -0.8418  0.3291
 4042TIP3    H233542   0.804   5.271  11.525  0.7827  0.2836  2.4051
 4043TIP3   OH233543   3.661   3.559   2.756 -0.5716  0.2918 -0.2453
 4043TIP3    H133544   3.713   3.502   2.813 -1.4267 -2.9377 -2.3978
 4043TIP3    H233545   3.571   3.547   2.786 -0.6131  2.1642  0.4979
 4044TIP3   OH233546   5.835   1.844   0.422 -0.2684  0.3422 -0.3856
 4044TIP3    H133547   5.796   1.766   0.461  1.3014 -1.0239 -1.4232
 4044TIP3    H233548   5.780   1.916   0.453 -1.6972 -1.1383  0.7027
 4045TIP3   OH233549   2.235   3.593   2.025 -0.4348 -0.0171  0.6846
 4045TIP3    H133550   2.247   3.685   2.048 -1.2587  0.3513 -0.2772
 4045TIP3    H233551   2.299   3.576   1.956 -0.4089 -0.1135  0.7324
 4046TIP3   OH233552   3.993   4.100   1.347 -0.0186  0.3600 -0.2329
 4046TIP3    H133553   3.980   4.066   1.259 -0.2408  1.8383 -0.7936
 4046TIP3    H233554   4.061   4.166   1.337 -0.2201  0.7180  0.6672
 4047TIP3   OH233555   3.062   3.669  11.355  0.1853 -0.0723 -0.0287
 4047TIP3    H133556   3.148   3.709  11.367  0.3829 -0.7827  1.0627
 4047TIP3    H233557   3.079   3.591  11.302  0.2244 -0.2130  0.1870
 4048TIP3   OH233558   3.885   3.995  11.241 -0.2124  1.0377 -0.4051
 4048TIP3    H133559   3.895   4.082  11.201 -2.9169  1.5629 -0.0963
 4048TIP3    H233560   3.798   3.966  11.216  0.3554 -1.3270  0.0893
 4049TIP3   OH233561   1.508   4.675  13.986  0.4578  0.3136  0.2383
 4049TIP3    H133562   1.583   4.620  14.009 -0.1777 -0.2734  0.9776
 4049TIP3    H233563   1.530   4.762  14.020  1.2663  0.4161 -0.5187
 4050TIP3   OH233564   5.506   0.137   1.319  0.1146  0.1269  0.4931
 4050TIP3    H133565   5.519   0.229   1.343  0.0315  0.2036  0.2435
 4050TIP3    H233566   5.461   0.099   1.395  0.7411  0.1297  0.8725
 4051TIP3   OH233567   3.335   4.575   3.664 -0.1580 -0.4200 -0.2545
 4051TIP3    H133568   3.345   4.550   3.573 -2.8510 -0.5397 -0.6079
 4051TIP3    H233569   3.310   4.494   3.709  0.4702 -0.2249  0.4693
 4052TIP3   OH233570   3.661   6.784  14.058  0.4181  0.5769  0.1954
 4052TIP3    H133571   3.623   6.872  14.065 -0.2235  0.6522 -2.8247
 4052TIP3    H233572   3.598   6.735  14.005  3.1344 -0.0827 -2.7660
 4053TIP3   OH233573   0.561   3.112   0.023  0.1572  0.1224 -0.3457
 4053TIP3    H133574   0.573   3.022   0.054 -1.4732 -0.1008 -0.2663
 4053TIP3    H233575   0.567   3.166   0.101 -0.5055 -0.0971 -0.1343
 4054TIP3   OH233576   0.531   4.890  13.232  0.8085  0.2064  0.1808
 4054TIP3    H133577   0.457   4.950  13.229  0.1228 -0.6415 -0.5101
 4054TIP3    H233578   0.585   4.914  13.156  1.3907  0.9802  0.8191
 4055TIP3   OH233579   6.101   0.469  15.258 -0.6783 -0.0712  0.0345
 4055TIP3    H133580   6.121   0.376  15.269  2.1924  0.5599  1.0523
 4055TIP3    H233581   6.113   0.485  15.164  2.3693 -0.0989  0.3452
 4056TIP3   OH233582   6.372   1.737  11.540  0.6320 -0.2588  0.1076
 4056TIP3    H133583   6.319   1.790  11.600 -0.0962 -2.0959  1.1605
 4056TIP3    H233584   6.308   1.685  11.491  1.3247 -0.1887 -0.9132
 4057TIP3   OH233585   4.673   1.449  15.708 -0.4397 -0.0579 -0.0971
 4057TIP3    H133586   4.610   1.403  15.763  0.2647  0.0551  0.8292
 4057TIP3    H233587   4.682   1.395  15.630 -1.8267  0.0287 -0.3443
 4058TIP3   OH233588   3.749   2.823   4.028 -0.0072 -0.3221 -0.0284
 4058TIP3    H133589   3.699   2.853   4.104 -1.2490 -0.5443 -0.7435
 4058TIP3    H233590   3.710   2.867   3.953  1.8917  0.7350 -0.4713
 4059TIP3   OH233591   0.174   3.352  15.599 -0.2279 -0.4013  0.2468
 4059TIP3    H133592   0.191   3.446  15.605  0.6673 -0.5293 -0.1293
 4059TIP3    H233593   0.079   3.346  15.587 -0.2094  0.4976 -0.5185
 4060TIP3   OH233594   0.599   2.565   1.259 -0.0385  0.0750 -0.0349
 4060TIP3    H133595   0.581   2.471   1.263 -0.2400  0.0653 -1.0581
 4060TIP3    H233596   0.695   2.572   1.259 -0.0100 -0.1934 -1.0617
 4061TIP3   OH233597   0.224   0.132   4.196  0.4903 -0.6258 -0.3093
 4061TIP3    H133598   0.306   0.086   4.181  0.1237 -1.0704 -0.9605
 4061TIP3    H233599   0.196   0.162   4.110 -0.8742 -1.9273 -0.3681
 4062TIP3   OH233600   2.384   1.113  14.526 -0.1161  0.1123  0.3742
 4062TIP3    H133601   2.365   1.197  14.568  0.6226  0.5213 -0.0735
 4062TIP3    H233602   2.391   1.051  14.598  2.0062  0.9685  0.9897
 4063TIP3   OH233603   3.471   5.209   0.469  0.0560 -0.6337 -0.4815
 4063TIP3    H133604   3.472   5.278   0.403 -3.0673 -0.1435 -0.1466
 4063TIP3    H233605   3.461   5.128   0.419  0.2022 -0.5109 -0.7120
 4064TIP3   OH233606   3.847   6.482  13.522 -0.0621 -0.1884  0.0291
 4064TIP3    H133607   3.763   6.504  13.561  0.1075  0.7395 -0.0846
 4064TIP3    H233608   3.897   6.564  13.527  0.3508 -0.3546 -1.1322
 4065TIP3   OH233609   1.133   3.707  16.798 -0.1992  0.1357  0.2854
 4065TIP3    H133610   1.156   3.790  16.840  3.2631 -0.9871  0.8838
 4065TIP3    H233611   1.125   3.644  16.870  2.1145 -1.0146 -0.3594
 4066TIP3   OH233612   5.407   0.678  16.218  0.5945  0.2611  0.1046
 4066TIP3    H133613   5.327   0.727  16.240  0.9378  0.7604  0.2676
 4066TIP3    H233614   5.471   0.746  16.199  0.9159 -0.1439 -0.2577
 4067TIP3   OH233615   5.412   0.156   4.427 -0.0463  0.7296 -0.3854
 4067TIP3    H133616   5.451   0.154   4.340  0.7735  0.7935 -0.0306
 4067TIP3    H233617   5.343   0.090   4.424  0.6734 -0.0342 -0.7674
 4068TIP3   OH233618   4.318   5.046  15.213  0.0708  0.2242 -0.2646
 4068TIP3    H133619   4.298   4.953  15.207  4.7772 -1.3142  2.4907
 4068TIP3    H233620   4.286   5.071  15.300 -0.5830  1.0796 -0.7358
 4069TIP3   OH233621   1.605   3.526   2.021 -0.0863  0.2164 -0.9137
 4069TIP3    H133622   1.591   3.518   2.115 -1.3907 -0.1369 -1.1123
 4069TIP3    H233623   1.625   3.618   2.007  0.3037  0.2319 -0.2771
 4070TIP3   OH233624   4.901   0.812   6.746  0.4078 -0.4075  0.1610
 4070TIP3    H133625   4.964   0.749   6.778  0.8226 -0.8765 -1.5258
 4070TIP3    H233626   4.953   0.886   6.715  0.1157 -0.5752 -0.7606
 4071TIP3   OH233627   1.980   5.569  16.433 -0.1377  0.0214 -0.2838
 4071TIP3    H133628   1.893   5.593  16.401 -0.3043 -0.1370  0.0386
 4071TIP3    H233629   1.966   5.544  16.524 -0.1781 -2.2759 -0.8439
 4072TIP3   OH233630   4.036   4.300   3.413 -0.0575  0.0066 -0.3032
 4072TIP3    H133631   3.973   4.239   3.373  0.9992 -1.8225  0.6773
 4072TIP3    H233632   4.012   4.386   3.379 -1.9375 -0.8883 -1.3605
 4073TIP3   OH233633   3.685   5.899  12.124  0.4556  0.3722 -0.1826
 4073TIP3    H133634   3.771   5.893  12.165 -0.0988 -0.3981  0.9105
 4073TIP3    H233635   3.625   5.912  12.197 -0.8811 -3.6261 -0.3709
 4074TIP3   OH233636   6.638   3.959  13.158 -0.1041  0.0536  0.3564
 4074TIP3    H133637   6.606   4.046  13.136 -0.0419  0.1697  0.7221
 4074TIP3    H233638   6.726   3.956  13.120 -0.4920 -0.2279 -0.5571
 4075TIP3   OH233639   1.135   0.351   5.233 -0.2345  0.0441 -0.4197
 4075TIP3    H133640   1.043   0.343   5.257 -0.1048  0.4851  0.2678
 4075TIP3    H233641   1.136   0.414   5.161 -0.4367  0.4302 -0.0934
 4076TIP3   OH233642   6.643   0.998   1.807 -0.1321 -0.8414  0.4325
 4076TIP3    H133643   6.593   1.028   1.883  0.1051  2.8216 -0.6665
 4076TIP3    H233644   6.585   1.014   1.733  1.2847  0.0113 -0.5373
 4077TIP3   OH233645   5.117   4.147  15.848 -0.1123 -0.0640 -0.5684
 4077TIP3    H133646   5.035   4.179  15.809 -1.2029 -1.6007  0.3293
 4077TIP3    H233647   5.114   4.178  15.938  0.3148 -0.0837 -0.5485
 4078TIP3   OH233648   4.126   4.279   1.141  0.2266  0.3065  0.4447
 4078TIP3    H133649   4.203   4.313   1.095 -0.5601  0.1949 -0.9910
 4078TIP3    H233650   4.105   4.197   1.096 -1.6383  1.0889 -0.2138
 4079TIP3   OH233651   2.662   4.276  12.993  0.4274  0.0109 -0.1371
 4079TIP3    H133652   2.723   4.311  12.928  0.0188 -0.3142 -0.7034
 4079TIP3    H233653   2.579   4.319  12.974  0.5766  0.8392  0.9555
 4080TIP3   OH233654   5.209   4.328   2.842  0.1185 -0.7215  0.4635
 4080TIP3    H133655   5.288   4.336   2.895  1.0347  0.1714 -0.9629
 4080TIP3    H233656   5.160   4.408   2.859  0.7664 -0.0896 -0.5434
 4081TIP3   OH233657   2.945   5.853   5.281  0.3193 -0.6447 -0.1884
 4081TIP3    H133658   2.930   5.927   5.339  0.9662 -1.9158  1.7145
 4081TIP3    H233659   2.932   5.888   5.193 -0.9329  1.3225  0.7021
 4082TIP3   OH233660   5.322   3.064  11.966 -0.2184  0.4100 -0.4846
 4082TIP3    H133661   5.345   2.973  11.952  0.9716  0.3541  1.3412
 4082TIP3    H233662   5.256   3.084  11.900  0.4633 -1.3724 -1.7698
 4083TIP3   OH233663   1.181   5.542  13.353 -0.5724 -0.0115  0.3654
 4083TIP3    H133664   1.172   5.529  13.447  1.3416 -1.4544  0.4044
 4083TIP3    H233665   1.200   5.455  13.318  0.4095  0.7644 -1.1346
 4084TIP3   OH233666   0.069   6.441   4.664 -0.7503 -0.0841  0.1001
 4084TIP3    H133667   0.024   6.436   4.748 -1.2688  0.2458 -0.1515
 4084TIP3    H233668   0.026   6.514   4.618 -0.4242 -0.2127 -0.4200
 4085TIP3   OH233669   4.450   4.576  13.216 -0.5506 -0.0699  0.2077
 4085TIP3    H133670   4.446   4.669  13.238  0.9498  0.2611 -0.7593
 4085TIP3    H233671   4.494   4.574  13.132 -0.2489 -1.6923  0.3838
 4086TIP3   OH233672   2.352   6.757   0.038 -0.0689 -0.4064  0.3264
 4086TIP3    H133673   2.380   6.794   0.122 -0.0084  3.7660 -1.3103
 4086TIP3    H233674   2.434   6.740  -0.009 -0.1353 -1.4073  0.5463
 4087TIP3   OH233675   4.505   3.019   0.384  0.2277  0.4133  0.0696
 4087TIP3    H133676   4.547   2.955   0.326 -0.1576  0.4780 -0.2817
 4087TIP3    H233677   4.502   3.100   0.332  1.3026  0.9114  0.7330
 4088TIP3   OH233678   5.839   0.478  11.784 -0.0214 -0.1685 -0.0103
 4088TIP3    H133679   5.932   0.469  11.805 -0.0988  2.4825  1.9701
 4088TIP3    H233680   5.837   0.504  11.692  1.1206 -0.8563 -0.2507
 4089TIP3   OH233681   1.197   6.474   0.512  0.2631  0.0912 -0.2113
 4089TIP3    H133682   1.270   6.451   0.568  0.9092 -0.6658 -1.3178
 4089TIP3    H233683   1.192   6.402   0.448  0.8718  1.8444 -2.3701
 4090TIP3   OH233684   1.504   4.968   1.398 -0.3285  0.7026  0.1694
 4090TIP3    H133685   1.559   4.899   1.363 -1.6541 -0.1613 -0.3112
 4090TIP3    H233686   1.551   5.049   1.378  2.3652 -0.0673  2.7600
 4091TIP3   OH233687   1.815   4.267   5.502  0.2146  0.3440  0.4460
 4091TIP3    H133688   1.903   4.297   5.528  1.0592 -1.0919 -0.6401
 4091TIP3    H233689   1.829   4.180   5.465 -1.3565  1.0285 -1.9418
 4092TIP3   OH233690   3.636   6.130   4.970 -0.3060  0.0507 -0.4517
 4092TIP3    H133691   3.608   6.214   5.005 -0.6754 -0.2804  0.0625
 4092TIP3    H233692   3.701   6.098   5.033 -0.5797 -0.3053 -0.3476
 4093TIP3   OH233693   6.541   2.062   2.161  0.4723  0.0137  0.0566
 4093TIP3    H133694   6.588   2.124   2.106  0.5269  1.5301  1.6875
 4093TIP3    H233695   6.530   2.108   2.245 -2.8711 -0.6732  0.1598
 4094TIP3   OH233696   5.056   3.797   1.170 -0.0792  0.4296 -0.5029
 4094TIP3    H133697   4.988   3.831   1.112  0.4640 -0.4258 -1.6892
 4094TIP3    H233698   5.072   3.708   1.139  1.6025  0.6112 -0.2892
 4095TIP3   OH233699   0.080   3.536  15.882 -0.0386  0.2021  0.5483
 4095TIP3    H133700   0.035   3.452  15.894  1.0424 -0.3316  1.0452
 4095TIP3    H233701   0.126   3.527  15.799 -0.9310  0.7925 -0.0198
 4096TIP3   OH233702   4.389   3.313  14.994  0.6192 -0.8258 -0.1063
 4096TIP3    H133703   4.427   3.315  15.081 -0.2958  0.6442  0.2930
 4096TIP3    H233704   4.423   3.232  14.955  1.5856 -1.1599  1.3433
 4097TIP3   OH233705   0.252   0.545  13.685 -0.1611 -0.1180 -0.5712
 4097TIP3    H133706   0.229   0.461  13.645  1.1323 -0.2260 -1.1557
 4097TIP3    H233707   0.287   0.597  13.613  1.4420 -0.0165  0.2323
 4098TIP3   OH233708   2.578   4.517   0.211 -0.2139 -0.1253  0.0420
 4098TIP3    H133709   2.490   4.538   0.241 -1.5112 -2.1697 -1.9739
 4098TIP3    H233710   2.583   4.421   0.216  2.2007 -0.0301  0.7805
 4099TIP3   OH233711   1.349   4.344   2.307 -0.5180 -0.0458 -0.2867
 4099TIP3    H133712   1.317   4.255   2.326  1.1527 -0.4471  0.9551
 4099TIP3    H233713   1.356   4.385   2.393 -1.9759  1.5868 -0.9098
 4100TIP3   OH233714   4.903   0.654  15.457  0.9715 -0.3476  0.6404
 4100TIP3    H133715   4.945   0.707  15.525  3.0592 -1.5256  0.3811
 4100TIP3    H233716   4.976   0.614  15.410 -0.4460 -2.8184  0.3400
 4101TIP3   OH233717   4.612   6.144  17.201  0.1037 -0.3513  0.4417
 4101TIP3    H133718   4.528   6.176  17.233 -0.1036  0.0223 -0.4290
 4101TIP3    H233719   4.589   6.074  17.140  0.4844 -1.0435  1.0746
 4102TIP3   OH233720   0.920   2.842   5.222  0.4563 -0.2172  0.3501
 4102TIP3    H133721   0.858   2.819   5.292 -1.1237  0.1023 -0.8906
 4102TIP3    H233722   0.936   2.760   5.176 -1.7716  0.2251 -1.3969
 4103TIP3   OH233723   3.063   2.977   0.664 -0.0116 -0.4710  0.8390
 4103TIP3    H133724   3.143   2.952   0.711 -0.8300  0.8035  3.0629
 4103TIP3    H233725   3.084   3.062   0.626  0.1301 -0.7703  0.2435
 4104TIP3   OH233726   4.829   2.379   2.671 -0.0018  0.0145  0.4872
 4104TIP3    H133727   4.744   2.358   2.710  1.3162 -3.7786  1.7662
 4104TIP3    H233728   4.823   2.348   2.581  0.0049 -0.1588  0.5471
 4105TIP3   OH233729   5.355   1.297   4.941  0.0888 -0.2799  0.3844
 4105TIP3    H133730   5.425   1.332   4.996  0.9026 -1.4259  0.1362
 4105TIP3    H233731   5.402   1.245   4.875 -0.8281  1.1525 -1.4848
 4106TIP3   OH233732   0.163   3.540   4.117  0.0041 -0.4971  0.3613
 4106TIP3    H133733   0.203   3.498   4.193  0.6361 -0.1216  0.2466
 4106TIP3    H233734   0.157   3.633   4.142  1.3951 -0.1420 -0.5133
 4107TIP3   OH233735   2.698   6.165   0.434 -0.0120 -0.5615 -0.7989
 4107TIP3    H133736   2.727   6.251   0.403 -1.3792  1.0608  2.0179
 4107TIP3    H233737   2.603   6.166   0.422 -0.5566 -0.0606  2.4700
 4108TIP3   OH233738   0.661   5.380  13.967 -0.0977 -0.0851 -0.5523
 4108TIP3    H133739   0.664   5.362  13.873  1.3164 -1.9980 -0.1949
 4108TIP3    H233740   0.645   5.295  14.007 -1.1696  0.7814  0.9441
 4109TIP3   OH233741   0.098   2.393  11.174  0.1378 -0.1926  0.2150
 4109TIP3    H133742   0.071   2.319  11.119 -0.3598  0.3266 -0.2618
 4109TIP3    H233743   0.162   2.440  11.121  1.3808 -0.9500  1.0097
 4110TIP3   OH233744   1.789   4.090  13.607  0.1104  0.6549  0.1108
 4110TIP3    H133745   1.755   4.171  13.645  1.1286  1.4189 -0.5724
 4110TIP3    H233746   1.862   4.118  13.551  0.1713 -0.6823 -0.5147
 4111TIP3   OH233747   2.758   4.017  12.692 -0.3952  0.4859 -0.2578
 4111TIP3    H133748   2.787   3.928  12.673 -1.0789  0.1878  0.0512
 4111TIP3    H233749   2.734   4.014  12.785 -0.8995  0.8594 -0.3744
 4112TIP3   OH233750   6.756   4.202   2.811  0.1544  0.6181 -0.0679
 4112TIP3    H133751   6.672   4.185   2.768  0.0487  0.1207  0.3311
 4112TIP3    H233752   6.732   4.243   2.894  0.3293  0.8524 -0.1305
 4113TIP3   OH233753   4.190   6.527   5.271 -0.4147  0.7960 -0.0492
 4113TIP3    H133754   4.232   6.546   5.187 -0.6001  1.2056 -0.0475
 4113TIP3    H233755   4.263   6.519   5.333 -0.3276  1.3409 -0.0796
 4114TIP3   OH233756   3.009   6.615  14.829 -0.1602 -0.1371  0.5019
 4114TIP3    H133757   3.055   6.542  14.787 -0.3062 -0.6941  1.2943
 4114TIP3    H233758   3.023   6.602  14.923 -2.8864 -0.9722  0.8702
 4115TIP3   OH233759   1.068   5.835   4.125  0.1660  0.7815 -0.0587
 4115TIP3    H133760   1.164   5.833   4.121  0.2471  0.5097  1.3984
 4115TIP3    H233761   1.047   5.928   4.139  0.2817  0.7283  0.5079
 4116TIP3   OH233762   5.181   5.304   3.973  0.0403  0.4742  0.2359
 4116TIP3    H133763   5.135   5.327   3.893  0.0645 -0.7897 -0.1647
 4116TIP3    H233764   5.114   5.264   4.028  0.7149 -2.0223 -0.6241
 4117TIP3   OH233765   2.552   3.490  11.525 -0.3176  0.4081 -0.0914
 4117TIP3    H133766   2.604   3.472  11.447 -0.7744  3.7769 -1.3464
 4117TIP3    H233767   2.567   3.414  11.582  2.5847 -0.7186 -2.1029
 4118TIP3   OH233768   6.145   0.853   3.751  0.2103  0.2908 -0.0975
 4118TIP3    H133769   6.150   0.794   3.826  1.1939 -0.1213 -0.4622
 4118TIP3    H233770   6.057   0.890   3.754 -0.0502 -0.3838  0.7542
 4119TIP3   OH233771   6.020   1.040  14.075 -0.0973  0.2274 -0.2255
 4119TIP3    H133772   5.994   0.952  14.101 -0.0176 -0.3576 -1.9860
 4119TIP3    H233773   6.087   1.065  14.138 -1.0068 -0.4400  1.0598
 4120TIP3   OH233774   0.739   3.138  12.155  0.2655 -0.3103 -0.2358
 4120TIP3    H133775   0.787   3.161  12.235 -1.9023  0.2379  1.0144
 4120TIP3    H233776   0.710   3.223  12.120  0.1342 -0.6282 -0.9067
 4121TIP3   OH233777   4.970   5.948   4.852  0.2003  0.1076  0.0187
 4121TIP3    H133778   5.030   5.888   4.807  0.6571  0.4969  0.0959
 4121TIP3    H233779   4.990   6.034   4.814  2.0589  0.8242  2.3519
 4122TIP3   OH233780   0.611   6.012   0.515  0.0593 -0.0897  0.1067
 4122TIP3    H133781   0.673   5.953   0.473  0.0771  0.6547 -0.9590
 4122TIP3    H233782   0.627   6.001   0.609  0.9500 -0.8084 -0.1144
 4123TIP3   OH233783   4.916   2.800  11.372  0.3209  0.1893  0.4790
 4123TIP3    H133784   4.902   2.719  11.323  1.9507  0.6677 -0.8666
 4123TIP3    H233785   4.888   2.779  11.461 -0.4371 -1.4619 -0.1044
 4124TIP3   OH233786   2.765   5.907   6.289  0.0903  0.1646  0.0753
 4124TIP3    H133787   2.673   5.890   6.307 -0.0265 -0.5414 -1.1270
 4124TIP3    H233788   2.782   5.991   6.332 -0.7455 -0.3425  1.4557
 4125TIP3   OH233789   4.116   5.172   1.869  0.4612  0.0971 -0.2148
 4125TIP3    H133790   4.190   5.224   1.903 -0.4853  0.2429  1.8068
 4125TIP3    H233791   4.075   5.229   1.804  2.0358  0.0523 -1.2965
 4126TIP3   OH233792   6.316   4.917   4.154 -0.9091 -0.0508 -0.0917
 4126TIP3    H133793   6.373   4.987   4.187 -0.8932 -1.0245  2.0606
 4126TIP3    H233794   6.320   4.927   4.058  2.8985 -0.0924 -0.0904
 4127TIP3   OH233795   1.877   3.852  11.914  0.1153 -0.1383  0.0008
 4127TIP3    H133796   1.919   3.861  11.999 -0.8712  2.2123  0.3153
 4127TIP3    H233797   1.809   3.919  11.914 -0.7200 -0.8989 -2.1853
 4128TIP3   OH233798   3.128   4.961  16.751  0.7432  0.1804 -0.0782
 4128TIP3    H133799   3.143   5.028  16.818  1.5610  0.0247 -0.0996
 4128TIP3    H233800   3.065   5.001  16.691 -0.6678  0.0103  1.2231
 4129TIP3   OH233801   4.491   4.066   2.135  0.3753  0.2466 -0.0311
 4129TIP3    H133802   4.466   4.090   2.046  2.9769  0.5424 -0.7424
 4129TIP3    H233803   4.453   4.136   2.189 -0.1320  0.7702 -1.0291
 4130TIP3   OH233804   3.492   3.166   1.832 -0.0004 -0.5424 -0.4183
 4130TIP3    H133805   3.492   3.162   1.927  0.3828 -0.0936 -0.3958
 4130TIP3    H233806   3.569   3.116   1.806  1.8307  2.0658 -0.3399
 4131TIP3   OH233807   1.831   6.498   5.328 -0.2992  0.1867  0.3464
 4131TIP3    H133808   1.880   6.576   5.356 -0.2687 -0.1811  1.3292
 4131TIP3    H233809   1.837   6.438   5.401  1.2196 -1.4988 -1.0734
 4132TIP3   OH233810   3.694   1.544   1.510 -0.0759 -0.1107  0.6645
 4132TIP3    H133811   3.618   1.597   1.534 -0.6404 -0.4729 -0.2921
 4132TIP3    H233812   3.742   1.597   1.446 -0.0135 -0.2641  0.5833
 4133TIP3   OH233813   5.782   3.489  11.351 -0.5949 -0.3307  0.4596
 4133TIP3    H133814   5.756   3.512  11.441  0.3495  1.2286  0.3674
 4133TIP3    H233815   5.723   3.540  11.296  0.9297  1.3061  0.2473
 4134TIP3   OH233816   0.525   6.615  15.312  0.7621 -0.5350  0.2112
 4134TIP3    H133817   0.564   6.585  15.230  1.2455  0.4083  0.0870
 4134TIP3    H233818   0.450   6.557  15.325  1.6457 -1.7794 -0.0310
 4135TIP3   OH233819   2.774   6.368   2.736  0.4371 -0.4057 -0.2512
 4135TIP3    H133820   2.760   6.276   2.759 -0.5784 -0.2829 -0.3631
 4135TIP3    H233821   2.749   6.375   2.644  1.5538 -0.2368 -0.5581
 4136TIP3   OH233822   1.194   1.134  13.607 -0.1343 -0.7591  0.1905
 4136TIP3    H133823   1.131   1.077  13.563 -0.5236 -0.9595  0.9776
 4136TIP3    H233824   1.175   1.122  13.701  1.4725 -1.2897  0.4773
 4137TIP3   OH233825   0.527   3.151  13.629  0.2482 -0.2347 -0.3308
 4137TIP3    H133826   0.459   3.083  13.627  0.4929 -0.5273  0.6359
 4137TIP3    H233827   0.588   3.125  13.560 -0.1150 -0.5194 -0.5492
 4138TIP3   OH233828   1.100   4.683   3.670 -0.3912  0.1658 -0.4921
 4138TIP3    H133829   1.106   4.777   3.655  0.6303  0.2018  0.0311
 4138TIP3    H233830   1.189   4.651   3.656 -0.5391 -0.5818  0.1889
 4139TIP3   OH233831   2.715   0.526  10.895 -0.2352  0.4795  0.0246
 4139TIP3    H133832   2.714   0.487  10.808 -1.6035  0.0456  0.2066
 4139TIP3    H233833   2.655   0.600  10.889 -0.6378  0.2134  0.7003
 4140TIP3   OH233834   5.108   0.848   0.271 -0.3828  0.4139  0.0988
 4140TIP3    H133835   5.155   0.925   0.302 -1.1636  1.6329 -1.5858
 4140TIP3    H233836   5.017   0.863   0.295 -0.7683  0.7166 -1.4542
 4141TIP3   OH233837   6.294   3.789   4.717  0.5219 -0.0121 -0.5683
 4141TIP3    H133838   6.263   3.699   4.706 -0.6363  0.5412 -2.2097
 4141TIP3    H233839   6.219   3.836   4.754  0.9870  0.3742 -0.1025
 4142TIP3   OH233840   1.587   5.462  13.918 -0.1199 -0.0223 -0.2220
 4142TIP3    H133841   1.496   5.475  13.893 -0.7605 -0.0312  1.9731
 4142TIP3    H233842   1.608   5.536  13.975  1.2634 -0.0206 -0.6778
 4143TIP3   OH233843   1.637   6.424  10.716  0.0057  0.3487  0.0934
 4143TIP3    H133844   1.615   6.343  10.670  1.2008  0.8730 -1.5299
 4143TIP3    H233845   1.721   6.406  10.757  0.5269  0.8973 -0.7063
 4144TIP3   OH233846   5.358   2.184  12.122 -0.2382  0.1230 -0.2023
 4144TIP3    H133847   5.341   2.191  12.216 -0.7641  2.0568 -0.3965
 4144TIP3    H233848   5.415   2.108  12.114  2.4705  1.6944  2.0768
 4145TIP3   OH233849   4.663   3.177   5.634 -0.0731  0.5441  0.3408
 4145TIP3    H133850   4.654   3.190   5.728 -0.7498  0.9044  0.2305
 4145TIP3    H233851   4.698   3.088   5.626  0.7532  0.7948  0.9525
 4146TIP3   OH233852   3.211   4.039  11.499 -0.2287  0.0847  0.5094
 4146TIP3    H133853   3.241   4.097  11.429  0.7181 -0.3715  0.5249
 4146TIP3    H233854   3.175   4.097  11.565  0.1519  0.6169  0.2553
 4147TIP3   OH233855   5.525   3.460   4.833  0.3422  0.0795  0.2110
 4147TIP3    H133856   5.586   3.531   4.815 -0.5483  1.5278  2.4905
 4147TIP3    H233857   5.571   3.404   4.896 -0.4387  0.9263  1.5805
 4148TIP3   OH233858   5.809   0.871   3.113 -0.4347 -0.5928  0.3700
 4148TIP3    H133859   5.790   0.810   3.184  1.0068 -0.6759  0.7094
 4148TIP3    H233860   5.820   0.956   3.156 -1.0276 -0.3555  0.0641
 4149TIP3   OH233861   1.266   1.621   4.736  0.0272 -0.2143 -0.1099
 4149TIP3    H133862   1.200   1.643   4.802  1.7982  1.9350  1.0966
 4149TIP3    H233863   1.224   1.645   4.653 -0.9993  0.3746  0.5476
 4150TIP3   OH233864   1.274   4.779  12.833  0.5407  0.2560 -0.2735
 4150TIP3    H133865   1.252   4.765  12.925  0.1106 -1.5533 -0.6022
 4150TIP3    H233866   1.357   4.826  12.835  0.5478  0.2339  1.0313
 4151TIP3   OH233867   0.425   3.548  12.084  0.2363  0.1183  0.1926
 4151TIP3    H133868   0.371   3.476  12.052  0.7889 -0.3917  0.3890
 4151TIP3    H233869   0.393   3.563  12.173 -0.0480  0.2843  0.0626
 4152TIP3   OH233870   0.272   5.040  14.533  0.1054  0.8501 -0.2577
 4152TIP3    H133871   0.224   5.117  14.562 -2.7241 -0.2891 -1.6088
 4152TIP3    H233872   0.280   5.050  14.439 -0.0239 -0.3458 -0.4099
 4153TIP3   OH233873   2.041   6.484   1.132  0.0974  0.5253  0.2090
 4153TIP3    H133874   2.130   6.457   1.111  0.5533  0.6697  1.8506
 4153TIP3    H233875   2.029   6.460   1.224 -1.3118  1.1475  0.2200
 4154TIP3   OH233876   6.663   3.393  11.388  0.4655  0.1243 -0.7407
 4154TIP3    H133877   6.588   3.335  11.399 -0.8519  1.8449 -0.1955
 4154TIP3    H233878   6.738   3.342  11.418 -0.4486 -1.6459 -1.2970
 4155TIP3   OH233879   5.963   1.286   3.032  0.2438  0.1652 -0.2134
 4155TIP3    H133880   5.990   1.213   2.976  1.3009  0.6655 -0.3829
 4155TIP3    H233881   5.878   1.312   2.997 -1.3721 -2.4983  1.3414
 4156TIP3   OH233882   2.178   1.853  15.124 -0.0318  0.4817 -0.2951
 4156TIP3    H133883   2.220   1.918  15.179 -0.8881 -0.2632  1.3017
 4156TIP3    H233884   2.249   1.797  15.093  0.5007  1.1241 -0.2375
 4157TIP3   OH233885   4.126   2.776  13.827 -0.0277 -0.0634 -0.0887
 4157TIP3    H133886   4.059   2.712  13.851  0.2932 -0.5960 -0.5821
 4157TIP3    H233887   4.079   2.841  13.773 -0.3547  0.1331  0.4244
 4158TIP3   OH233888   2.658   1.509   0.015  0.6337  0.1105  0.4456
 4158TIP3    H133889   2.649   1.486   0.107 -1.5213  0.9586  0.5107
 4158TIP3    H233890   2.598   1.583   0.003 -1.6812 -1.9867 -2.2861
 4159TIP3   OH233891   6.757   1.337   5.778 -0.1537 -0.4293 -0.0157
 4159TIP3    H133892   6.735   1.292   5.859 -1.3821  0.7201  0.3361
 4159TIP3    H233893   6.822   1.281   5.736  1.8863 -0.2016  2.5909
 4160TIP3   OH233894   0.661   4.420   2.627  0.4139 -0.5277  0.1413
 4160TIP3    H133895   0.643   4.492   2.688  1.4961 -0.1893  0.0891
 4160TIP3    H233896   0.580   4.369   2.625 -0.2007  0.4052  0.5703
 4161TIP3   OH233897   4.597   6.351  13.946  0.8150 -0.1611  0.2662
 4161TIP3    H133898   4.540   6.372  13.872 -0.2588 -0.8587  0.8605
 4161TIP3    H233899   4.685   6.352  13.910  0.3509 -0.0113 -0.9077
 4162TIP3   OH233900   1.156   2.549  11.696  0.0612  0.8552 -0.2191
 4162TIP3    H133901   1.159   2.644  11.682  0.3969  1.2165  1.9585
 4162TIP3    H233902   1.065   2.525  11.679 -0.1905  1.6918 -0.1143
 4163TIP3   OH233903   1.309   0.342   0.831  0.0102 -0.5226  0.0685
 4163TIP3    H133904   1.258   0.411   0.872 -0.0914  0.3753 -1.5078
 4163TIP3    H233905   1.257   0.263   0.845 -0.3009 -0.1506  1.1155
 4164TIP3   OH233906   6.185   5.052   0.641  0.1179  0.1452 -0.2444
 4164TIP3    H133907   6.273   5.086   0.660 -0.8911  2.4254  0.7582
 4164TIP3    H233908   6.146   5.038   0.727 -0.5372 -0.7513 -0.6762
 4165TIP3   OH233909   0.831   2.810  12.972 -0.0230 -0.3422  0.1135
 4165TIP3    H133910   0.913   2.780  13.013 -1.6808 -1.4583  2.9443
 4165TIP3    H233911   0.809   2.742  12.909  0.7969 -0.4448 -0.0748
 4166TIP3   OH233912   5.519   2.963  12.611 -0.1653 -0.0462  0.1655
 4166TIP3    H133913   5.439   3.005  12.643 -1.0023 -0.0586 -1.7367
 4166TIP3    H233914   5.509   2.871  12.636 -1.5772 -0.3823 -1.3674
 4167TIP3   OH233915   4.414   0.917  14.875 -0.3574 -0.3441 -0.0477
 4167TIP3    H133916   4.497   0.909  14.922  0.3256  0.5611 -1.0326
 4167TIP3    H233917   4.366   0.985  14.922 -1.2024 -1.8830  1.4000
 4168TIP3   OH233918   3.431   3.535   4.908  0.0476 -0.7384 -0.5745
 4168TIP3    H133919   3.482   3.537   4.989  2.1611 -0.8188 -1.8394
 4168TIP3    H233920   3.467   3.462   4.858  0.1886  0.5317 -2.4374
 4169TIP3   OH233921   2.059   5.780   4.263 -0.1542 -0.0820  0.3721
 4169TIP3    H133922   2.135   5.735   4.302  0.2214 -1.5806 -1.8838
 4169TIP3    H233923   2.070   5.766   4.169 -0.9488  3.4369 -0.3504
 4170TIP3   OH233924   0.967   2.411  11.409 -0.0726  0.8984 -0.1980
 4170TIP3    H133925   0.932   2.424  11.497  0.2493  0.5820 -0.0241
 4170TIP3    H233926   0.925   2.479  11.357 -2.8059 -0.9017 -0.5359
 4171TIP3   OH233927   0.031   5.969  12.490 -0.0719 -0.1516 -0.0392
 4171TIP3    H133928   0.013   6.018  12.410  0.3398 -0.0690 -0.0796
 4171TIP3    H233929  -0.042   5.907  12.497  0.1346 -0.4763 -0.7284
 4172TIP3   OH233930   1.806   2.679  16.311  0.4898 -0.0036  0.5429
 4172TIP3    H133931   1.786   2.620  16.238 -0.6272 -0.0023  0.8352
 4172TIP3    H233932   1.721   2.698  16.350  0.9059  1.2946  0.8458
 4173TIP3   OH233933   0.364   1.111   2.709 -0.0904 -0.2587  0.6368
 4173TIP3    H133934   0.417   1.097   2.630 -1.1706 -1.7541  0.1287
 4173TIP3    H233935   0.274   1.104   2.679 -0.5537  0.4625  1.7946
 4174TIP3   OH233936   0.191   3.626  11.020 -0.3612 -0.3937 -0.0260
 4174TIP3    H133937   0.151   3.570  11.087 -0.2548  0.6076  0.9127
 4174TIP3    H233938   0.234   3.565  10.960 -1.3449 -1.3665  0.2367
 4175TIP3   OH233939   3.317   5.749   6.360 -0.0985  0.1554  0.4535
 4175TIP3    H133940   3.293   5.666   6.321  3.3212 -1.0715  0.6029
 4175TIP3    H233941   3.353   5.726   6.446  0.4088  1.8309  0.7337
 4176TIP3   OH233942   6.097   2.172   4.335 -0.4027 -0.3311  0.8475
 4176TIP3    H133943   6.023   2.129   4.291  1.9867 -1.3637 -2.5073
 4176TIP3    H233944   6.083   2.266   4.318 -1.8743 -0.3280  1.9129
 4177TIP3   OH233945   1.427   4.192   2.702  0.3799 -0.3749  0.3645
 4177TIP3    H133946   1.448   4.285   2.705  1.4267 -0.4641 -1.9700
 4177TIP3    H233947   1.359   4.185   2.634  0.5846 -1.3468  0.2477
 4178TIP3   OH233948   6.567   1.443  12.439 -0.0268 -0.2118  0.1985
 4178TIP3    H133949   6.536   1.406  12.522  0.1381 -0.9814 -0.0691
 4178TIP3    H233950   6.499   1.505  12.413  0.2325  0.5288  1.2329
 4179TIP3   OH233951   3.508   1.664   6.088 -0.7363  0.0461  0.1926
 4179TIP3    H133952   3.570   1.663   6.015 -1.9862 -2.6310 -0.9578
 4179TIP3    H233953   3.491   1.757   6.103  2.2712  0.8330 -0.4755
 4180TIP3   OH233954   3.620   4.686   3.212 -0.0504  0.0621 -0.0937
 4180TIP3    H133955   3.647   4.734   3.290 -0.7488 -0.2523  0.3529
 4180TIP3    H233956   3.642   4.595   3.231 -2.5885 -0.4359  0.8826
 4181TIP3   OH233957   3.537   5.121  11.920 -0.3531 -0.0027 -0.7377
 4181TIP3    H133958   3.605   5.087  11.978  0.6504  1.1652 -1.2028
 4181TIP3    H233959   3.534   5.215  11.938 -1.9600 -0.0461 -0.6250
 4182TIP3   OH233960   0.165   4.383   2.802  0.3409  0.7777  0.1683
 4182TIP3    H133961   0.130   4.471   2.796 -1.3063  0.3319  2.0467
 4182TIP3    H233962   0.088   4.326   2.800  0.9582 -0.3506  2.8282
 4183TIP3   OH233963   5.658   6.217   0.266  0.1620 -0.3867 -0.1616
 4183TIP3    H133964   5.662   6.127   0.234  2.2457  0.3119 -2.1084
 4183TIP3    H233965   5.574   6.250   0.234  0.7688 -0.7120 -2.2368
 4184TIP3   OH233966   4.589   3.062   3.300 -0.3409  0.2594  0.4506
 4184TIP3    H133967   4.608   3.152   3.271  4.0814 -0.7265 -0.4758
 4184TIP3    H233968   4.562   3.017   3.219  0.7349  0.0491  0.1982
 4185TIP3   OH233969   0.566   1.431  10.750 -1.0103  0.1137  0.3304
 4185TIP3    H133970   0.531   1.495  10.811 -2.1572  0.3024 -0.4945
 4185TIP3    H233971   0.512   1.440  10.672  0.5125 -0.0169 -0.7886
 4186TIP3   OH233972   4.617   3.147  12.754  0.2496  0.1157 -0.3514
 4186TIP3    H133973   4.602   3.134  12.847 -0.4881 -0.7578 -0.5841
 4186TIP3    H233974   4.545   3.101  12.710 -1.8794  3.8967 -1.3059
 4187TIP3   OH233975   1.837   0.948   3.227  0.6673 -0.0586  0.6713
 4187TIP3    H133976   1.903   1.011   3.256 -0.0572  0.0477  2.1661
 4187TIP3    H233977   1.756   0.999   3.220  0.2412 -0.6560  1.1286
 4188TIP3   OH233978   4.376   1.671   2.501 -0.6198 -0.1455 -0.7123
 4188TIP3    H133979   4.363   1.766   2.504 -1.5834 -0.2408 -1.2799
 4188TIP3    H233980   4.317   1.642   2.431 -0.5128 -1.1933 -0.3745
 4189TIP3   OH233981   1.498   6.113   4.367 -0.4099  0.1140 -0.0056
 4189TIP3    H133982   1.441   6.123   4.443  1.9858 -1.6107  2.2014
 4189TIP3    H233983   1.540   6.198   4.356  0.0147  0.0912  1.3251
 4190TIP3   OH233984   5.564   4.084  15.377  0.1756  0.0787  0.7927
 4190TIP3    H133985   5.530   4.000  15.408  0.9896  0.0823  1.7407
 4190TIP3    H233986   5.535   4.089  15.286 -2.1347 -0.0102  1.4589
 4191TIP3   OH233987   4.974   1.903   1.766 -0.6013  0.4527  0.0644
 4191TIP3    H133988   4.934   1.943   1.688 -1.8923  0.8724  0.9016
 4191TIP3    H233989   5.032   1.836   1.731 -0.0753  1.5682 -1.3034
 4192TIP3   OH233990   4.665   4.242   0.423  0.2740  0.4349  0.5744
 4192TIP3    H133991   4.662   4.157   0.468 -1.0543 -0.0555 -0.3667
 4192TIP3    H233992   4.695   4.303   0.489 -0.5827 -0.4507  1.8297
 4193TIP3   OH233993   4.976   2.271  11.053  0.5845  0.2298 -0.2568
 4193TIP3    H133994   5.022   2.343  11.009  0.9033 -0.3151 -0.8389
 4193TIP3    H233995   4.891   2.267  11.010  0.6260  0.1669 -0.3350
 4194TIP3   OH233996   5.745   4.933  17.218 -0.1656  0.1889 -0.2475
 4194TIP3    H133997   5.816   4.877  17.186 -0.9595 -0.0230 -1.7105
 4194TIP3    H233998   5.782   4.977  17.295  2.1035  1.2801 -1.8559
 4195TIP3   OH233999   5.221   3.365  13.700  0.3181 -0.1518  0.0647
 4195TIP3    H134000   5.307   3.395  13.671  0.8545 -0.6574  1.0666
 4195TIP3    H234001   5.193   3.431  13.764 -1.0255  1.1655 -1.7934
 4196TIP3   OH234002   0.821   4.840  14.088  0.5222  0.6119 -0.1256
 4196TIP3    H134003   0.780   4.850  14.002 -1.0722  0.1761  0.5353
 4196TIP3    H234004   0.902   4.791  14.071  0.1802  0.4379 -1.3573
 4197TIP3   OH234005   0.784   1.889   4.221  0.1661  0.2799 -0.1438
 4197TIP3    H134006   0.791   1.807   4.270  0.7774  1.2178  1.4187
 4197TIP3    H234007   0.737   1.948   4.280 -0.1439  1.1142 -1.1881
 4198TIP3   OH234008   3.285   4.501  15.351 -0.2840 -0.7959 -0.0008
 4198TIP3    H134009   3.289   4.406  15.338 -1.0137 -0.8082 -0.1720
 4198TIP3    H234010   3.364   4.535  15.309  0.0553 -1.3411  0.1898
 4199TIP3   OH234011   6.520   4.691  12.068 -0.3717  0.4866 -0.1885
 4199TIP3    H134012   6.606   4.649  12.070 -0.6620 -0.0965  0.4226
 4199TIP3    H234013   6.525   4.759  12.135 -0.1589  0.9106 -0.6350
 4200TIP3   OH234014   4.098   0.821   4.498  0.1404 -0.4702  0.5475
 4200TIP3    H134015   4.072   0.743   4.547  0.1752 -0.5060  0.5091
 4200TIP3    H234016   4.123   0.788   4.411 -0.6177 -0.3160  0.2659
 4201TIP3   OH234017   6.126   1.949  12.893 -0.0891 -0.2741 -0.0686
 4201TIP3    H134018   6.107   1.910  12.808 -0.4458 -1.1494  0.3941
 4201TIP3    H234019   6.049   2.002  12.913  0.2237  0.3561 -0.5208
 4202TIP3   OH234020   6.055   5.372   2.580  0.0636 -0.3640  0.2541
 4202TIP3    H134021   6.024   5.364   2.490  1.7499 -0.2882 -0.3783
 4202TIP3    H234022   5.975   5.380   2.633 -1.0504 -2.3756 -1.0055
 4203TIP3   OH234023   6.648   2.661   3.088 -0.0381 -0.2960  0.0343
 4203TIP3    H134024   6.590   2.595   3.049 -2.4571  1.0253  1.1845
 4203TIP3    H234025   6.633   2.653   3.182  0.8314  0.8408  0.2841
 4204TIP3   OH234026   2.769   5.626   5.046  0.3196  0.0306 -0.1953
 4204TIP3    H134027   2.761   5.715   5.012  0.3030 -0.1193 -0.5890
 4204TIP3    H234028   2.686   5.584   5.023  0.6031 -0.2935 -0.6286
 4205TIP3   OH234029   4.923   3.893  14.481 -0.3416 -0.0564  0.1986
 4205TIP3    H134030   4.955   3.973  14.523  0.8733  0.7719 -2.1032
 4205TIP3    H234031   4.956   3.822  14.536  0.7966  0.9636  0.8936
 4206TIP3   OH234032   2.299   1.587  13.754  0.3902 -0.1258 -0.0195
 4206TIP3    H134033   2.288   1.512  13.695  1.2088 -0.1749 -0.1278
 4206TIP3    H234034   2.389   1.578  13.787  0.4767  0.7794  0.0129
 4207TIP3   OH234035   5.719   5.019  15.885 -0.3369  0.6609 -0.3213
 4207TIP3    H134036   5.804   4.987  15.856  0.2399 -0.0019  1.8999
 4207TIP3    H234037   5.658   4.987  15.819  0.9354 -0.2423 -1.1128
 4208TIP3   OH234038   5.860   0.886   4.787 -0.2170  0.7198  0.0709
 4208TIP3    H134039   5.873   0.970   4.743  1.1333 -0.3920 -1.8547
 4208TIP3    H234040   5.772   0.858   4.760  0.4502  0.2220 -1.8357
 4209TIP3   OH234041   3.677   2.802   5.316 -0.0616 -0.7994 -0.0489
 4209TIP3    H134042   3.720   2.721   5.343  1.9386  0.0762 -0.4743
 4209TIP3    H234043   3.673   2.855   5.396 -0.1521 -0.7807 -0.0650
 4210TIP3   OH234044   0.308   4.693  15.583  0.9425  0.4016  0.3252
 4210TIP3    H134045   0.216   4.706  15.560  0.3985 -1.1766  1.4921
 4210TIP3    H234046   0.348   4.662  15.501  0.0769 -0.4841  0.2161
 4211TIP3   OH234047   1.499   0.910  13.970 -0.7832  0.4272 -0.5615
 4211TIP3    H134048   1.472   0.930  13.881  0.1223 -0.1807 -0.9863
 4211TIP3    H234049   1.572   0.969  13.988  0.4293 -0.8699 -1.0148
 4212TIP3   OH234050   3.711   1.398  11.551  0.3016 -0.3384  0.3546
 4212TIP3    H134051   3.710   1.303  11.540 -0.0430 -0.5003  1.5983
 4212TIP3    H234052   3.795   1.426  11.515 -0.4423 -0.8355 -1.9413
 4213TIP3   OH234053   6.042   3.813   4.803 -0.2746  0.4355 -0.0478
 4213TIP3    H134054   6.043   3.718   4.800 -1.8353  0.4132 -2.6796
 4213TIP3    H234055   6.011   3.834   4.891  0.9030 -1.4106  0.8616
 4214TIP3   OH234056   5.964   1.709   2.406 -0.6734  0.0187 -0.3094
 4214TIP3    H134057   5.899   1.779   2.394 -1.7799 -0.4359  2.4114
 4214TIP3    H234058   5.946   1.674   2.493  3.3212 -0.0739  0.6479
 4215TIP3   OH234059   1.617   4.157  15.452  0.2316 -0.5798 -0.0874
 4215TIP3    H134060   1.539   4.172  15.398  0.1900 -2.8279 -0.7973
 4215TIP3    H234061   1.656   4.078  15.414  2.1780 -0.2033  1.0277
 4216TIP3   OH234062   3.306   4.244  17.051  0.1156 -0.1254  0.5935
 4216TIP3    H134063   3.317   4.279  16.962  1.1493  2.5949  1.6730
 4216TIP3    H234064   3.363   4.298  17.105 -0.7024 -1.5001  2.9980
 4217TIP3   OH234065   1.881   1.159   4.205  0.3249  0.3193 -0.1378
 4217TIP3    H134066   1.849   1.103   4.276 -0.2687 -0.0827 -0.7094
 4217TIP3    H234067   1.896   1.099   4.132  2.1408  0.5449  0.0182
 4218TIP3   OH234068   1.880   4.166   3.305  0.0630  0.4271 -0.2012
 4218TIP3    H134069   1.976   4.162   3.304  0.0492 -0.9574  1.0646
 4218TIP3    H234070   1.855   4.134   3.218  0.7386 -0.1580 -0.1932
 4219TIP3   OH234071   5.426   5.762   0.204  0.4869  0.2726  0.4619
 4219TIP3    H134072   5.367   5.692   0.176 -1.0741  1.5528  0.4135
 4219TIP3    H234073   5.513   5.731   0.180 -0.3137 -0.9223 -1.0557
 4220TIP3   OH234074   4.900   3.139  12.707 -0.5951 -0.3424  0.7208
 4220TIP3    H134075   4.808   3.121  12.723 -0.8518  0.9492  0.7734
 4220TIP3    H234076   4.904   3.232  12.686  0.0190 -1.1570 -4.2110
 4221TIP3   OH234077   0.005   1.179  12.335  0.4298 -0.1039 -0.5549
 4221TIP3    H134078  -0.001   1.236  12.411 -2.3086  0.8765 -1.3969
 4221TIP3    H234079   0.057   1.105  12.365  0.9137  1.0708  1.7146
 4222TIP3   OH234080   4.213   6.166  16.862 -0.1209  0.5671  0.3256
 4222TIP3    H134081   4.144   6.161  16.796 -1.0175  0.5357  1.2439
 4222TIP3    H234082   4.272   6.094  16.840  0.1510  1.1895 -1.0448
 4223TIP3   OH234083   3.761   6.189  11.981 -0.1772  0.7624 -0.8101
 4223TIP3    H134084   3.815   6.207  12.057 -1.3851  1.3733 -0.0676
 4223TIP3    H234085   3.788   6.101  11.952  0.6687  0.7535 -0.0218
 4224TIP3   OH234086   6.083   3.863   3.210  0.0442  0.2784  0.4391
 4224TIP3    H134087   6.045   3.948   3.188 -2.7214 -0.2249  2.6600
 4224TIP3    H234088   6.095   3.819   3.125 -1.6764  1.6169 -0.5554
 4225TIP3   OH234089   0.434   2.746  16.599  0.2990  0.1281 -0.0171
 4225TIP3    H134090   0.485   2.777  16.674 -1.7075 -0.0524  1.4981
 4225TIP3    H234091   0.447   2.652  16.598 -0.6594 -0.0309  0.9210
 4226TIP3   OH234092   5.743   4.366  11.856 -0.5167 -0.2151  0.7343
 4226TIP3    H134093   5.773   4.443  11.905 -0.3267  1.0581 -1.2787
 4226TIP3    H234094   5.671   4.398  11.802  1.1888 -0.7374 -2.0667
 4227TIP3   OH234095   3.516   0.899  14.460  0.1538  0.0461  0.7907
 4227TIP3    H134096   3.520   0.838  14.534 -2.1887 -0.8087  0.2844
 4227TIP3    H234097   3.445   0.866  14.405  0.1432  2.1078 -0.5497
 4228TIP3   OH234098   4.873   5.624   5.305 -0.1415  0.0947  0.0974
 4228TIP3    H134099   4.796   5.674   5.333  1.4193  2.0579  1.1856
 4228TIP3    H234100   4.940   5.691   5.290  2.2916 -1.6707  2.2681
 4229TIP3   OH234101   3.025   5.885   4.127  0.4368  0.1917  0.1046
 4229TIP3    H134102   3.097   5.905   4.187 -0.7292 -2.1964  2.4703
 4229TIP3    H234103   3.053   5.804   4.083 -0.0295  0.2570 -0.3200
 4230TIP3   OH234104   0.445   1.394  15.969 -0.7209  0.8611  0.3812
 4230TIP3    H134105   0.369   1.423  16.020 -0.8008  0.4980  0.4699
 4230TIP3    H234106   0.450   1.300  15.985  0.0551  0.9610  0.7870
 4231TIP3   OH234107   5.110   2.489  10.991  0.6056 -0.4181  0.5883
 4231TIP3    H134108   5.145   2.513  10.905  0.8868 -2.4543  0.0836
 4231TIP3    H234109   5.147   2.553  11.051 -0.5308  1.7959 -0.9357
 4232TIP3   OH234110   0.805   2.797   1.588  0.1094  0.0116  0.6114
 4232TIP3    H134111   0.824   2.871   1.530  1.4265 -1.4359 -0.9399
 4232TIP3    H234112   0.716   2.771   1.565  0.3705 -0.1091 -0.3023
 4233TIP3   OH234113   6.249   5.087  14.430 -0.8033 -0.2529  0.0227
 4233TIP3    H134114   6.196   5.062  14.506 -0.6651 -0.5490  0.0231
 4233TIP3    H234115   6.339   5.080  14.460 -0.7701  0.5321  0.1072
 4234TIP3   OH234116   5.987   3.652   1.382  0.5726 -0.1900  0.7662
 4234TIP3    H134117   5.915   3.705   1.347  1.0022  0.0552  0.2381
 4234TIP3    H234118   6.041   3.631   1.305 -0.1888 -2.3576  0.7487
 4235TIP3   OH234119   4.386   1.995  11.350  0.0432 -0.5149 -0.2113
 4235TIP3    H134120   4.370   2.060  11.282 -2.6967  1.2859  1.9097
 4235TIP3    H234121   4.355   1.913  11.313  1.6677 -0.2803 -2.2313
 4236TIP3   OH234122   2.873   1.695  10.680  0.0230 -0.2195  0.1342
 4236TIP3    H134123   2.779   1.713  10.677 -0.1727 -1.1180  0.6110
 4236TIP3    H234124   2.880   1.602  10.662  0.7527 -0.3478  1.0242
 4237TIP3   OH234125   3.046   3.452  10.775  0.6420 -0.2807  0.3028
 4237TIP3    H134126   3.108   3.503  10.723 -0.1423  1.1709  0.7369
 4237TIP3    H234127   2.960   3.472  10.737  0.2242 -0.4616  1.1194
 4238TIP3   OH234128   0.528   2.133   3.312 -0.5949  0.3059 -0.3792
 4238TIP3    H134129   0.580   2.172   3.242  0.4553  0.4366  0.4667
 4238TIP3    H234130   0.439   2.132   3.277 -0.1472  0.6940 -1.5801
 4239TIP3   OH234131   6.040   5.087  16.452  0.3189  0.2037 -0.3593
 4239TIP3    H134132   6.009   5.101  16.541 -0.3593  0.0218 -0.5597
 4239TIP3    H234133   6.104   5.157  16.437  2.7348 -1.4944  1.3016
 4240TIP3   OH234134   2.946   0.753   4.571  0.3034 -0.9166  0.2267
 4240TIP3    H134135   2.946   0.669   4.527  0.5385 -1.5805  1.4360
 4240TIP3    H234136   2.923   0.732   4.662  0.6258  0.2891  0.6044
 4241TIP3   OH234137   1.310   2.894   0.297  0.4057 -0.0765  0.3486
 4241TIP3    H134138   1.379   2.960   0.292 -0.5762  0.9021 -1.8944
 4241TIP3    H234139   1.332   2.831   0.229 -1.5659  1.0282 -1.4292
 4242TIP3   OH234140   6.315   0.431  14.018 -0.0986  0.8055 -0.4843
 4242TIP3    H134141   6.306   0.499  14.085 -1.3673 -0.0176  0.2213
 4242TIP3    H234142   6.274   0.468  13.940  0.5432  1.4100 -0.5399
 4243TIP3   OH234143   1.902   1.585   5.178  0.6988 -0.2522  0.0823
 4243TIP3    H134144   1.865   1.497   5.175  0.3815 -0.1200 -0.0168
 4243TIP3    H234145   1.950   1.588   5.260 -0.4204 -0.0840  0.7524
 4244TIP3   OH234146   2.352   2.072  10.928  0.1445  0.0026 -0.0434
 4244TIP3    H134147   2.327   2.112  10.845 -2.1015 -2.4935 -0.7241
 4244TIP3    H234148   2.399   1.992  10.904  2.0861  0.6994  1.2016
 4245TIP3   OH234149   0.393   3.314   4.686  0.0150 -0.1685  0.0801
 4245TIP3    H134150   0.336   3.241   4.663  0.7100 -0.8282  0.3792
 4245TIP3    H234151   0.460   3.315   4.617  0.5331 -0.4072  0.5729
 4246TIP3   OH234152   0.166   2.924  13.320 -0.4564  0.6665 -0.2082
 4246TIP3    H134153   0.121   2.867  13.383  3.6355 -2.3009  0.5026
 4246TIP3    H234154   0.159   2.877  13.237 -2.4818  2.5872 -1.2137
 4247TIP3   OH234155   4.275   3.345  11.231 -0.0877 -0.4316  0.0729
 4247TIP3    H134156   4.201   3.363  11.289  0.3593 -1.1509  0.8825
 4247TIP3    H234157   4.235   3.319  11.148 -0.7278  0.4355  0.0908
 4248TIP3   OH234158   2.575   3.656   2.801  0.1664 -0.0832  0.0118
 4248TIP3    H134159   2.664   3.620   2.805 -0.2046 -0.9924  0.4522
 4248TIP3    H234160   2.565   3.705   2.883 -0.3031 -1.3894  0.7599
 4249TIP3   OH234161   4.832   5.681  10.548  0.2521 -0.3083 -0.0547
 4249TIP3    H134162   4.854   5.719  10.463  0.2133 -2.3458 -1.0299
 4249TIP3    H234163   4.899   5.614  10.563 -0.0450 -0.3356  1.2819
 4250TIP3   OH234164   3.701   6.603   4.636 -0.3556 -0.1549  0.2953
 4250TIP3    H134165   3.751   6.543   4.581 -0.1359 -0.1989  0.5443
 4250TIP3    H234166   3.693   6.559   4.720  0.0819  0.2955  0.5829
 4251TIP3   OH234167   3.998   4.726  15.441  0.2439 -0.4029  0.0392
 4251TIP3    H134168   3.949   4.776  15.376  0.6503  1.0420  0.8191
 4251TIP3    H234169   3.932   4.695  15.503 -0.0105 -0.9233 -0.4706
 4252TIP3   OH234170   1.126   0.642   3.480 -0.0570 -0.0550 -0.3691
 4252TIP3    H134171   1.112   0.729   3.441 -1.7363 -0.4167 -0.6555
 4252TIP3    H234172   1.127   0.582   3.405  1.3133 -0.2897 -0.1885
 4253TIP3   OH234173   5.481   1.917   6.626 -0.1911  0.2964  0.2080
 4253TIP3    H134174   5.484   2.003   6.667 -0.3937 -0.9354  3.0110
 4253TIP3    H234175   5.408   1.873   6.668 -0.0507 -1.2849 -1.1186
 4254TIP3   OH234176   1.528   0.014   5.863 -0.0516 -0.7982 -0.3692
 4254TIP3    H134177   1.562   0.048   5.780  0.0849 -0.6160 -0.2393
 4254TIP3    H234178   1.435   0.033   5.862 -0.0522 -0.8108 -0.4884
 4255TIP3   OH234179   3.146   3.747  16.377  0.0682  0.2456  0.4298
 4255TIP3    H134180   3.145   3.842  16.390 -2.9828  0.2404  1.0016
 4255TIP3    H234181   3.184   3.713  16.458  3.5831  0.9518 -0.7698
 4256TIP3   OH234182   6.421   4.405  14.387  0.2562 -0.0304 -0.0511
 4256TIP3    H134183   6.363   4.355  14.444  1.3762 -1.1462  0.1558
 4256TIP3    H234184   6.481   4.339  14.351  0.3099  0.8225 -1.6108
 4257TIP3   OH234185   4.327   4.443   2.881 -0.0390 -0.1724  0.0584
 4257TIP3    H134186   4.419   4.444   2.855  0.2263 -1.6533  0.8362
 4257TIP3    H234187   4.294   4.529   2.854  1.0161 -0.3749 -2.1458
 4258TIP3   OH234188   3.952   4.219  15.569  0.2669 -0.4606  0.3455
 4258TIP3    H134189   3.978   4.128  15.581  1.5936 -0.2888 -0.9294
 4258TIP3    H234190   4.008   4.251  15.499  2.1006  2.2249  2.7635
 4259TIP3   OH234191   5.227   0.742   1.751  0.7986 -0.1828 -0.4439
 4259TIP3    H134192   5.246   0.732   1.658  0.2637 -2.3893 -0.3728
 4259TIP3    H234193   5.265   0.664   1.792  1.0272  0.7457  1.2115
 4260TIP3   OH234194   0.076   5.049  11.021 -0.0975 -0.1653  0.3020
 4260TIP3    H134195   0.108   5.130  10.980 -0.1299  0.4434  1.4452
 4260TIP3    H234196   0.014   5.013  10.957  0.4620  0.3164 -0.5404
 4261TIP3   OH234197   4.936   0.869   4.214  0.4307 -0.2680 -0.3789
 4261TIP3    H134198   4.906   0.893   4.302  0.6658 -0.3184 -0.2861
 4261TIP3    H234199   4.937   0.951   4.166  0.1179 -0.2681 -0.3895
 4262TIP3   OH234200   6.072   5.882  15.569  0.3942  0.4578  0.0182
 4262TIP3    H134201   6.032   5.796  15.552  0.7089  0.3756 -0.3270
 4262TIP3    H234202   6.127   5.869  15.646 -0.7450  0.7343  0.8982
 4263TIP3   OH234203   4.337   6.245  16.515  0.2879 -0.2743  0.1481
 4263TIP3    H134204   4.380   6.323  16.551  2.7805 -0.4308 -2.2052
 4263TIP3    H234205   4.246   6.271  16.505  0.1961  0.9367  3.0833
 4264TIP3   OH234206   2.786   3.274   5.751 -0.4445 -0.4178  0.2100
 4264TIP3    H134207   2.691   3.274   5.749 -0.4902 -0.8349  1.3533
 4264TIP3    H234208   2.810   3.358   5.790 -0.3246 -0.1651 -0.3973
 4265TIP3   OH234209   0.391   6.210  14.764 -0.1562  0.0060 -0.0423
 4265TIP3    H134210   0.486   6.207  14.778 -0.1752  0.7949  0.2990
 4265TIP3    H234211   0.355   6.174  14.845 -0.1806  1.4391  0.6165
 4266TIP3   OH234212   5.961   2.790   0.073  0.3557 -0.1964  0.3399
 4266TIP3    H134213   5.951   2.848   0.149  0.2036  1.0989 -0.6307
 4266TIP3    H234214   6.055   2.795   0.052  0.5373 -1.1414  0.8723
 4267TIP3   OH234215   1.181   3.542  13.485  0.2397 -0.3806  0.0975
 4267TIP3    H134216   1.255   3.600  13.501  1.3844 -1.5722 -0.6931
 4267TIP3    H234217   1.114   3.598  13.445  0.7726  0.6683  0.6573
 4268TIP3   OH234218   3.137   6.318  13.335 -0.4376 -0.4824 -0.4166
 4268TIP3    H134219   3.146   6.327  13.430  0.6994 -0.2739 -0.5287
 4268TIP3    H234220   3.043   6.327  13.319 -0.4626  1.5081  0.5013
 4269TIP3   OH234221   5.186   1.035   1.291 -0.3857  0.7196  0.6798
 4269TIP3    H134222   5.216   1.090   1.363 -1.2355  0.1825  1.4720
 4269TIP3    H234223   5.259   1.033   1.229  0.4693  0.9563  1.6648
 4270TIP3   OH234224   1.852   2.525   4.377  0.5731  0.8422 -0.0065
 4270TIP3    H134225   1.873   2.437   4.346 -0.4256  0.5165  0.1891
 4270TIP3    H234226   1.761   2.519   4.405  0.5684  1.8811  0.2440
 4271TIP3   OH234227   0.054   3.923   0.673 -0.4342  0.4393 -0.0701
 4271TIP3    H134228   0.023   3.853   0.615  0.7789 -0.4005  0.2439
 4271TIP3    H234229   0.126   3.964   0.625 -0.8697  1.2217 -0.0729
 4272TIP3   OH234230   0.670   6.652  13.468  0.2214 -0.0367  0.2100
 4272TIP3    H134231   0.596   6.653  13.407  0.8885 -2.0085 -0.6978
 4272TIP3    H234232   0.747   6.656  13.412  0.8389 -1.2471  0.9503
 4273TIP3   OH234233   3.062   3.482  12.802 -0.3811 -0.7552 -0.0832
 4273TIP3    H134234   3.108   3.447  12.726 -0.9718  0.2052 -0.9086
 4273TIP3    H234235   3.017   3.407  12.840  0.2529 -1.3211 -0.4293
 4274TIP3   OH234236   4.656   4.613   5.395  0.1560 -0.3028 -0.3538
 4274TIP3    H134237   4.638   4.628   5.303 -0.5382  0.4205 -0.1120
 4274TIP3    H234238   4.580   4.563   5.427  1.2988 -2.2884 -0.5939
 4275TIP3   OH234239   1.938   6.434  11.395  0.2209  0.1351 -0.6537
 4275TIP3    H134240   2.000   6.476  11.335  1.3124 -0.2982  0.1206
 4275TIP3    H234241   1.930   6.495  11.468 -1.4422  0.8621 -1.3882
 4276TIP3   OH234242   6.371   4.477  11.991 -0.1617 -0.1145 -0.7267
 4276TIP3    H134243   6.378   4.396  12.041  1.2174  0.5313  0.1919
 4276TIP3    H234244   6.423   4.540  12.040 -0.8393  1.2215 -1.6618
 4277TIP3   OH234245   6.513   4.190   2.048  0.2367 -0.3834  0.0739
 4277TIP3    H134246   6.487   4.232   1.966 -0.4922  0.4804  0.7234
 4277TIP3    H234247   6.450   4.119   2.061 -0.3041  0.1484  0.4057
 4278TIP3   OH234248   5.407   2.149   6.338  0.1772 -0.0398 -0.3108
 4278TIP3    H134249   5.348   2.175   6.409 -0.1308 -0.2021 -0.5063
 4278TIP3    H234250   5.482   2.208   6.347 -0.6561  1.1577 -0.9536
 4279TIP3   OH234251   4.444   0.327  13.646  0.3224  0.0404  0.5375
 4279TIP3    H134252   4.470   0.270  13.718  0.1230  0.1052  0.6636
 4279TIP3    H234253   4.459   0.416  13.678 -0.6656  0.1077  0.8728
 4280TIP3   OH234254   5.064   2.733  12.948  0.2154  0.5063 -0.1908
 4280TIP3    H134255   5.053   2.648  12.906 -1.8687 -0.3008  1.8020
 4280TIP3    H234256   5.032   2.796  12.883 -1.7140 -0.5894 -0.3678
 4281TIP3   OH234257   2.417   2.440   4.987  0.1524  0.4883  0.4821
 4281TIP3    H134258   2.361   2.362   4.991 -0.8151  0.8700 -2.7005
 4281TIP3    H234259   2.501   2.411   5.024 -0.2891 -1.9886 -0.2406
 4282TIP3   OH234260   4.813   2.019   4.354 -0.4214 -0.4603 -0.5123
 4282TIP3    H134261   4.891   1.964   4.366 -0.7000 -0.6208  0.7329
 4282TIP3    H234262   4.802   2.064   4.438 -1.3050  0.0525 -0.8857
 4283TIP3   OH234263   5.997   5.463   3.539 -0.1790  0.4672 -0.1830
 4283TIP3    H134264   5.968   5.381   3.581 -2.2360  0.7608 -0.8898
 4283TIP3    H234265   5.967   5.455   3.449  0.8892  1.4154 -0.6413
 4284TIP3   OH234266   5.273   0.359  12.359 -0.4138 -0.5951 -0.4599
 4284TIP3    H134267   5.319   0.322  12.434 -2.9506  0.2467  1.6592
 4284TIP3    H234268   5.326   0.434  12.332  1.0203 -1.4762 -0.1556
 4285TIP3   OH234269   0.007   2.466   2.943  0.1640  0.4861 -0.6756
 4285TIP3    H134270   0.014   2.446   3.037 -1.8889  0.2394 -0.5246
 4285TIP3    H234271  -0.028   2.555   2.940 -4.2428 -1.0144 -0.9861
 4286TIP3   OH234272   4.062   3.352  16.960 -0.5202 -0.1129  0.0338
 4286TIP3    H134273   4.001   3.288  16.925  0.3362 -0.9896  0.0878
 4286TIP3    H234274   4.122   3.300  17.014  1.1681  0.4788 -1.1836
 4287TIP3   OH234275   0.976   3.290   3.462 -0.7499 -0.4033  0.1190
 4287TIP3    H134276   1.023   3.326   3.538 -2.2594  0.8130  0.5228
 4287TIP3    H234277   0.885   3.286   3.491 -1.1860 -0.9723 -1.2794
 4288TIP3   OH234278   6.714   2.259  15.619  0.0742 -0.0676 -0.0591
 4288TIP3    H134279   6.655   2.195  15.580 -0.1031  0.6730 -1.0569
 4288TIP3    H234280   6.699   2.339  15.569 -0.2742  0.9903  1.6411
 4289TIP3   OH234281   4.163   0.057   1.549 -0.1766 -0.3814 -0.0676
 4289TIP3    H134282   4.125   0.055   1.461  0.9218 -0.6094 -0.5566
 4289TIP3    H234283   4.133  -0.024   1.591 -1.3812  0.1185  0.0835
 4290TIP3   OH234284   6.231   5.572   2.981  0.6050  0.2974  0.3215
 4290TIP3    H134285   6.193   5.509   2.920 -0.8879 -1.6259  3.0268
 4290TIP3    H234286   6.205   5.657   2.946  0.3255 -0.6550 -1.9841
 4291TIP3   OH234287   3.335   4.193   5.931 -0.0053 -0.1835  0.9012
 4291TIP3    H134288   3.394   4.263   5.957 -0.6141 -0.3512  2.8490
 4291TIP3    H234289   3.313   4.148   6.012 -1.5714 -1.1013  0.0165
 4292TIP3   OH234290   0.540   3.828   6.718 -0.5389  0.7219  0.9576
 4292TIP3    H134291   0.625   3.784   6.722 -0.8572  0.1545  3.6397
 4292TIP3    H234292   0.489   3.774   6.657  0.7150  0.5784 -0.0268
 4293TIP3   OH234293   5.319   2.378  13.426  0.1397 -0.1601  0.0991
 4293TIP3    H134294   5.414   2.363  13.426  0.2865  0.6573 -0.7958
 4293TIP3    H234295   5.306   2.449  13.488  0.2019  0.1880 -0.2827
 4294TIP3   OH234296   0.065   3.958   0.104 -0.5598 -0.1933 -0.0803
 4294TIP3    H134297   0.125   3.976   0.177  0.3074  1.6158 -1.1669
 4294TIP3    H234298   0.091   3.870   0.074  2.2934  0.8772 -1.1086
 4295TIP3   OH234299   4.833   4.117   4.388 -0.6127 -0.1362 -0.3359
 4295TIP3    H134300   4.904   4.137   4.449  0.0943  1.0608 -1.4897
 4295TIP3    H234301   4.782   4.198   4.383 -0.3767 -0.0423 -1.6665
 4296TIP3   OH234302   6.407   1.030  10.990  0.2042  0.2631 -0.0345
 4296TIP3    H134303   6.382   1.012  10.900 -0.4030  2.6490 -0.3967
 4296TIP3    H234304   6.452   1.115  10.987 -2.0875  1.7030  2.1855
 4297TIP3   OH234305   5.876   6.516   0.518  0.2916  0.4922 -0.4401
 4297TIP3    H134306   5.917   6.430   0.527  0.0414  0.1125 -2.6025
 4297TIP3    H234307   5.784   6.498   0.500  0.3918  1.1603 -1.7498
 4298TIP3   OH234308   2.283   6.099  17.126  0.0240 -0.0458 -0.8308
 4298TIP3    H134309   2.366   6.127  17.167 -0.9895 -1.2047  2.3136
 4298TIP3    H234310   2.258   6.173  17.071  2.0448  1.2445 -0.1539
 4299TIP3   OH234311   1.668   1.904  10.594  0.2342  0.6993  0.0155
 4299TIP3    H134312   1.668   1.957  10.674 -1.9403 -0.8324  1.1328
 4299TIP3    H234313   1.581   1.918  10.557  0.0128 -1.1857 -0.2614
 4300TIP3   OH234314   1.552   5.118   5.305  0.1874  0.1640 -0.3262
 4300TIP3    H134315   1.490   5.071   5.250  0.1915 -0.5155  0.2373
 4300TIP3    H234316   1.564   5.062   5.382  0.2181  1.0692  0.3509
 4301TIP3   OH234317   1.584   3.422  14.708  0.2412 -0.3942 -0.1413
 4301TIP3    H134318   1.622   3.487  14.768 -0.2043  0.2142 -0.5131
 4301TIP3    H234319   1.604   3.456  14.620 -1.0312 -0.1302 -0.3485
 4302TIP3   OH234320   1.414   6.256   0.626  0.5018  0.3918 -0.4703
 4302TIP3    H134321   1.492   6.308   0.644  0.9486 -0.0758 -0.9909
 4302TIP3    H234322   1.349   6.287   0.689  1.4215  0.0757  0.6730
 4303TIP3   OH234323   4.883   4.710   0.855 -0.3446  0.4236  0.3125
 4303TIP3    H134324   4.881   4.619   0.887  1.4654  0.4631  0.6256
 4303TIP3    H234325   4.969   4.742   0.881 -0.3063  1.6949 -1.2943
 4304TIP3   OH234326   5.785   2.282  12.521 -0.3847 -0.2457  0.3204
 4304TIP3    H134327   5.740   2.366  12.513 -1.1204 -0.6500  0.2138
 4304TIP3    H234328   5.836   2.290  12.602  0.2095  0.6090 -0.1203
 4305TIP3   OH234329   6.407   2.175  10.634  0.4202 -0.4054 -0.3617
 4305TIP3    H134330   6.372   2.122  10.563  1.2137  0.2805 -1.2793
 4305TIP3    H234331   6.479   2.122  10.669 -1.1918 -1.6558  1.2979
 4306TIP3   OH234332   2.505   2.511  16.539 -0.0150 -0.0294  0.4769
 4306TIP3    H134333   2.546   2.577  16.594  1.3462  0.1270 -0.6628
 4306TIP3    H234334   2.419   2.547  16.518  0.2050  0.7803  0.9280
 4307TIP3   OH234335   0.839   1.182   2.288 -0.0066  0.4295 -0.0723
 4307TIP3    H134336   0.857   1.095   2.252  1.6311  1.1395 -1.0670
 4307TIP3    H234337   0.805   1.164   2.376 -0.5155 -1.2369 -0.5736
 4308TIP3   OH234338   5.451   2.957  11.404 -0.7225 -0.3493 -0.0219
 4308TIP3    H134339   5.364   2.926  11.426 -0.7334 -0.5250 -0.3093
 4308TIP3    H234340   5.498   2.879  11.374  0.4927 -0.9312  2.9831
 4309TIP3   OH234341   4.173   0.791  16.252 -0.1230 -0.3103  0.6585
 4309TIP3    H134342   4.214   0.759  16.332  0.3374  1.8249  1.3305
 4309TIP3    H234343   4.246   0.806  16.192 -0.1258  1.2666  1.0299
 4310TIP3   OH234344   0.576   5.447  12.805  0.8034  0.1029 -0.6397
 4310TIP3    H134345   0.616   5.386  12.866  0.9792 -1.2169 -2.0248
 4310TIP3    H234346   0.648   5.504  12.777  0.9843 -0.1075 -0.6012
 4311TIP3   OH234347   2.708   5.933   6.627 -0.1201  0.3471  0.3098
 4311TIP3    H134348   2.710   5.845   6.588  1.9106 -0.6058  2.3188
 4311TIP3    H234349   2.761   5.987   6.568 -0.1944 -0.1168 -0.1930
 4312TIP3   OH234350   4.550   6.792  16.422  0.3773  0.1898  0.0403
 4312TIP3    H134351   4.509   6.778  16.337  2.8570 -0.5154 -1.1271
 4312TIP3    H234352   4.591   6.879  16.414 -0.9619  0.9771  1.2546
 4313TIP3   OH234353   5.505   0.829  12.799  0.4481  0.2592  0.3475
 4313TIP3    H134354   5.593   0.798  12.817  0.5187  1.3148  2.0182
 4313TIP3    H234355   5.495   0.820  12.704  1.5664 -1.8295  0.3684
 4314TIP3   OH234356   6.312   2.708   4.582  0.1840  0.3813 -0.5618
 4314TIP3    H134357   6.314   2.615   4.559  1.9055  0.7547 -2.2205
 4314TIP3    H234358   6.341   2.752   4.502  1.4518  2.1871  0.8336
 4315TIP3   OH234359   3.353   5.911   4.642 -0.0708 -0.1397 -0.5761
 4315TIP3    H134360   3.372   5.976   4.710  0.3699  0.1107 -0.9304
 4315TIP3    H234361   3.399   5.833   4.671  0.1111 -0.0351 -0.5778
 4316TIP3   OH234362   6.751   0.627  14.677  0.3651 -0.0616  0.1750
 4316TIP3    H134363   6.748   0.704  14.733  0.8425  0.0792  0.0147
 4316TIP3    H234364   6.813   0.650  14.608  0.3502 -0.5100  0.0077
 4317TIP3   OH234365   1.788   6.773  16.499 -0.0571 -0.2932  0.8111
 4317TIP3    H134366   1.712   6.781  16.441 -0.1642 -1.0567  0.8414
 4317TIP3    H234367   1.755   6.797  16.585 -0.0954  0.0297  0.7117
 4318TIP3   OH234368   4.823   2.326   0.724  0.0206  0.9641 -0.4206
 4318TIP3    H134369   4.770   2.249   0.703 -1.4421  1.8843 -0.2310
 4318TIP3    H234370   4.856   2.309   0.813  0.0534  0.3962 -0.5341
 4319TIP3   OH234371   4.305   2.024  15.466 -0.1508 -0.0213  0.7544
 4319TIP3    H134372   4.257   1.960  15.413  1.0663 -0.2415 -0.1074
 4319TIP3    H234373   4.307   2.103  15.413 -0.2999  0.2520  1.1536
 4320TIP3   OH234374   3.295   4.203  15.702 -0.3220  0.3257 -0.3469
 4320TIP3    H134375   3.321   4.187  15.792 -1.1777 -0.3349 -0.2048
 4320TIP3    H234376   3.322   4.123  15.655  0.6750  0.9075 -0.8171
 4321TIP3   OH234377   6.642   2.923   4.231  0.0425  0.4537 -0.0080
 4321TIP3    H134378   6.570   2.965   4.184  1.6843  2.1952 -1.1004
 4321TIP3    H234379   6.717   2.931   4.173  1.1185 -1.4332  1.0380
 4322TIP3   OH234380   0.729   1.732   2.523 -0.6361 -0.0070  0.1319
 4322TIP3    H134381   0.762   1.814   2.559 -1.4379 -0.5039  2.1548
 4322TIP3    H234382   0.777   1.720   2.441  1.3441  1.2064  1.0398
 4323TIP3   OH234383   6.635   2.223   3.896  0.2162 -0.1865 -0.0849
 4323TIP3    H134384   6.642   2.162   3.822 -2.1681 -1.1114  0.3662
 4323TIP3    H234385   6.715   2.276   3.891  1.6484 -2.3085 -1.4132
 4324TIP3   OH234386   2.625   1.796   5.061  0.0882  0.2604 -0.4061
 4324TIP3    H134387   2.581   1.727   5.110  0.1962 -0.0652 -0.7632
 4324TIP3    H234388   2.608   1.876   5.111 -0.3269  0.0303 -0.1776
 4325TIP3   OH234389   3.932   5.236   6.381  0.3389  0.0411  0.1543
 4325TIP3    H134390   4.008   5.280   6.342  0.4206  1.1393  1.5184
 4325TIP3    H234391   3.968   5.155   6.417  0.5770 -0.1482 -0.4820
 4326TIP3   OH234392   5.888   4.258  16.382  0.3335 -0.5646 -0.3780
 4326TIP3    H134393   5.893   4.243  16.288  0.9179  0.9031 -0.5953
 4326TIP3    H234394   5.979   4.266  16.410  0.1073  1.1816 -0.0777
 4327TIP3   OH234395   0.402   5.236  12.266  0.0082  0.0241  0.3492
 4327TIP3    H134396   0.463   5.196  12.204 -0.4331  0.3893 -0.3304
 4327TIP3    H234397   0.354   5.162  12.304  1.1793 -0.3173  1.2539
 4328TIP3   OH234398   2.183   2.470  14.515  0.6464  0.0347 -0.4273
 4328TIP3    H134399   2.177   2.375  14.503 -1.3628 -0.0484  0.7581
 4328TIP3    H234400   2.147   2.506  14.434  0.6425 -0.2293 -0.5466
 4329TIP3   OH234401   6.789   5.731   1.456 -0.0780  0.3227 -0.2908
 4329TIP3    H134402   6.813   5.730   1.364 -1.5204 -0.1887 -0.6821
 4329TIP3    H234403   6.845   5.663   1.496  0.9998  0.9816 -0.6360
 4330TIP3   OH234404   5.746   5.934  14.497 -0.0562  0.3317 -0.2186
 4330TIP3    H134405   5.832   5.909  14.463 -0.2559 -1.5722  0.5472
 4330TIP3    H234406   5.687   5.923  14.422  0.3465  1.7487 -0.7760
 4331TIP3   OH234407   2.427   2.868  10.463  0.2380  0.3153  0.1448
 4331TIP3    H134408   2.510   2.850  10.419 -0.2682 -0.1150 -0.6456
 4331TIP3    H234409   2.360   2.841  10.401 -0.5066 -1.8491  1.7910
 4332TIP3   OH234410   6.431   5.964   3.002  0.2913 -0.1306  0.5249
 4332TIP3    H134411   6.490   6.036   3.023  2.5326 -2.0462  1.2431
 4332TIP3    H234412   6.421   5.968   2.907 -0.4833  1.6961  0.6382
 4333TIP3   OH234413   3.265   3.349  16.727  0.0294 -0.3132 -0.0758
 4333TIP3    H134414   3.278   3.272  16.782  0.5188 -0.4418 -0.3664
 4333TIP3    H234415   3.172   3.371  16.737  0.2559  0.0766  1.3388
 4334TIP3   OH234416   5.734   3.237  11.709 -0.2682  0.7348 -0.0878
 4334TIP3    H134417   5.697   3.153  11.682 -0.0865  0.2594  1.0857
 4334TIP3    H234418   5.674   3.268  11.776  0.8689  0.4516  1.0988
 4335TIP3   OH234419   2.660   2.464  13.512 -0.1244 -0.3424  0.3791
 4335TIP3    H134420   2.630   2.374  13.520 -0.3051 -0.3858 -0.6842
 4335TIP3    H234421   2.667   2.495  13.602 -0.4045 -1.3022  0.7385
 4336TIP3   OH234422   2.667   3.598   3.543 -0.0698  0.3410 -0.4182
 4336TIP3    H134423   2.733   3.540   3.504  0.1865  0.8653 -0.7690
 4336TIP3    H234424   2.595   3.539   3.565  1.5861 -0.7549  2.6302
 4337TIP3   OH234425   1.043   0.369   1.254  0.2680  0.2115 -0.0854
 4337TIP3    H134426   1.124   0.334   1.290  1.5973  0.9344 -2.1807
 4337TIP3    H234427   1.045   0.462   1.274 -0.4688  0.1049  0.5439
 4338TIP3   OH234428   2.125   3.432  13.789 -0.6873  0.1455  0.1386
 4338TIP3    H134429   2.162   3.479  13.864  0.6356  0.6361 -0.7931
 4338TIP3    H234430   2.125   3.496  13.718 -0.4067 -0.7719 -0.7193
 4339TIP3   OH234431   1.541   3.162   5.129 -0.1019  0.6191  0.5088
 4339TIP3    H134432   1.470   3.184   5.190 -0.5475  0.6374 -0.0065
 4339TIP3    H234433   1.569   3.075   5.155  0.5938  1.1336  1.5568
 4340TIP3   OH234434   3.622   2.304  13.417 -0.4056 -0.3028 -0.0093
 4340TIP3    H134435   3.535   2.291  13.378  0.4137  1.4712 -2.7385
 4340TIP3    H234436   3.683   2.266  13.353  0.9744  1.7977 -0.0499
 4341TIP3   OH234437   4.801   6.258   5.238 -0.7367 -0.1492 -0.0637
 4341TIP3    H134438   4.885   6.256   5.191 -0.7462 -0.8291 -0.0646
 4341TIP3    H234439   4.820   6.305   5.319 -1.3108  3.4224 -1.8177
 4342TIP3   OH234440   1.577   3.253   0.086 -0.1322  0.3946  0.0411
 4342TIP3    H134441   1.560   3.346   0.068  1.3279  0.7289  0.2656
 4342TIP3    H234442   1.529   3.206   0.018  0.3227  1.3842 -0.9921
 4343TIP3   OH234443   4.180   3.134   4.525  0.1937  0.0150 -0.0870
 4343TIP3    H134444   4.199   3.046   4.495 -0.3342 -0.6928  1.5564
 4343TIP3    H234445   4.146   3.179   4.447 -0.9770 -1.6823 -0.6134
 4344TIP3   OH234446   5.454   0.596  16.470  0.1512 -0.2216 -0.1364
 4344TIP3    H134447   5.407   0.615  16.389  0.7629 -0.0819 -0.4636
 4344TIP3    H234448   5.497   0.679  16.492 -1.3259  0.2294  1.2255
 4345TIP3   OH234449   1.923   5.454   0.130 -0.8988  0.6883  0.0071
 4345TIP3    H134450   1.958   5.542   0.131 -0.2353  0.4250  0.0898
 4345TIP3    H234451   1.982   5.405   0.073 -0.8635  0.1311  0.5142
 4346TIP3   OH234452   2.166   2.337  12.507  0.5177  0.0223 -0.2976
 4346TIP3    H134453   2.126   2.281  12.441 -1.3720  0.0854  0.7358
 4346TIP3    H234454   2.101   2.405  12.525  1.1135  0.2143  1.3542
 4347TIP3   OH234455   4.782   5.079  13.325 -0.6050  0.4333  0.1274
 4347TIP3    H134456   4.717   5.121  13.381 -0.2853 -0.0958  0.9140
 4347TIP3    H234457   4.812   5.149  13.267 -1.2609  0.8860  0.3190
 4348TIP3   OH234458   1.926   1.422  12.788  0.1667 -0.1827 -0.5833
 4348TIP3    H134459   1.960   1.501  12.830  1.5373 -1.5577  1.0502
 4348TIP3    H234460   1.876   1.454  12.713 -0.7588  2.3280  0.9756
 4349TIP3   OH234461   0.621   0.715  14.469  0.6426  0.0725 -0.0737
 4349TIP3    H134462   0.530   0.743  14.468  0.9063  0.9872 -1.1125
 4349TIP3    H234463   0.633   0.669  14.386  1.0429 -0.3211  0.1976
 4350TIP3   OH234464   4.690   4.413  12.582  0.1199 -0.4385  0.5251
 4350TIP3    H134465   4.766   4.360  12.558  0.7958  0.1845  1.2363
 4350TIP3    H234466   4.720   4.467  12.655 -0.2299  1.6465 -0.7796
 4351TIP3   OH234467   1.263   4.688   5.363 -0.0718 -0.5568  0.0611
 4351TIP3    H134468   1.281   4.594   5.361  0.3260 -0.4681 -1.6028
 4351TIP3    H234469   1.244   4.712   5.272 -1.1149  0.8059  0.5958
 4352TIP3   OH234470   4.978   0.849  15.156  0.4668  0.4191 -0.4168
 4352TIP3    H134471   5.021   0.875  15.237 -1.2844  0.7302  0.4730
 4352TIP3    H234472   4.894   0.895  15.158 -1.4814 -2.8406 -0.2642
 4353TIP3   OH234473   4.972   0.182  12.038 -0.0793  0.3991 -0.3503
 4353TIP3    H134474   4.917   0.222  11.971 -1.0134 -0.6702 -0.2472
 4353TIP3    H234475   5.046   0.242  12.047  0.6106  0.1101 -3.0696
 4354TIP3   OH234476   5.371   3.720   4.229 -0.4882  0.7419  0.3639
 4354TIP3    H134477   5.283   3.709   4.193 -0.1841 -2.3474  0.2997
 4354TIP3    H234478   5.376   3.813   4.252 -3.5260  1.1542 -0.1942
 4355TIP3   OH234479   4.561   4.531  15.162  0.1552 -0.3324  0.6153
 4355TIP3    H134480   4.555   4.582  15.081  0.2735 -0.1098  0.7452
 4355TIP3    H234481   4.535   4.592  15.231 -0.2730 -0.6217  0.7116
 4356TIP3   OH234482   3.866   2.530  12.198 -0.1899 -0.1777  0.3174
 4356TIP3    H134483   3.793   2.577  12.158  0.5836 -0.7704 -1.9176
 4356TIP3    H234484   3.932   2.598  12.213 -0.2941 -0.0215  0.0780
 4357TIP3   OH234485   4.264   4.644  14.405  0.2045 -0.1370  0.1526
 4357TIP3    H134486   4.210   4.587  14.460  1.7530 -1.7586  0.0632
 4357TIP3    H234487   4.349   4.599  14.400  0.4984  0.5948 -2.5516
 4358TIP3   OH234488   1.890   5.502  12.153  0.8982  0.2477 -0.2542
 4358TIP3    H134489   1.875   5.434  12.087 -0.3235  0.6739 -0.4478
 4358TIP3    H234490   1.908   5.453  12.233  1.7252 -0.2803 -0.7425
 4359TIP3   OH234491   3.565   1.642  11.022  0.1664 -0.3395  0.2322
 4359TIP3    H134492   3.639   1.603  11.067  1.3441  4.0803  2.7641
 4359TIP3    H234493   3.604   1.700  10.956 -1.1113  0.3955  0.0787
 4360TIP3   OH234494   5.460   1.543  12.048 -0.3748 -0.3977 -0.6193
 4360TIP3    H134495   5.403   1.467  12.039  1.3449 -1.8814  0.3828
 4360TIP3    H234496   5.511   1.526  12.127 -0.8011  2.4295  0.3990
 4361TIP3   OH234497   5.825   6.000  10.907  0.2788 -0.1001 -0.3550
 4361TIP3    H134498   5.900   5.948  10.877  0.2838 -0.5740  0.4707
 4361TIP3    H234499   5.813   6.065  10.838  0.3968 -1.0653 -1.3224
 4362TIP3   OH234500   1.628   5.017   2.110 -0.0233  0.3546 -0.0352
 4362TIP3    H134501   1.721   5.037   2.098  0.3306 -1.0333  0.1493
 4362TIP3    H234502   1.582   5.091   2.070  1.1527  0.6932 -0.8281
 4363TIP3   OH234503   5.661   6.561  10.956 -0.3587 -0.1225  0.2041
 4363TIP3    H134504   5.747   6.595  10.933 -0.5341  1.3283  1.4866
 4363TIP3    H234505   5.620   6.540  10.872  1.3610 -1.2107 -0.4111
 4364TIP3   OH234506   2.992   3.233  14.020 -0.1250  0.0757  0.2214
 4364TIP3    H134507   3.025   3.150  13.986 -1.0610 -0.5381  0.7939
 4364TIP3    H234508   2.897   3.225  14.016 -0.2289  1.1363  0.2631
 4365TIP3   OH234509   2.254   1.935  15.753  0.3147 -0.3194 -0.6200
 4365TIP3    H134510   2.176   1.980  15.722 -0.3075 -0.5505  0.5587
 4365TIP3    H234511   2.327   1.989  15.723 -0.3674  0.8576 -0.2048
 4366TIP3   OH234512   4.744   2.889  13.773 -0.1864  0.3709  0.1817
 4366TIP3    H134513   4.675   2.916  13.712  1.8941  0.1575 -2.4588
 4366TIP3    H234514   4.722   2.798  13.794  0.5422 -0.5550 -2.6714
 4367TIP3   OH234515   2.725   5.029  12.867  0.0488  0.3958  0.4377
 4367TIP3    H134516   2.746   4.944  12.828 -1.1609  0.0880  0.3956
 4367TIP3    H234517   2.719   5.089  12.793  3.4242  1.1519  0.6531
 4368TIP3   OH234518   3.479   5.078  16.137 -0.1359 -0.2528 -0.4634
 4368TIP3    H134519   3.517   5.162  16.111  0.2930 -0.0047  0.9237
 4368TIP3    H234520   3.546   5.036  16.190 -1.2437 -0.4032  0.8820
 4369TIP3   OH234521   1.549   3.869  11.384 -0.2169  0.1252 -0.6448
 4369TIP3    H134522   1.632   3.823  11.383 -0.5436 -0.4558 -1.1638
 4369TIP3    H234523   1.482   3.801  11.379 -0.7595  0.5238  0.5651
 4370TIP3   OH234524   0.812   0.419   4.203  0.2337 -0.1439 -0.2421
 4370TIP3    H134525   0.879   0.480   4.173  1.9342 -1.3807  0.8651
 4370TIP3    H234526   0.853   0.372   4.275 -1.8802 -0.9078  0.5271
 4371TIP3   OH234527   0.645   1.945   0.279 -0.0221 -0.3889  0.2869
 4371TIP3    H134528   0.658   2.021   0.223  1.5937  1.4123  2.8698
 4371TIP3    H234529   0.714   1.884   0.255 -2.5526 -2.1805 -3.2484
 4372TIP3   OH234530   5.475   2.013  14.069 -0.0584  0.3076 -0.3052
 4372TIP3    H134531   5.427   1.965  14.136  0.3774 -0.2998 -0.4247
 4372TIP3    H234532   5.533   2.072  14.118 -0.2902  0.4109 -0.1564
 4373TIP3   OH234533   3.109   1.348  10.457 -0.1968  0.1577 -0.3384
 4373TIP3    H134534   3.040   1.375  10.396 -0.2699  0.6261 -0.0555
 4373TIP3    H234535   3.189   1.353  10.406 -0.0984  1.6910 -0.1016
 4374TIP3   OH234536   4.742   2.748  16.878  0.5132 -0.0443  0.4782
 4374TIP3    H134537   4.711   2.768  16.789 -1.5921 -0.5727  1.0185
 4374TIP3    H234538   4.828   2.708  16.865  0.8160  1.0386 -1.2242
 4375TIP3   OH234539   5.179   6.434   0.264 -0.1654 -0.1170 -0.2681
 4375TIP3    H134540   5.227   6.486   0.328 -0.0442  0.5860 -0.9192
 4375TIP3    H234541   5.087   6.452   0.283 -0.1136  1.2779 -1.2342
 4376TIP3   OH234542   4.934   4.638  11.124  0.5009  0.2562  0.2181
 4376TIP3    H134543   4.839   4.627  11.135  0.5820 -0.5826  0.1237
 4376TIP3    H234544   4.972   4.586  11.194  0.8891  1.4311  0.9004
 4377TIP3   OH234545   1.473   0.096  12.424  0.0498 -0.5755  0.6223
 4377TIP3    H134546   1.557   0.089  12.470  1.5399  0.3292 -1.7719
 4377TIP3    H234547   1.476   0.026  12.358 -1.5730 -1.1926  1.1497
 4378TIP3   OH234548   2.180   6.450   5.286  0.6265 -0.3431  0.2529
 4378TIP3    H134549   2.174   6.375   5.227 -1.9838  1.0225 -1.4146
 4378TIP3    H234550   2.210   6.522   5.231 -0.0142  0.5498  1.0254
 4379TIP3   OH234551   5.837   5.136  13.722 -0.0879 -0.2492 -0.2279
 4379TIP3    H134552   5.806   5.143  13.812 -1.3402 -0.8570 -0.5933
 4379TIP3    H234553   5.922   5.179  13.723  0.0177 -0.4397  1.2879
 4380TIP3   OH234554   6.160   4.827  11.246  0.3570  0.8589  0.1455
 4380TIP3    H134555   6.133   4.916  11.221  1.6062  1.3133  0.3316
 4380TIP3    H234556   6.179   4.784  11.163  4.0522  2.2221  0.0861
 4381TIP3   OH234557   6.460   1.865  15.162 -0.6359  0.2606 -0.1102
 4381TIP3    H134558   6.485   1.841  15.073 -1.6680 -1.1685 -0.0484
 4381TIP3    H234559   6.502   1.800  15.217  0.7035  1.6338  0.5734
 4382TIP3   OH234560   3.399   4.163  12.706  0.3178 -0.2461 -0.0070
 4382TIP3    H134561   3.448   4.080  12.701  0.5937 -0.0945  0.1477
 4382TIP3    H234562   3.447   4.214  12.772 -0.5557 -0.4330  0.7938
 4383TIP3   OH234563   1.666   3.933   5.539 -0.2141 -0.6792  0.4490
 4383TIP3    H134564   1.748   3.948   5.491 -1.0628  0.9474 -0.5886
 4383TIP3    H234565   1.694   3.920   5.630  1.3027 -1.9525 -0.1539
 4384TIP3   OH234566   6.101   6.448   0.760 -0.1547  0.3831  0.1181
 4384TIP3    H134567   6.087   6.451   0.665  1.5170  0.3220 -0.1669
 4384TIP3    H234568   6.194   6.425   0.770 -0.6613 -1.1689  1.7948
 4385TIP3   OH234569   4.064   5.659   2.616 -0.2898  0.4700 -1.0922
 4385TIP3    H134570   4.045   5.633   2.526  0.9511 -1.2016 -0.9306
 4385TIP3    H234571   4.032   5.586   2.669  0.6338  0.5837 -0.3477
 4386TIP3   OH234572   3.896   6.230  15.173 -0.0856  0.0525  0.9664
 4386TIP3    H134573   3.806   6.229  15.205 -0.6921  0.1058 -0.6666
 4386TIP3    H234574   3.947   6.192  15.245 -1.2849  0.7284  2.2287
 4387TIP3   OH234575   3.832   6.475  15.692  0.2310 -0.1383  0.1548
 4387TIP3    H134576   3.921   6.446  15.712  0.4815  0.6462  0.2292
 4387TIP3    H234577   3.844   6.562  15.654 -0.6094  0.8065  1.9455
 4388TIP3   OH234578   1.411   5.822  14.453 -0.3660  0.4678 -0.0647
 4388TIP3    H134579   1.341   5.887  14.458  0.0132  0.9017 -0.4081
 4388TIP3    H234580   1.471   5.846  14.524 -0.3337  0.3726 -0.0597
 4389TIP3   OH234581   2.316   3.371   3.023  0.2854 -0.3087 -0.1355
 4389TIP3    H134582   2.328   3.279   3.048  1.4633 -0.1191  0.0294
 4389TIP3    H234583   2.245   3.401   3.080 -0.1868 -1.1329 -0.2598
 4390TIP3   OH234584   2.880   2.708  16.749  0.4344 -0.0153  0.1763
 4390TIP3    H134585   2.847   2.774  16.810 -0.6477  0.9795 -1.4069
 4390TIP3    H234586   2.815   2.637  16.752 -1.3646  1.4067 -2.0327
 4391TIP3   OH234587   5.383   4.615  12.093 -0.6743  0.1417 -0.3351
 4391TIP3    H134588   5.382   4.633  11.999 -1.6691 -3.7896 -1.2727
 4391TIP3    H234589   5.472   4.587  12.111 -0.1625  2.0262  0.2306
 4392TIP3   OH234590   2.054   1.608  11.958 -0.2666 -0.1604 -0.6732
 4392TIP3    H134591   2.139   1.647  11.938 -0.9992  2.3428  0.6671
 4392TIP3    H234592   1.995   1.647  11.893 -0.7993 -0.0015 -0.1018
 4393TIP3   OH234593   1.023   1.672  16.638  0.1842 -0.0548  0.6149
 4393TIP3    H134594   1.005   1.627  16.555 -2.3472  0.6885  0.6804
 4393TIP3    H234595   0.973   1.624  16.703 -2.1028  2.3405  0.7939
 4394TIP3   OH234596   1.756   1.506   1.827 -0.0643 -0.3251  0.2678
 4394TIP3    H134597   1.668   1.539   1.845 -0.3425 -0.5414 -0.6421
 4394TIP3    H234598   1.751   1.473   1.737  0.6373 -1.3998  0.6110
 4395TIP3   OH234599   4.236   5.033   1.280 -0.0944 -0.1580  0.3326
 4395TIP3    H134600   4.259   4.951   1.237 -1.5504 -0.9797  1.0355
 4395TIP3    H234601   4.225   5.096   1.208 -1.0905 -1.1474 -0.4105
 4396TIP3   OH234602   3.442   1.865   0.765  0.4456 -0.0153 -0.0232
 4396TIP3    H134603   3.531   1.837   0.786 -0.4742 -1.4997  2.5637
 4396TIP3    H234604   3.430   1.842   0.673  2.2353 -1.2871  0.0061
 4397TIP3   OH234605   1.269   2.485  11.034 -0.3151 -0.8400  0.4803
 4397TIP3    H134606   1.283   2.474  11.128  0.0254 -2.0972  0.2982
 4397TIP3    H234607   1.350   2.523  11.001 -0.6734  0.2025  0.7874
 4398TIP3   OH234608   5.117   2.352   2.205 -0.5453 -0.2619  0.3282
 4398TIP3    H134609   5.139   2.408   2.279  0.6806 -0.8332  0.4210
 4398TIP3    H234610   5.035   2.388   2.171 -0.8231  0.3534  1.5995
 4399TIP3   OH234611   0.346   2.828   3.862  0.4957  0.2843 -0.2904
 4399TIP3    H134612   0.325   2.911   3.820  1.6040  0.5579 -0.3471
 4399TIP3    H234613   0.402   2.783   3.799 -1.0082 -1.0282 -0.7495
 4400TIP3   OH234614   2.303   0.207   4.295 -0.7842  0.1910 -0.2933
 4400TIP3    H134615   2.355   0.265   4.239  0.3189 -1.7274 -1.3472
 4400TIP3    H234616   2.244   0.266   4.342  0.4643  2.1817 -1.0985
 4401TIP3   OH234617   5.662   5.593   1.847  0.5393 -0.7089  0.1153
 4401TIP3    H134618   5.631   5.646   1.921 -0.1449 -1.7422  0.5966
 4401TIP3    H234619   5.712   5.654   1.793 -2.4417  1.1248 -0.7818
 4402TIP3   OH234620   4.926   4.519   4.092  0.0430 -0.0762 -0.1332
 4402TIP3    H134621   4.893   4.608   4.086  0.9691  0.4134  1.4744
 4402TIP3    H234622   5.012   4.527   4.133 -0.2953 -1.7817  1.0401
 4403TIP3   OH234623   3.834   0.887  11.557 -0.1187 -0.4325  0.3739
 4403TIP3    H134624   3.917   0.850  11.585  1.1764  0.2752 -2.2355
 4403TIP3    H234625   3.793   0.818  11.506  0.5259  0.3655 -1.2746
 4404TIP3   OH234626   3.396   6.355   2.207 -0.9147 -0.4309  0.0587
 4404TIP3    H134627   3.395   6.399   2.292  1.2279 -0.4349  0.1416
 4404TIP3    H234628   3.369   6.265   2.225  0.0975 -0.5890  0.8522
 4405TIP3   OH234629   2.229   2.277   6.349  0.2406  0.2461 -0.6086
 4405TIP3    H134630   2.190   2.238   6.427  0.8676  0.2657 -0.2727
 4405TIP3    H234631   2.176   2.354   6.331  0.2150  0.3597 -0.0687
 4406TIP3   OH234632   0.177   5.435  10.623 -0.2312 -0.0528 -0.2363
 4406TIP3    H134633   0.171   5.506  10.687 -2.0877  0.2859 -0.7210
 4406TIP3    H234634   0.105   5.451  10.562  0.8596 -0.9336 -1.8522
 4407TIP3   OH234635   2.812   3.449  17.108 -0.4139  0.0788 -0.4132
 4407TIP3    H134636   2.740   3.511  17.100  0.3681  1.2156  0.9555
 4407TIP3    H234637   2.878   3.494  17.161 -0.0858 -2.1477  1.2127
 4408TIP3   OH234638   5.897   3.100  16.443 -0.2984 -0.3892  0.3511
 4408TIP3    H134639   5.988   3.103  16.414 -0.6320  0.6387 -0.6846
 4408TIP3    H234640   5.849   3.153  16.379 -1.6073 -0.7736  0.9609
 4409TIP3   OH234641   6.004   5.843  14.372  0.1258  0.2189 -0.3597
 4409TIP3    H134642   6.043   5.931  14.369 -0.1553  0.3276 -1.1267
 4409TIP3    H234643   6.074   5.787  14.405 -0.2830  1.0226  2.0446
 4410TIP3   OH234644   6.040   5.628  13.339 -0.0629 -0.6707  0.2828
 4410TIP3    H134645   6.007   5.710  13.377  0.5042 -0.7552  0.9792
 4410TIP3    H234646   6.112   5.602  13.396  0.2168 -1.2962 -0.3334
 4411TIP3   OH234647   6.024   0.431   5.073  0.2556 -0.2586 -0.3536
 4411TIP3    H134648   6.094   0.467   5.019  0.3169  0.4757  0.2064
 4411TIP3    H234649   5.944   0.467   5.036  0.1146 -1.4808 -1.2968
 4412TIP3   OH234650   4.946   0.499  11.722  0.2600  0.0022 -0.0240
 4412TIP3    H134651   4.928   0.483  11.629 -1.6326  3.2570 -0.3557
 4412TIP3    H234652   5.042   0.500  11.728  0.4370  1.0576 -2.2267
 4413TIP3   OH234653   4.001   2.627   5.798 -0.1991 -0.2964 -0.0055
 4413TIP3    H134654   3.929   2.685   5.821  0.0499 -0.2594  0.7091
 4413TIP3    H234655   4.018   2.645   5.706  0.9568  1.9870  0.5814
 4414TIP3   OH234656   2.802   3.094   0.135 -0.2700 -0.3273 -0.2238
 4414TIP3    H134657   2.715   3.077   0.100 -0.7406  0.3371  0.5884
 4414TIP3    H234658   2.792   3.175   0.186  1.1806  0.6837 -1.4424
 4415TIP3   OH234659   5.340   2.699  13.661  0.1150 -0.3442  0.0748
 4415TIP3    H134660   5.350   2.608  13.689  0.2216 -0.4547 -0.3125
 4415TIP3    H234661   5.246   2.716  13.666  0.0580 -0.5804 -0.1753
 4416TIP3   OH234662   2.613   1.061  16.409  0.0435 -0.4484  0.6122
 4416TIP3    H134663   2.536   1.057  16.466 -0.9806 -3.3100 -0.7972
 4416TIP3    H234664   2.599   1.140  16.357 -0.7818  0.2797  1.8690
 4417TIP3   OH234665   0.978   1.572  11.306  0.0066  0.3919  0.1944
 4417TIP3    H134666   1.061   1.531  11.328  0.1204 -0.0865 -1.0427
 4417TIP3    H234667   0.912   1.506  11.325 -0.0165  0.4649  0.3693
 4418TIP3   OH234668   3.244   5.872   1.866  0.9392  0.5893  0.2370
 4418TIP3    H134669   3.248   5.843   1.957  1.1248  0.4399  0.1814
 4418TIP3    H234670   3.151   5.888   1.851  0.6461 -1.2244 -0.1005
 4419TIP3   OH234671   4.542   2.437  12.745 -0.4144 -0.3880  0.9228
 4419TIP3    H134672   4.558   2.373  12.814 -1.4103 -1.4704  0.1905
 4419TIP3    H234673   4.616   2.498  12.751  0.7984 -1.8339  1.3829
 4420TIP3   OH234674   1.803   0.715   0.072 -0.0224  0.2100 -0.3561
 4420TIP3    H134675   1.731   0.779   0.067  0.0982  0.2813 -1.6103
 4420TIP3    H234676   1.807   0.690   0.164 -1.6605  0.2132 -0.2537
 4421TIP3   OH234677   0.578   5.117   0.586  0.5801  0.3861  0.4408
 4421TIP3    H134678   0.609   5.184   0.647  0.4045 -1.5783  2.8529
 4421TIP3    H234679   0.639   5.044   0.599 -1.9352 -1.6529  1.4390
 4422TIP3   OH234680   4.422   3.794   2.919  0.2609 -0.3153 -0.3986
 4422TIP3    H134681   4.365   3.721   2.894 -0.0860 -0.2796  0.2575
 4422TIP3    H234682   4.366   3.851   2.971  1.1896 -0.9061  1.3345
 4423TIP3   OH234683   0.378   2.452  10.486 -0.8030  0.1707  0.1025
 4423TIP3    H134684   0.381   2.468  10.580  0.1681 -1.7866  0.4537
 4423TIP3    H234685   0.417   2.365  10.475  0.9013  1.1194 -2.2844
 4424TIP3   OH234686   3.538   4.329   4.049 -0.7177  0.4583 -0.2747
 4424TIP3    H134687   3.516   4.394   4.116 -1.2053  0.8203 -0.7720
 4424TIP3    H234688   3.582   4.379   3.980 -0.5053  0.1475 -0.3659
 4425TIP3   OH234689   6.304   3.208   2.944  0.3439 -0.2021 -0.4537
 4425TIP3    H134690   6.306   3.174   2.855  2.2879 -1.5370  0.0547
 4425TIP3    H234691   6.375   3.272   2.948  0.1039  0.0448  0.0692
 4426TIP3   OH234692   0.325   6.493  12.424 -0.6668  0.1007  0.4242
 4426TIP3    H134693   0.279   6.548  12.361  0.4566  1.3532  0.6725
 4426TIP3    H234694   0.267   6.418  12.436 -1.2196  0.1559 -1.5638
 4427TIP3   OH234695   4.093   6.635  14.400  0.6897  0.2756  0.6674
 4427TIP3    H134696   4.037   6.678  14.336 -0.5100  0.1401  1.5827
 4427TIP3    H234697   4.109   6.703  14.466  2.3091  0.5617  0.0213
 4428TIP3   OH234698   1.536   5.321   5.928 -0.2826  0.2282 -0.4614
 4428TIP3    H134699   1.461   5.292   5.979  0.6633 -0.8566  0.3580
 4428TIP3    H234700   1.612   5.284   5.973  0.8733  2.4057 -0.4848
 4429TIP3   OH234701   6.532   4.498  12.691  0.0520 -0.3081  0.7765
 4429TIP3    H134702   6.437   4.504  12.700 -0.0566 -2.9069  2.4501
 4429TIP3    H234703   6.567   4.543  12.768  0.0464 -1.4724  1.4816
 4430TIP3   OH234704   1.279   1.416  13.510 -0.1361 -0.1088  0.1231
 4430TIP3    H134705   1.261   1.394  13.601 -0.6395  1.5152  0.4430
 4430TIP3    H234706   1.194   1.406  13.466 -0.2939  0.8089  0.2038
 4431TIP3   OH234707   2.104   3.196   3.847  0.2414 -0.0160  0.3163
 4431TIP3    H134708   2.013   3.165   3.854 -0.0451  0.5775 -0.5779
 4431TIP3    H234709   2.140   3.182   3.934 -1.0992  0.9278  1.0679
 4432TIP3   OH234710   0.720   1.585  16.684 -0.1087  0.1533  0.6037
 4432TIP3    H134711   0.706   1.633  16.765  1.4014  0.4076  0.7398
 4432TIP3    H234712   0.775   1.511  16.710  1.6671  1.0591 -0.4041
 4433TIP3   OH234713   2.398   2.790   5.810 -0.6483 -0.4244 -0.0439
 4433TIP3    H134714   2.420   2.819   5.899  1.7822  2.1388 -1.3161
 4433TIP3    H234715   2.395   2.870   5.759 -0.3662 -1.9426 -2.5908
 4434TIP3   OH234716   5.067   4.886   0.704  0.5480  0.0944  0.2134
 4434TIP3    H134717   5.128   4.910   0.773  2.0100 -0.0146 -1.0030
 4434TIP3    H234718   4.982   4.918   0.736  1.0919 -0.2970  2.2073
 4435TIP3   OH234719   0.584   1.287  13.159  0.0258  0.2927 -0.5640
 4435TIP3    H134720   0.515   1.348  13.185  0.0738  0.2949 -0.4413
 4435TIP3    H234721   0.665   1.339  13.163 -0.0424  0.4675 -1.3325
 4436TIP3   OH234722   2.367   2.049   2.773  0.0735  0.6669  0.4070
 4436TIP3    H134723   2.293   2.104   2.798 -0.9699 -0.8937  0.9344
 4436TIP3    H234724   2.331   1.990   2.707  1.5456  1.5256 -1.2405
 4437TIP3   OH234725   0.140   3.736   3.490 -0.4664 -0.2157 -0.1048
 4437TIP3    H134726   0.129   3.672   3.562  0.6561 -0.0286  0.2461
 4437TIP3    H234727   0.175   3.814   3.533  0.5544 -0.2183 -0.9039
 4438TIP3   OH234728   5.409   0.170   6.496 -0.0740 -0.2945  0.4026
 4438TIP3    H134729   5.402   0.075   6.500  0.2969 -0.3857 -0.6940
 4438TIP3    H234730   5.502   0.187   6.480 -0.1377  0.2467  0.5873
 4439TIP3   OH234731   6.046   4.692   2.710  0.3712 -0.3545 -0.3722
 4439TIP3    H134732   6.002   4.607   2.716  1.7161 -1.2666 -2.3559
 4439TIP3    H234733   5.975   4.755   2.700 -0.5912 -1.4560 -0.7557
 4440TIP3   OH234734   3.387   3.888   5.860 -0.1223 -0.1782 -0.1441
 4440TIP3    H134735   3.467   3.936   5.840 -0.6006  1.3628  1.3774
 4440TIP3    H234736   3.323   3.956   5.883 -1.0063 -1.4794  1.5269
 4441TIP3   OH234737   1.183   0.871   3.341  0.3290  0.4396  0.6514
 4441TIP3    H134738   1.115   0.900   3.401 -0.0285  2.5266 -0.6728
 4441TIP3    H234739   1.263   0.914   3.373  0.0317  2.0115 -0.6266
 4442TIP3   OH234740   1.230   2.841  13.745 -0.1932 -0.2496 -0.3579
 4442TIP3    H134741   1.276   2.922  13.720  0.9577 -1.0767 -0.9881
 4442TIP3    H234742   1.187   2.812  13.665 -0.3937 -0.4024 -0.1966
 4443TIP3   OH234743   5.723   1.752   4.805  0.4860  0.1851 -0.1784
 4443TIP3    H134744   5.668   1.799   4.743 -0.8217 -0.2530  0.6020
 4443TIP3    H234745   5.811   1.789   4.793  0.1357  0.5739 -1.7844
 4444TIP3   OH234746   2.989   4.027   2.256 -0.2037 -0.1344  0.5615
 4444TIP3    H134747   3.057   3.961   2.270 -1.2945 -1.7319 -1.1792
 4444TIP3    H234748   2.951   4.040   2.343 -1.0304 -3.1004  0.7672
 4445TIP3   OH234749   1.044   3.421  12.353  0.5136  0.1672 -0.3939
 4445TIP3    H134750   1.003   3.488  12.408 -0.4260  0.3791 -1.3205
 4445TIP3    H234751   1.085   3.361  12.415 -1.8332 -0.4652  0.6698
 4446TIP3   OH234752   6.550   2.695   5.540 -0.1134  0.9268 -0.3728
 4446TIP3    H134753   6.486   2.750   5.494 -2.3038 -0.7070  0.5234
 4446TIP3    H234754   6.517   2.692   5.630  1.7974  0.7705  0.3574
 4447TIP3   OH234755   4.850   2.682  16.329  0.1202 -0.1648  0.1633
 4447TIP3    H134756   4.873   2.740  16.401  2.4753 -0.8453  0.0297
 4447TIP3    H234757   4.765   2.646  16.354 -0.6655  2.0626  1.0029
 4448TIP3   OH234758   5.074   3.529  12.176 -0.0729  0.7329 -0.0846
 4448TIP3    H134759   5.033   3.453  12.135  0.7517 -0.3416  1.0216
 4448TIP3    H234760   5.075   3.509  12.269  1.5850  1.3851  0.0824
 4449TIP3   OH234761   2.854   4.529   5.821  0.1783 -0.5241  0.7024
 4449TIP3    H134762   2.881   4.601   5.764  0.8648 -1.3152  0.0198
 4449TIP3    H234763   2.900   4.546   5.903  2.7371 -1.7681 -0.3924
 4450TIP3   OH234764   3.725   0.932   3.502 -0.2175  0.2347 -0.4573
 4450TIP3    H134765   3.781   0.863   3.537  1.3464  0.8040 -1.7084
 4450TIP3    H234766   3.709   0.990   3.576 -0.5080 -0.7846  0.3047
 4451TIP3   OH234767   2.713   4.547  11.659  0.0166 -0.1226 -0.0266
 4451TIP3    H134768   2.639   4.557  11.719 -1.7062 -0.3584 -1.9857
 4451TIP3    H234769   2.774   4.617  11.683  0.1352 -1.0870  2.8961
 4452TIP3   OH234770   4.063   0.039   2.002  0.1009  0.7229 -0.0662
 4452TIP3    H134771   4.088   0.026   2.094  1.3305  1.9187 -0.1903
 4452TIP3    H234772   4.107  -0.031   1.955 -0.0888  0.4272  0.1921
 4453TIP3   OH234773   6.002   3.959  10.907  0.4582  0.1266  0.1050
 4453TIP3    H134774   5.958   3.904  10.842  0.5910 -1.0705  0.9942
 4453TIP3    H234775   6.075   3.999  10.859  0.1304 -0.1677 -0.6572
 4454TIP3   OH234776   5.233   1.556  16.287 -0.0639  0.5743  0.2324
 4454TIP3    H134777   5.192   1.489  16.342 -0.4734 -0.1073 -0.8545
 4454TIP3    H234778   5.273   1.507  16.215 -0.7531  1.5051 -0.8337
 4455TIP3   OH234779   4.662   3.665  11.274  0.3836 -0.7381  0.2498
 4455TIP3    H134780   4.666   3.571  11.257  0.9083 -1.2712  2.8054
 4455TIP3    H234781   4.649   3.671  11.369  3.2999  1.7454  0.6355
 4456TIP3   OH234782   4.589   4.699  11.361 -0.5551  0.2258  0.1322
 4456TIP3    H134783   4.642   4.647  11.422  0.9737 -0.5858 -1.7894
 4456TIP3    H234784   4.617   4.789  11.377 -0.5754  0.0954  0.9852
 4457TIP3   OH234785   3.741   5.890   2.233 -0.7865  0.6466 -0.3354
 4457TIP3    H134786   3.835   5.905   2.227 -0.4464 -1.4852 -1.1269
 4457TIP3    H234787   3.702   5.961   2.181  0.5359  0.2752 -1.9179
 4458TIP3   OH234788   0.919   1.820  12.408  0.1063  0.4074 -0.5351
 4458TIP3    H134789   0.855   1.850  12.343  1.1700  0.6853 -1.4764
 4458TIP3    H234790   0.900   1.726  12.418 -0.1839  0.4014 -1.1096
 4459TIP3   OH234791   0.284   2.123   3.191 -0.2629  0.0344 -0.7164
 4459TIP3    H134792   0.227   2.185   3.144 -2.2661 -0.7760  0.4864
 4459TIP3    H234793   0.251   2.037   3.166  1.6720 -0.5452 -1.3922
 4460TIP3   OH234794   5.814   0.147   3.101 -0.3410  0.0492 -0.1721
 4460TIP3    H134795   5.744   0.117   3.043 -0.0229 -0.0431 -0.5135
 4460TIP3    H234796   5.830   0.073   3.160 -0.7863  0.2076  0.1492
 4461TIP3   OH234797   2.159   5.873   3.497 -0.3867 -0.1575 -0.2036
 4461TIP3    H134798   2.072   5.837   3.517  0.5202 -2.3450  0.0890
 4461TIP3    H234799   2.191   5.906   3.581 -0.5661 -0.1791 -0.1255
 4462TIP3   OH234800   3.121   1.638   6.089  0.3355 -0.7833  0.1315
 4462TIP3    H134801   3.050   1.584   6.124  2.3256 -2.2066  2.2105
 4462TIP3    H234802   3.093   1.728   6.106 -2.5968 -1.0084 -2.5054
 4463TIP3   OH234803   5.990   0.170  15.402 -0.5691  0.1195  0.2366
 4463TIP3    H134804   5.952   0.082  15.394 -1.2631  0.3619  0.7669
 4463TIP3    H234805   5.979   0.192  15.494 -0.8007  0.9470  0.0163
 4464TIP3   OH234806   5.867   4.856  11.833  0.1893 -0.4064 -0.1693
 4464TIP3    H134807   5.922   4.860  11.754 -2.4240  0.6473 -2.0752
 4464TIP3    H234808   5.782   4.887  11.804 -0.6105  1.1722  3.3987
 4465TIP3   OH234809   0.587   3.217  11.279 -0.2250 -0.5657  0.1558
 4465TIP3    H134810   0.611   3.145  11.220 -0.4407 -0.1753 -0.4151
 4465TIP3    H234811   0.491   3.214  11.282 -0.2501 -0.0488 -0.1841
 4466TIP3   OH234812   5.498   5.558  11.718  0.3521 -0.3824 -0.0381
 4466TIP3    H134813   5.590   5.570  11.692  0.2090  0.3351 -0.2508
 4466TIP3    H234814   5.449   5.571  11.637 -0.1916  3.1189  0.6757
 4467TIP3   OH234815   4.475   3.606   2.659 -0.0015 -0.3189  0.1018
 4467TIP3    H134816   4.552   3.662   2.671  1.0980 -1.6213 -0.4687
 4467TIP3    H234817   4.494   3.528   2.711 -0.9405 -0.6734 -0.0675
 4468TIP3   OH234818   1.332   1.358   4.667 -0.4358  0.0035 -0.1148
 4468TIP3    H134819   1.332   1.447   4.702 -0.0877 -0.7059  1.7888
 4468TIP3    H234820   1.239   1.336   4.657 -0.5809 -0.0389  1.1518
 4469TIP3   OH234821   3.016   1.891   3.587  0.7066  0.7321 -0.0283
 4469TIP3    H134822   2.963   1.968   3.606  0.0746  0.1220  0.7515
 4469TIP3    H234823   3.045   1.860   3.673  0.0368 -0.5215 -0.2191
 4470TIP3   OH234824   2.287   3.783  12.820 -0.1803 -0.5744 -0.5192
 4470TIP3    H134825   2.201   3.817  12.845 -0.0442  0.8555 -1.8294
 4470TIP3    H234826   2.350   3.844  12.859  0.1739 -0.7872 -0.7502
 4471TIP3   OH234827   1.336   2.605  13.413 -0.1385 -0.1338  0.5879
 4471TIP3    H134828   1.415   2.590  13.362  0.0612  2.7299 -0.0719
 4471TIP3    H234829   1.361   2.582  13.502  1.8036  1.5609  0.5658
 4472TIP3   OH234830   4.158   1.179  13.863 -0.0312 -0.3659 -0.1957
 4472TIP3    H134831   4.070   1.155  13.834  0.0466  0.3818 -1.0874
 4472TIP3    H234832   4.166   1.272  13.843  1.6552 -0.8261 -1.9940
 4473TIP3   OH234833   3.256   2.834   1.210 -0.1163 -0.0493  0.2950
 4473TIP3    H134834   3.323   2.770   1.187  0.1459  0.6370 -0.9545
 4473TIP3    H234835   3.283   2.868   1.295  0.6607 -0.3902  0.1908
 4474TIP3   OH234836   1.583   1.183   3.370 -0.1228  0.1250 -0.3168
 4474TIP3    H134837   1.546   1.248   3.310 -0.1058 -0.9011 -1.5018
 4474TIP3    H234838   1.673   1.212   3.384 -0.7622  1.5703  1.0113
 4475TIP3   OH234839   6.713   3.135   0.366  0.9599 -0.2462  0.4386
 4475TIP3    H134840   6.809   3.139   0.358  1.2374 -2.5800  1.7092
 4475TIP3    H234841   6.696   3.049   0.404 -1.6999 -0.0566 -0.1529
 4476TIP3   OH234842   6.225   1.536  11.856  0.2010  0.1479 -0.4065
 4476TIP3    H134843   6.270   1.452  11.865 -1.9001 -0.8172  3.8221
 4476TIP3    H234844   6.295   1.601  11.865  1.4600 -1.1838 -0.1286
 4477TIP3   OH234845   6.655   6.133   0.657  0.3512 -0.3608 -0.3269
 4477TIP3    H134846   6.606   6.183   0.592 -0.1117 -0.9496 -0.4438
 4477TIP3    H234847   6.733   6.103   0.610  1.1043  0.9976 -0.0017
 4478TIP3   OH234848   0.948   3.998   1.450  0.3063 -0.3364 -0.5245
 4478TIP3    H134849   0.980   4.018   1.362 -0.9507  1.2934 -0.6650
 4478TIP3    H234850   0.866   4.048   1.457  0.5789 -0.1169  1.7053
 4479TIP3   OH234851   2.738   5.736  15.929  0.1247  0.1218  0.0056
 4479TIP3    H134852   2.760   5.756  16.020 -0.5994  2.8608 -0.3213
 4479TIP3    H234853   2.642   5.734  15.928  0.0311  2.1142 -0.9642
 4480TIP3   OH234854   2.170   3.682   3.983 -0.0424 -0.6012 -0.3641
 4480TIP3    H134855   2.240   3.690   4.047 -0.8970  1.4683  0.3768
 4480TIP3    H234856   2.096   3.646   4.032 -0.3991  0.0608 -0.4082
 4481TIP3   OH234857   2.981   2.141  13.665  0.2541 -0.2758  0.0357
 4481TIP3    H134858   3.076   2.133  13.654  0.2753  2.0143 -2.3729
 4481TIP3    H234859   2.944   2.100  13.587 -0.5965  0.7874 -0.1477
 4482TIP3   OH234860   4.111   0.577   5.515  0.1329 -0.0902  0.7057
 4482TIP3    H134861   4.105   0.565   5.420 -0.9679 -0.6064  0.8193
 4482TIP3    H234862   4.078   0.494   5.551 -2.3054  1.1524  1.5396
 4483TIP3   OH234863   6.657   2.742  16.399 -0.2760  0.1483 -0.2861
 4483TIP3    H134864   6.729   2.789  16.440  1.6132 -0.3596 -2.7739
 4483TIP3    H234865   6.690   2.653  16.386 -1.7922 -0.4250 -0.4725
 4484TIP3   OH234866   5.100   3.067  16.306  0.0747  0.2655 -0.6576
 4484TIP3    H134867   5.077   3.146  16.355  1.2658  0.5495 -0.5410
 4484TIP3    H234868   5.133   3.007  16.372 -0.7989 -0.3374 -0.7512
 4485TIP3   OH234869   4.126   5.779   4.475  0.2956 -0.1633 -0.2545
 4485TIP3    H134870   4.110   5.687   4.492 -1.3162 -0.3577 -2.3164
 4485TIP3    H234871   4.066   5.826   4.533  1.6830 -0.3307  1.3694
 4486TIP3   OH234872   5.338   5.408  11.498  0.2473  0.0916 -0.1188
 4486TIP3    H134873   5.294   5.452  11.425  1.3165  0.9217 -0.3029
 4486TIP3    H234874   5.430   5.405  11.471  0.8538  1.4004  1.6246
 4487TIP3   OH234875   1.184   4.437   2.820 -0.0890 -0.0810  0.0084
 4487TIP3    H134876   1.144   4.388   2.748 -0.7325  0.8065 -0.2586
 4487TIP3    H234877   1.110   4.468   2.871  0.3298  0.1749  0.4636
 4488TIP3   OH234878   3.873   2.445   0.160  0.0099 -0.6974  0.4494
 4488TIP3    H134879   3.857   2.538   0.141  0.4877 -1.0503 -1.9952
 4488TIP3    H234880   3.881   2.442   0.255 -0.0098  1.7685  0.6162
 4489TIP3   OH234881   4.764   6.788   1.081 -0.1972 -0.0098 -0.3189
 4489TIP3    H134882   4.795   6.754   0.997 -1.0766 -1.7332  0.0115
 4489TIP3    H234883   4.686   6.838   1.059 -0.7515 -0.9217 -0.5052
 4490TIP3   OH234884   6.645   1.947   0.661  0.3018 -0.1791  0.8111
 4490TIP3    H134885   6.676   2.003   0.590 -1.3721 -0.5407 -0.2411
 4490TIP3    H234886   6.682   1.861   0.642  0.7227 -0.0465  0.9955
 4491TIP3   OH234887   1.529   2.960   3.558  0.0062 -0.2354  0.4283
 4491TIP3    H134888   1.564   2.885   3.509  0.0537  0.8537 -1.2761
 4491TIP3    H234889   1.451   2.926   3.601 -1.3628 -0.7518 -2.2435
 4492TIP3   OH234890   3.250   0.496   3.818  0.0860  0.8868 -0.3992
 4492TIP3    H134891   3.157   0.511   3.800 -0.7255 -1.7870  1.0246
 4492TIP3    H234892   3.271   0.416   3.770  2.2843  2.4760 -2.3078
 4493TIP3   OH234893   6.228   0.149  16.238 -0.2554  0.0843  0.9189
 4493TIP3    H134894   6.166   0.138  16.310 -0.1957 -1.3430  0.7653
 4493TIP3    H234895   6.312   0.120  16.274 -0.0015  0.3973  0.5970
 4494TIP3   OH234896   6.046   2.763  12.895  0.2649 -0.2571 -0.2839
 4494TIP3    H134897   6.139   2.755  12.878  0.6364 -1.4093  1.8574
 4494TIP3    H234898   6.005   2.763  12.809  2.1004 -1.7974 -1.2301
 4495TIP3   OH234899   4.522   0.354  12.860  0.8452  0.0712  0.1919
 4495TIP3    H134900   4.589   0.355  12.928  0.6888  0.0143  0.3485
 4495TIP3    H234901   4.493   0.263  12.855  0.8202  0.0846  0.0860
 4496TIP3   OH234902   2.292   5.191   6.001 -0.2242 -0.4709 -0.0225
 4496TIP3    H134903   2.228   5.191   6.073 -0.7816  0.0057 -0.5013
 4496TIP3    H234904   2.286   5.104   5.964 -1.2790 -0.1549 -0.6372
 4497TIP3   OH234905   0.466   6.037   1.896  0.5498 -0.1766  0.3092
 4497TIP3    H134906   0.390   5.981   1.882  0.5962 -0.1696  0.0303
 4497TIP3    H234907   0.512   6.038   1.812 -0.8657  2.4089 -0.5544
 4498TIP3   OH234908   6.719   5.111   3.907  0.0476 -0.3851 -0.0579
 4498TIP3    H134909   6.724   5.192   3.956  2.1823 -1.1191  1.0511
 4498TIP3    H234910   6.709   5.139   3.816 -0.1619  1.0896  0.3929
 4499TIP3   OH234911   4.171   4.475   3.928  0.1017 -0.3110 -0.0628
 4499TIP3    H134912   4.116   4.432   3.862  0.5895  0.6548 -1.1240
 4499TIP3    H234913   4.228   4.534   3.878 -0.2275  1.2384  1.2923
 4500TIP3   OH234914   1.484   3.096  13.829  0.2810  0.2498 -0.3122
 4500TIP3    H134915   1.431   3.068  13.754  1.0892  0.9061 -1.1565
 4500TIP3    H234916   1.455   3.185  13.848 -0.2769 -0.0929  0.5017
 4501TIP3   OH234917   1.499   0.823  16.008  0.3721 -0.0188  0.1426
 4501TIP3    H134918   1.578   0.840  16.059 -0.8356 -0.2004  2.2349
 4501TIP3    H234919   1.433   0.880  16.048 -0.8353 -0.7908 -0.7034
 4502TIP3   OH234920   2.717   6.009   2.144 -0.2730  0.3476  0.9140
 4502TIP3    H134921   2.706   5.989   2.051  0.4816  0.4430  0.7965
 4502TIP3    H234922   2.631   5.994   2.182 -0.0541 -2.0354  0.6315
 4503TIP3   OH234923   6.492   1.829  13.023  0.9621  0.0461 -0.2113
 4503TIP3    H134924   6.418   1.848  12.966  0.1067 -0.5227  0.6796
 4503TIP3    H234925   6.485   1.893  13.094 -1.0688 -2.3971  2.0063
 4504TIP3   OH234926   6.629   6.243   4.446  0.0803  0.6040  0.2954
 4504TIP3    H134927   6.690   6.317   4.442  0.6471  0.1291  0.0383
 4504TIP3    H234928   6.625   6.211   4.356 -0.0547  0.2332  0.4325
 4505TIP3   OH234929   4.424   6.085  16.122  0.5935 -0.0190 -0.2433
 4505TIP3    H134930   4.494   6.110  16.182  0.0565  1.0416 -0.0191
 4505TIP3    H234931   4.348   6.135  16.152  0.7304  1.9581 -2.7987
 4506TIP3   OH234932   4.987   2.662  16.824 -0.3208 -0.2920 -0.7235
 4506TIP3    H134933   5.000   2.714  16.745 -0.1482  0.1050 -0.4387
 4506TIP3    H234934   5.074   2.654  16.863 -0.5095  0.1442 -0.1933
 4507TIP3   OH234935   1.576   2.321   3.470  0.1592 -0.0856 -0.4279
 4507TIP3    H134936   1.511   2.303   3.538 -0.3145  1.9972 -0.2559
 4507TIP3    H234937   1.550   2.266   3.396 -0.1598 -1.3195  0.5675
 4508TIP3   OH234938   1.584   3.961  12.966 -0.5871  0.2265  0.2803
 4508TIP3    H134939   1.500   4.006  12.955  0.3223  1.8847 -0.3768
 4508TIP3    H234940   1.638   4.023  13.016  0.4898 -0.4370 -0.0138
 4509TIP3   OH234941   4.271   5.970   1.646 -0.2698  0.0850 -0.1719
 4509TIP3    H134942   4.328   6.002   1.716 -0.3032 -0.1924 -0.0162
 4509TIP3    H234943   4.188   5.951   1.690 -0.2061 -0.3476 -0.2393
 4510TIP3   OH234944   6.193   6.692   2.760  0.2759 -0.3283  0.1108
 4510TIP3    H134945   6.125   6.756   2.781 -0.0153  0.2815 -2.3196
 4510TIP3    H234946   6.186   6.681   2.665  1.7762 -2.3386  0.1709
 4511TIP3   OH234947   1.957   5.353   4.215 -0.7202  0.0064 -0.0375
 4511TIP3    H134948   2.015   5.281   4.190 -0.6108  0.2413 -0.4689
 4511TIP3    H234949   1.924   5.329   4.302  1.1275  0.5214  0.8689
 4512TIP3   OH234950   1.446   2.624   1.479 -0.5944 -0.2526  0.3727
 4512TIP3    H134951   1.433   2.576   1.561  0.4074  0.2287  0.8381
 4512TIP3    H234952   1.418   2.714   1.499 -3.2213 -0.7291 -0.7212
 4513TIP3   OH234953   4.257   0.081  14.455 -0.5122 -0.1641  0.1324
 4513TIP3    H134954   4.316   0.063  14.382 -1.1186 -0.1615 -0.3658
 4513TIP3    H234955   4.180   0.120  14.415 -0.6920  0.2152  0.8192
 4514TIP3   OH234956   2.296   2.455  15.645  0.2882  0.5040 -0.1533
 4514TIP3    H134957   2.362   2.434  15.710  2.0861  0.4399 -1.9257
 4514TIP3    H234958   2.315   2.545  15.619 -1.2028  0.9785  0.2690
 4515TIP3   OH234959   4.546   0.529   6.394  0.4321 -0.3851  0.1348
 4515TIP3    H134960   4.611   0.562   6.455 -0.2780 -0.0983  0.7518
 4515TIP3    H234961   4.564   0.575   6.312  1.4967 -0.8995  0.0614
 4516TIP3   OH234962   6.392   3.506   3.847 -0.1762 -0.7874 -0.4249
 4516TIP3    H134963   6.313   3.561   3.853  0.3103 -0.2114  1.8677
 4516TIP3    H234964   6.394   3.460   3.931  2.4961  0.0476  0.0654
 4517TIP3   OH234965   2.209   3.350  16.547  0.6483 -0.1672  0.2539
 4517TIP3    H134966   2.130   3.386  16.507 -0.4528  0.1385  2.5046
 4517TIP3    H234967   2.276   3.359  16.480 -1.0595  0.1616 -1.5229
 4518TIP3   OH234968   1.439   3.584  15.986 -0.7949  0.1909  0.2209
 4518TIP3    H134969   1.462   3.555  15.898 -0.8180  0.6216  0.0718
 4518TIP3    H234970   1.352   3.624  15.977 -2.1974 -2.3904  0.9629
 4519TIP3   OH234971   0.715   3.225   4.837  0.0416 -0.6246 -0.3824
 4519TIP3    H134972   0.667   3.290   4.786  1.2152 -0.6811 -1.6093
 4519TIP3    H234973   0.802   3.262   4.849  0.2707 -1.3179  0.2149
 4520TIP3   OH234974   5.612   6.424   0.456  0.5268 -0.5697  0.6461
 4520TIP3    H134975   5.633   6.339   0.417 -1.0055 -0.4980 -0.4112
 4520TIP3    H234976   5.541   6.405   0.518 -1.2041  0.1806 -1.0291
 4521TIP3   OH234977   1.856   5.951   4.151  0.3355 -0.4246  0.6728
 4521TIP3    H134978   1.909   5.877   4.182 -1.1963 -2.4601 -1.2413
 4521TIP3    H234979   1.796   5.970   4.222  1.3644 -0.3536  1.5504
 4522TIP3   OH234980   5.225   0.520  11.710 -0.0495 -0.0480 -0.3669
 4522TIP3    H134981   5.263   0.553  11.791 -0.2344  1.0853 -0.7291
 4522TIP3    H234982   5.292   0.462  11.674  1.8402  2.5904 -1.4617
 4523TIP3   OH234983   5.483   0.450  15.707 -0.2080 -0.2098 -0.8551
 4523TIP3    H134984   5.463   0.361  15.735  0.7153 -0.1619  0.0160
 4523TIP3    H234985   5.568   0.443  15.663  0.0366  0.2833 -0.4785
 4524TIP3   OH234986   3.754   5.106   0.293 -0.0919 -0.2235  0.0696
 4524TIP3    H134987   3.836   5.127   0.246  0.8508 -1.7185  0.9681
 4524TIP3    H234988   3.745   5.177   0.357  0.9093 -0.4093  0.4462
 4525TIP3   OH234989   1.519   1.407  16.353 -0.4934 -0.7289  0.4938
 4525TIP3    H134990   1.444   1.419  16.295 -0.5542 -1.8294  0.3287
 4525TIP3    H234991   1.594   1.435  16.302 -0.8348  0.9957  0.8800
 4526TIP3   OH234992   3.343   4.672   3.045  0.2636 -0.0053  0.1284
 4526TIP3    H134993   3.360   4.631   2.961 -0.0022  0.6344 -0.2465
 4526TIP3    H234994   3.431   4.693   3.079  0.4904 -2.1556  1.0081
 4527TIP3   OH234995   5.608   4.286   1.264  0.0462  0.0423 -0.3022
 4527TIP3    H134996   5.595   4.369   1.311 -1.3145 -0.9646  1.1694
 4527TIP3    H234997   5.547   4.291   1.191 -0.6332  0.0218  0.2480
 4528TIP3   OH234998   4.723   6.419  12.389 -0.3399 -0.0372  0.4300
 4528TIP3    H134999   4.814   6.398  12.366 -1.4663 -3.1186 -1.7854
 4528TIP3    H235000   4.695   6.481  12.322 -0.0323  0.5980  0.8762
 4529TIP3   OH235001   4.800   3.747  12.340 -0.2924  0.5871 -0.1880
 4529TIP3    H135002   4.722   3.747  12.284 -1.3336  0.4634  1.1929
 4529TIP3    H235003   4.831   3.657  12.339 -1.2391  0.2355  0.6440
 4530TIP3   OH235004   0.701   5.619  10.778 -0.4511 -0.4506 -0.3166
 4530TIP3    H135005   0.641   5.639  10.851  0.7893 -2.0648  1.2128
 4530TIP3    H235006   0.786   5.652  10.808  0.2999 -2.1394 -0.5217
 4531TIP3   OH235007   5.048   3.386  12.758 -0.6455 -1.0003  0.5468
 4531TIP3    H135008   4.962   3.396  12.799 -1.1971 -2.2606 -0.2387
 4531TIP3    H235009   5.070   3.294  12.769  1.1734 -0.4792  1.7469
 4532TIP3   OH235010   3.309   2.478  12.408  0.2035  0.0158 -0.0682
 4532TIP3    H135011   3.315   2.510  12.318  0.7611 -0.5492 -0.2421
 4532TIP3    H235012   3.331   2.385  12.402  0.2668 -0.0255  0.6564
 4533TIP3   OH235013   4.518   2.319   5.931  0.4023  0.7242  0.3480
 4533TIP3    H135014   4.480   2.236   5.900 -1.2430  1.3027  0.7358
 4533TIP3    H235015   4.482   2.331   6.018  0.6049  1.8581  0.2868
 4534TIP3   OH235016   0.877   1.775   5.646 -0.5160  0.1368 -0.8221
 4534TIP3    H135017   0.922   1.804   5.567  2.6167 -2.9688 -0.4046
 4534TIP3    H235018   0.863   1.681   5.633 -0.5188 -0.3459  2.0016
 4535TIP3   OH235019   3.225   2.085   4.818 -0.8020 -0.0277 -0.2425
 4535TIP3    H135020   3.258   2.058   4.732 -1.8175  1.5851 -1.1936
 4535TIP3    H235021   3.267   2.025   4.880  0.5057 -0.7845 -1.7873
 4536TIP3   OH235022   1.126   5.137  13.468  0.0092 -0.3325 -0.1129
 4536TIP3    H135023   1.137   5.217  13.519  1.8470 -1.4218  1.3576
 4536TIP3    H235024   1.214   5.117  13.435 -0.2992 -1.9554 -0.0564
 4537TIP3   OH235025   2.458   5.353   2.549  0.4175  0.5344  0.1769
 4537TIP3    H135026   2.412   5.371   2.467 -0.3755  1.2799  0.7637
 4537TIP3    H235027   2.509   5.432   2.567  0.7794  0.2804  0.2773
 4538TIP3   OH235028   0.008   0.901  12.496 -0.3049 -0.4605 -0.4737
 4538TIP3    H135029  -0.055   0.934  12.432 -0.2180 -2.0641 -1.4407
 4538TIP3    H235030  -0.043   0.843  12.552 -0.3456  0.8114  0.8538
 4539TIP3   OH235031   6.468   0.843   3.225 -0.3272 -0.1156  0.3861
 4539TIP3    H135032   6.538   0.794   3.268  0.0526 -0.0453 -0.1390
 4539TIP3    H235033   6.411   0.872   3.296  1.0277  1.1917  0.9963
 4540TIP3   OH235034   6.617   2.912   5.765 -0.7592 -0.1698  0.2092
 4540TIP3    H135035   6.592   2.833   5.813  0.4316 -0.8678 -0.2581
 4540TIP3    H235036   6.709   2.897   5.743 -0.5231  1.3412  0.0796
 4541TIP3   OH235037   5.970   0.293   3.470 -0.0671 -0.7714  0.3227
 4541TIP3    H135038   5.963   0.365   3.407  2.2745  1.1082  2.0214
 4541TIP3    H235039   5.879   0.263   3.483 -1.1474  1.8746 -0.4713
 4542TIP3   OH235040   6.610   1.704  15.410 -0.2321 -0.1042 -0.1959
 4542TIP3    H135041   6.565   1.624  15.438  0.7689 -0.1115  1.5438
 4542TIP3    H235042   6.600   1.763  15.485 -0.5917  1.2565 -1.2986
 4543TIP3   OH235043   5.344   2.354  12.570 -0.0906  0.4190  0.9042
 4543TIP3    H135044   5.406   2.351  12.498  0.2871  1.1992  1.1829
 4543TIP3    H235045   5.284   2.282  12.553  1.5422 -1.0890  1.2177
 4544TIP3   OH235046   5.396   4.245   3.676 -0.2452  0.5198  0.3809
 4544TIP3    H135047   5.485   4.276   3.659  0.2512 -0.6703  0.7408
 4544TIP3    H235048   5.385   4.253   3.770 -0.5683  0.7754  0.3229
 4545TIP3   OH235049   1.932   1.762   0.117 -0.8519 -0.1346  0.2766
 4545TIP3    H135050   1.861   1.795   0.063 -0.1889  0.2281 -0.4006
 4545TIP3    H235051   1.891   1.739   0.200 -2.0659 -1.5126 -0.6476
 4546TIP3   OH235052   4.067   4.205   5.905 -0.3775  0.5504 -0.3450
 4546TIP3    H135053   4.003   4.277   5.897  0.0744  0.9477 -0.4476
 4546TIP3    H235054   4.019   4.127   5.879 -1.0620  0.7211  0.3574
 4547TIP3   OH235055   5.269   5.826  14.740  0.1850 -0.0269 -0.0795
 4547TIP3    H135056   5.350   5.849  14.694  0.0089 -0.8661 -0.8389
 4547TIP3    H235057   5.204   5.888  14.708  0.6341  1.0312  0.9674
 4548TIP3   OH235058   2.452   2.957  10.852 -0.2184 -0.4423  0.1201
 4548TIP3    H135059   2.505   2.891  10.896 -1.6161  0.0167  2.6706
 4548TIP3    H235060   2.431   3.021  10.920 -3.3981 -0.2094 -0.9182
 4549TIP3   OH235061   3.512   6.629  11.828  0.0791 -0.2902  0.1699
 4549TIP3    H135062   3.447   6.682  11.873 -1.1412 -0.2872 -1.5035
 4549TIP3    H235063   3.470   6.543  11.817  1.2399 -0.9985  1.0470
 4550TIP3   OH235064   0.298   4.605  13.358  0.4016 -0.1124 -0.2710
 4550TIP3    H135065   0.366   4.537  13.353 -1.7301 -2.2550 -2.4197
 4550TIP3    H235066   0.293   4.641  13.270 -1.4123 -0.2289 -0.2532
 4551TIP3   OH235067   5.973   0.160  14.603  0.2979 -0.2179 -0.2980
 4551TIP3    H135068   5.879   0.171  14.595  0.3102 -0.1786 -0.3902
 4551TIP3    H235069   5.997   0.204  14.685  0.2795  0.0267 -0.4239
 4552TIP3   OH235070   6.098   0.054   1.057  0.7089 -0.0558  0.3276
 4552TIP3    H135071   6.141   0.024   1.137 -1.5811 -0.6844  1.4104
 4552TIP3    H235072   6.133   0.142   1.042 -0.4997  1.0566  3.3929
 4553TIP3   OH235073   3.962   3.765   1.619 -0.3082 -0.4362 -0.8490
 4553TIP3    H135074   3.934   3.746   1.530 -1.2097 -0.9081 -0.4772
 4553TIP3    H235075   4.054   3.790   1.611 -0.5574  0.1748 -1.9820
 4554TIP3   OH235076   6.563   4.124  10.424 -0.3783 -0.5353  0.2763
 4554TIP3    H135077   6.505   4.135  10.349 -0.2429 -0.2673  0.2086
 4554TIP3    H235078   6.504   4.109  10.498 -0.6221  1.1483  0.4736
 4555TIP3   OH235079   1.760   6.663   1.306 -0.2470 -0.3089 -0.0847
 4555TIP3    H135080   1.732   6.753   1.322  0.6690 -0.4185  2.7120
 4555TIP3    H235081   1.684   6.610   1.330  0.1816 -0.3620  1.2145
 4556TIP3   OH235082   5.989   1.869  16.744  0.2206  0.3615  0.0778
 4556TIP3    H135083   6.075   1.835  16.771 -0.2500  0.6369  2.1324
 4556TIP3    H235084   5.927   1.802  16.774 -0.5016  1.6921  1.7471
 4557TIP3   OH235085   0.559   0.818   2.383  0.7745  0.2544  0.7728
 4557TIP3    H135086   0.534   0.879   2.452  0.4395 -3.3557  4.2442
 4557TIP3    H235087   0.653   0.804   2.396  0.6653 -0.6386  0.6992
 4558TIP3   OH235088   5.025   5.030  12.869  0.0682 -0.4017 -0.2652
 4558TIP3    H135089   5.050   5.042  12.778 -0.0188  0.0659 -0.2275
 4558TIP3    H235090   4.940   5.074  12.878  0.2983 -0.0293  0.1506
 4559TIP3   OH235091   4.151   6.163  17.122  0.1891 -0.2597  0.1128
 4559TIP3    H135092   4.057   6.183  17.129  0.3929  1.1758 -0.9545
 4559TIP3    H235093   4.166   6.153  17.028  0.8920 -1.7374  0.3490
 4560TIP3   OH235094   4.798   2.840   0.627  0.3432  0.1996  0.1316
 4560TIP3    H135095   4.868   2.796   0.675 -0.7893  0.6174  2.3313
 4560TIP3    H235096   4.733   2.772   0.611  0.2738  0.2680  0.1201
 4561TIP3   OH235097   5.246   6.460   1.701 -0.3970 -0.0486 -0.4044
 4561TIP3    H135098   5.278   6.380   1.743 -0.3013 -0.0681 -0.5178
 4561TIP3    H235099   5.324   6.507   1.674 -0.2590  1.5506  2.3397
 4562TIP3   OH235100   3.729   5.479  11.171 -0.1321  0.1188  0.4971
 4562TIP3    H135101   3.768   5.460  11.086  0.6171  0.7205  0.7057
 4562TIP3    H235102   3.668   5.551  11.155  0.1081  0.3208  0.4981
 4563TIP3   OH235103   6.517   6.110  12.932  0.4092 -0.2231 -0.0642
 4563TIP3    H135104   6.596   6.096  12.881 -0.1028  0.1545 -0.9977
 4563TIP3    H235105   6.446   6.108  12.867 -0.2263  0.6104  0.5731
 4564TIP3   OH235106   2.764   3.523  13.019  0.2174  0.0666  0.3803
 4564TIP3    H135107   2.785   3.592  13.083  1.7452  0.5037 -0.5465
 4564TIP3    H235108   2.830   3.456  13.034 -0.6154 -0.7299  0.5492
 4565TIP3   OH235109   1.594   5.746  12.954  0.0800 -0.1606  0.4399
 4565TIP3    H135110   1.586   5.690  13.031  0.4263  0.6442  1.0759
 4565TIP3    H235111   1.680   5.726  12.919  1.0145  1.3329  1.7856
 4566TIP3   OH235112   1.622   2.444  12.096 -0.1504 -0.2645 -0.7304
 4566TIP3    H135113   1.591   2.526  12.058 -0.4850 -0.2024 -0.3315
 4566TIP3    H235114   1.612   2.456  12.190 -1.2586 -1.1765 -0.7098
 4567TIP3   OH235115   0.652   1.278   0.789 -0.6319  0.1648 -0.4332
 4567TIP3    H135116   0.673   1.356   0.842  0.1994  0.2097 -0.8115
 4567TIP3    H235117   0.594   1.226   0.845  1.6508 -0.6878  1.3268
 4568TIP3   OH235118   4.886   0.174  16.512 -0.0090 -0.2740  0.2423
 4568TIP3    H135119   4.931   0.205  16.591 -0.2576  0.2916  0.1673
 4568TIP3    H235120   4.877   0.080  16.526 -1.5971  0.0417  1.7006
 4569TIP3   OH235121   4.803   5.764  13.817 -0.2638 -0.6557  0.2011
 4569TIP3    H135122   4.890   5.767  13.777  0.3270 -0.5737  1.4708
 4569TIP3    H235123   4.766   5.851  13.802 -0.7690 -1.1360 -1.6646
 4570TIP3   OH235124   1.316   5.919  13.088 -0.4032 -0.3357 -0.0987
 4570TIP3    H135125   1.371   5.931  13.011 -1.5820 -0.0192 -0.8978
 4570TIP3    H235126   1.324   6.001  13.136 -0.4373 -0.1766 -0.3680
 4571TIP3   OH235127   4.964   1.595  15.065 -0.1780  0.0582 -0.0627
 4571TIP3    H135128   4.899   1.643  15.116 -0.7006 -0.5295 -0.1570
 4571TIP3    H235129   5.012   1.662  15.017 -1.2351  0.4620 -0.5987
 4572TIP3   OH235130   6.581   0.331  15.187  0.4678 -0.1730  0.0384
 4572TIP3    H135131   6.669   0.323  15.151  1.4611 -0.2515  2.3128
 4572TIP3    H235132   6.570   0.253  15.241 -1.0379 -0.1875 -0.2442
 4573TIP3   OH235133   4.888   2.102  11.833  0.3084 -0.0402 -0.2948
 4573TIP3    H135134   4.869   2.137  11.746  1.1593  0.6076 -0.2285
 4573TIP3    H235135   4.975   2.063  11.825 -0.1007 -1.0312 -0.0365
 4574TIP3   OH235136   2.550   2.111  15.935 -0.3630  0.6192  0.0932
 4574TIP3    H135137   2.557   2.018  15.912 -1.0725  0.7356 -0.6393
 4574TIP3    H235138   2.562   2.113  16.030 -0.7034 -0.2646  0.1650
 4575TIP3   OH235139   5.953   4.661   3.570  0.1130  0.4264  0.0672
 4575TIP3    H135140   6.027   4.721   3.559 -0.9850  1.6482 -1.0498
 4575TIP3    H235141   5.972   4.614   3.651  2.7164 -0.2089 -0.8173
 4576TIP3   OH235142   0.526   5.714   5.523 -0.2662  0.7590 -0.6916
 4576TIP3    H135143   0.458   5.648   5.509 -1.6776  1.6280  1.4725
 4576TIP3    H235144   0.591   5.671   5.579 -0.3188  0.6876 -0.6858
 4577TIP3   OH235145   0.393   6.540   3.241  0.4177 -0.1385  0.2667
 4577TIP3    H135146   0.398   6.575   3.152 -1.1214 -0.1933  0.1305
 4577TIP3    H235147   0.460   6.472   3.244 -0.1057 -0.7540 -1.1497
 4578TIP3   OH235148   3.057   2.591   5.010  0.2504  0.4263 -0.1499
 4578TIP3    H135149   3.144   2.552   5.007 -0.3053 -0.8811 -0.4186
 4578TIP3    H235150   3.068   2.674   5.055  1.6826  0.4255 -0.4740
 4579TIP3   OH235151   6.758   0.637  11.251  0.5865 -0.0291  0.2557
 4579TIP3    H135152   6.723   0.723  11.229  1.8042  0.7099  1.1393
 4579TIP3    H235153   6.745   0.585  11.171 -0.7070  0.7781 -0.0830
 4580TIP3   OH235154   2.359   4.967  16.294 -0.4448 -0.8104 -0.1932
 4580TIP3    H135155   2.311   5.044  16.263 -0.3076 -0.8540 -0.5118
 4580TIP3    H235156   2.443   4.970  16.249 -0.8836 -1.7809 -1.1056
 4581TIP3   OH235157   1.889   5.075   2.110 -0.1001  0.1570  0.1613
 4581TIP3    H135158   1.895   4.987   2.073  0.8107 -0.1479  0.9904
 4581TIP3    H235159   1.958   5.124   2.065 -2.5653  1.3949 -2.6290
 4582TIP3   OH235160   4.978   2.452   0.142  0.3601  0.0272 -0.5209
 4582TIP3    H135161   4.976   2.519   0.074  1.6590  0.7646  0.1067
 4582TIP3    H235162   5.053   2.477   0.197  1.2650 -2.2553 -0.5855
 4583TIP3   OH235163   4.737   0.367   6.155 -0.4498  0.0727 -0.0288
 4583TIP3    H135164   4.686   0.304   6.204 -0.3591  1.6869  2.3009
 4583TIP3    H235165   4.694   0.451   6.172  0.8553  0.9886 -1.0276
 4584TIP3   OH235166   2.030   4.655   3.843 -0.2158  0.1658 -0.0148
 4584TIP3    H135167   2.015   4.691   3.930 -0.4465  0.1382 -0.0434
 4584TIP3    H235168   2.116   4.688   3.818 -0.2529  0.3690  0.1254
 4585TIP3   OH235169   4.022   3.686  12.226  0.0551 -0.3397  0.0854
 4585TIP3    H135170   3.927   3.692  12.233 -0.0034 -0.3448 -0.5995
 4585TIP3    H235171   4.053   3.776  12.238  0.0360 -0.4675  1.1765
 4586TIP3   OH235172   1.579   6.123   5.272  0.0689 -0.4277  0.3634
 4586TIP3    H135173   1.578   6.192   5.337 -2.4514  1.5714 -1.5743
 4586TIP3    H235174   1.529   6.051   5.311  0.5676 -0.1884  1.4592
 4587TIP3   OH235175   0.419   6.733   4.140  0.1550 -0.0940 -0.2454
 4587TIP3    H135176   0.352   6.675   4.104 -0.1340  0.8042 -1.2136
 4587TIP3    H235177   0.501   6.685   4.128 -0.1714 -0.6814 -0.1800
 4588TIP3   OH235178   3.355   4.431   6.768 -0.2092 -0.1138  0.1664
 4588TIP3    H135179   3.367   4.524   6.752  0.9838 -0.5274 -1.5106
 4588TIP3    H235180   3.433   4.404   6.817 -0.7444 -0.1821  1.0167
 4589TIP3   OH235181   3.697   1.603   6.350 -0.4998  0.3697  0.1025
 4589TIP3    H135182   3.752   1.681   6.359 -0.9830  0.5979  1.2216
 4589TIP3    H235183   3.756   1.536   6.315  0.4734  0.6342  1.1817
 4590TIP3   OH235184   4.157   5.559  11.120 -0.2104  0.0172 -0.4587
 4590TIP3    H135185   4.096   5.605  11.177 -0.1911 -1.3442  0.7322
 4590TIP3    H235186   4.169   5.617  11.045 -1.6770  1.0379  0.0592
 4591TIP3   OH235187   3.406   5.325  16.588 -0.4543  0.2321 -0.3142
 4591TIP3    H135188   3.314   5.300  16.591 -0.8465  1.6172 -0.2076
 4591TIP3    H235189   3.453   5.250  16.626 -1.3120 -1.4098 -2.3011
 4592TIP3   OH235190   4.745   2.717   2.916  0.3792  0.1271  0.3317
 4592TIP3    H135191   4.694   2.636   2.922  0.8930 -0.2015  0.3414
 4592TIP3    H235192   4.680   2.787   2.918  0.0258 -0.2037  2.2540
 4593TIP3   OH235193   4.570   4.732  16.239  0.4885  0.0009  0.4119
 4593TIP3    H135194   4.578   4.660  16.176  0.7687  0.4895 -0.1231
 4593TIP3    H235195   4.485   4.771  16.219  0.8075  0.4845 -0.0249
 4594TIP3   OH235196   5.406   4.691   3.475 -0.2123 -0.4765 -0.1082
 4594TIP3    H135197   5.460   4.753   3.523  1.1041 -0.0808 -1.9831
 4594TIP3    H235198   5.329   4.743   3.448  0.2241 -0.0208 -0.5008
 4595TIP3   OH235199   5.834   6.231   3.912  0.1064  0.3090 -0.2300
 4595TIP3    H135200   5.849   6.319   3.877  3.0215  0.0742  0.2447
 4595TIP3    H235201   5.877   6.172   3.850 -0.8604 -0.7289  0.0378
 4596TIP3   OH235202   0.261   0.912  17.226  0.4137 -1.0592  0.0724
 4596TIP3    H135203   0.308   0.838  17.189  1.4617  0.2072 -1.2728
 4596TIP3    H235204   0.309   0.934  17.305  1.7492 -0.2241 -0.9174
 4597TIP3   OH235205   0.442   5.933  17.156  0.2652 -0.2190  0.2322
 4597TIP3    H135206   0.507   5.915  17.224 -0.3693 -1.7860  0.4858
 4597TIP3    H235207   0.376   5.987  17.200  0.6247  0.0670  0.4212
 4598TIP3   OH235208   1.773   3.700   4.208  0.1997 -0.0074  0.4891
 4598TIP3    H135209   1.750   3.629   4.268  1.1728 -0.2328  0.6136
 4598TIP3    H235210   1.753   3.780   4.257 -0.0176 -0.1935  0.7085
 4599TIP3   OH235211   5.468   6.613  15.652  0.2467 -0.9272 -0.0587
 4599TIP3    H135212   5.465   6.518  15.651  0.6154 -0.9345 -0.8769
 4599TIP3    H235213   5.407   6.638  15.722 -2.3194 -1.6839 -1.8811
 4600TIP3   OH235214   6.783   4.450  17.080  0.5067  0.3748 -0.0022
 4600TIP3    H135215   6.823   4.404  17.154 -0.1702  1.6204  1.1956
 4600TIP3    H235216   6.850   4.511  17.050  0.5846  0.2718 -0.0372
 4601TIP3   OH235217   6.417   1.463   5.330 -0.0925 -0.3948  0.5373
 4601TIP3    H135218   6.468   1.531   5.286 -1.8141  0.2194 -0.6061
 4601TIP3    H235219   6.326   1.487   5.314 -0.7555 -2.3714  1.0681
 4602TIP3   OH235220   0.237   0.025   3.769  0.0104 -0.3385  0.2358
 4602TIP3    H135221   0.296   0.063   3.704 -1.0271 -0.2474 -0.6761
 4602TIP3    H235222   0.292  -0.033   3.820  0.8971 -0.2354 -0.5837
 4603TIP3   OH235223   2.438   1.658   1.613  0.1564  0.4237 -0.8637
 4603TIP3    H135224   2.472   1.674   1.702 -1.5849 -0.6545  0.0531
 4603TIP3    H235225   2.435   1.563   1.606  0.7913  0.4930 -2.3285
 4604TIP3   OH235226   2.853   2.789  12.089 -0.2579  0.1885  0.1123
 4604TIP3    H135227   2.844   2.877  12.127 -3.2701  0.3153 -0.5774
 4604TIP3    H235228   2.855   2.730  12.164 -1.9823  0.6825  0.6081
 4605TIP3   OH235229   3.203   0.464  14.587  0.7467  0.2493  0.6125
 4605TIP3    H135230   3.204   0.400  14.515  0.7310  0.1212  0.7265
 4605TIP3    H235231   3.117   0.453  14.627  0.2067  1.3001 -0.2309
 4606TIP3   OH235232   3.778   1.139   3.077 -0.1153  0.4334 -0.6655
 4606TIP3    H135233   3.745   1.135   3.166  1.2671  1.9573 -0.0238
 4606TIP3    H235234   3.865   1.178   3.086  0.8332 -1.0649 -2.4990
 4607TIP3   OH235235   0.375   6.714  16.885 -0.6738  0.0727 -0.1978
 4607TIP3    H135236   0.298   6.713  16.941  1.1110 -1.1260  2.4222
 4607TIP3    H235237   0.415   6.800  16.899 -0.3058 -0.1711  0.2486
 4608TIP3   OH235238   6.265   0.218  15.339  0.1752  0.1792 -0.2477
 4608TIP3    H135239   6.254   0.195  15.247  0.3229 -1.7345  0.1633
 4608TIP3    H235240   6.185   0.187  15.382  0.5376  0.1273  0.4101
 4609TIP3   OH235241   5.378   0.746  11.160 -0.1440  0.4702 -0.3192
 4609TIP3    H135242   5.455   0.695  11.184  0.0538  0.7492 -0.3557
 4609TIP3    H235243   5.304   0.687  11.175  0.2019 -0.5545 -2.2649
 4610TIP3   OH235244   2.230   1.367   4.181 -0.6698  0.2087 -0.2003
 4610TIP3    H135245   2.306   1.344   4.128  1.1354  0.7665  2.0036
 4610TIP3    H235246   2.211   1.458   4.157  1.1434  1.0014  1.1328
 4611TIP3   OH235247   5.722   1.624   0.558  0.2819 -0.3662 -0.3914
 4611TIP3    H135248   5.656   1.569   0.515  1.4375 -1.4113 -0.8903
 4611TIP3    H235249   5.795   1.564   0.575  0.6197  0.4840  1.2685
 4612TIP3   OH235250   2.395   4.200  13.628 -0.1667  0.1193 -1.0106
 4612TIP3    H135251   2.450   4.123  13.644  0.0044  0.5248  0.4934
 4612TIP3    H235252   2.437   4.245  13.555  2.7002  1.4503  1.2596
 4613TIP3   OH235253   1.184   2.622  12.522 -0.1255  0.0449 -0.1032
 4613TIP3    H135254   1.197   2.592  12.612  1.1504  0.7298 -0.0261
 4613TIP3    H235255   1.259   2.586  12.474 -1.8109 -1.9771 -1.3751
 4614TIP3   OH235256   4.845   4.417   0.559  0.0732 -0.2658 -0.1645
 4614TIP3    H135257   4.932   4.457   0.550 -0.6272  0.9845 -2.1582
 4614TIP3    H235258   4.787   4.490   0.580 -0.9156 -0.5478 -1.7592
 4615TIP3   OH235259   4.369   4.959  15.768  0.3898  0.4443 -0.5937
 4615TIP3    H135260   4.327   4.902  15.703 -0.5044 -2.2885  2.1240
 4615TIP3    H235261   4.297   5.011  15.804  0.6039  0.8537 -0.7572
 4616TIP3   OH235262   3.890   4.999   4.625 -0.1831  0.2488  0.3924
 4616TIP3    H135263   3.934   5.014   4.709 -2.0968  0.3946  1.4178
 4616TIP3    H235264   3.833   5.075   4.614 -1.2498 -0.6104 -0.1756
 4617TIP3   OH235265   2.813   5.486   2.236  0.1697 -0.4212  0.3093
 4617TIP3    H135266   2.864   5.505   2.157 -1.0872 -1.1122 -0.7064
 4617TIP3    H235267   2.840   5.553   2.298 -0.3822  1.5356 -1.4288
 4618TIP3   OH235268   5.484   3.398  12.435  0.0488  0.1959 -0.1539
 4618TIP3    H135269   5.432   3.433  12.508 -0.2732  1.2109 -0.8556
 4618TIP3    H235270   5.515   3.475  12.388  0.9673 -0.4348 -0.6076
 4619TIP3   OH235271   3.702   2.953  14.331  0.3382  0.3549  0.2811
 4619TIP3    H135272   3.755   2.994  14.400 -0.0906  2.0091 -0.3412
 4619TIP3    H235273   3.612   2.960  14.363  0.2496 -0.1100  0.1487
 4620TIP3   OH235274   2.272   1.073   2.273 -0.1642 -0.3624  0.1804
 4620TIP3    H135275   2.348   1.129   2.260 -1.8883  2.2483  0.5233
 4620TIP3    H235276   2.257   1.073   2.367 -0.7746 -0.5802  0.0932
 4621TIP3   OH235277   0.891   4.711   3.150 -0.3382  0.6667  0.0735
 4621TIP3    H135278   0.978   4.692   3.113  0.2488 -0.8581  2.0898
 4621TIP3    H235279   0.908   4.774   3.220 -0.0827 -2.6835  3.3231
 4622TIP3   OH235280   1.232   5.438  16.813 -0.3779  0.2134  0.3519
 4622TIP3    H135281   1.266   5.488  16.738 -1.7364 -1.2316 -1.3051
 4622TIP3    H235282   1.148   5.404  16.783 -0.3199 -1.5752  2.0515
 4623TIP3   OH235283   0.765   2.962  17.040  0.1089  0.4201 -0.1476
 4623TIP3    H135284   0.732   3.026  16.978  0.9890  0.9991 -0.0319
 4623TIP3    H235285   0.855   2.945  17.011 -0.5329 -1.8346 -1.0378
 4624TIP3   OH235286   3.890   3.519   5.186 -0.0296  0.1454  0.2785
 4624TIP3    H135287   3.949   3.526   5.110 -0.4396 -0.5561 -0.1097
 4624TIP3    H235288   3.923   3.585   5.247 -0.9116  2.2030 -1.3279
 4625TIP3   OH235289   5.445   0.072  13.656 -0.2006 -0.3665  0.0880
 4625TIP3    H135290   5.508   0.143  13.647 -0.0475 -0.4339  0.6338
 4625TIP3    H235291   5.387   0.100  13.726 -0.9003 -0.2174 -0.5321
 4626TIP3   OH235292   6.642   4.798   5.363  0.1130 -0.0166  0.0708
 4626TIP3    H135293   6.725   4.759   5.335  0.0437 -1.3239  1.5458
 4626TIP3    H235294   6.663   4.843   5.445 -0.5835 -0.2668  0.3990
 4627TIP3   OH235295   3.966   4.590   4.745  0.5862 -0.2876 -0.7781
 4627TIP3    H135296   3.946   4.559   4.657  0.9985 -1.1486 -0.5839
 4627TIP3    H235297   4.013   4.672   4.732 -2.2114  1.3671 -1.2618
 4628TIP3   OH235298   1.661   5.322  12.584  0.0037 -0.4964  0.5379
 4628TIP3    H135299   1.756   5.312  12.575 -0.2491 -2.8902 -0.2193
 4628TIP3    H235300   1.644   5.302  12.676  0.1582 -1.0634  0.4490
 4629TIP3   OH235301   0.968   6.462  14.938 -0.2614  0.2878  0.0574
 4629TIP3    H135302   0.927   6.465  14.852  0.6133  1.4422 -0.3590
 4629TIP3    H235303   0.921   6.394  14.986 -0.5361 -0.6304 -1.4491
 4630TIP3   OH235304   5.419   4.554  13.514 -0.2435  0.0498  0.0777
 4630TIP3    H135305   5.338   4.587  13.476 -1.3327 -1.3514  1.0819
 4630TIP3    H235306   5.461   4.631  13.552 -0.8773  0.8583 -0.8104
 4631TIP3   OH235307   0.836   3.759   6.696 -0.5247 -0.2386 -0.1607
 4631TIP3    H135308   0.855   3.706   6.619 -0.8264  0.1730 -0.5241
 4631TIP3    H235309   0.922   3.793   6.723 -0.7797  2.6476 -2.5502
 4632TIP3   OH235310   6.469   5.102  11.933  0.5640  0.6685 -0.0539
 4632TIP3    H135311   6.381   5.128  11.959  0.5591  1.5595 -0.9254
 4632TIP3    H235312   6.479   5.135  11.844  0.9564 -1.4301 -0.8389
 4633TIP3   OH235313   4.118   2.989   0.800  0.3187 -0.6048 -0.2367
 4633TIP3    H135314   4.049   3.051   0.823 -1.0067 -2.4870  1.2749
 4633TIP3    H235315   4.071   2.913   0.766  1.6120 -1.9629  0.8658
 4634TIP3   OH235316   6.170   1.246  15.793  0.4147  0.3438 -0.2696
 4634TIP3    H135317   6.122   1.294  15.861 -0.1034  1.5469 -1.4250
 4634TIP3    H235318   6.260   1.277  15.802  0.5108 -0.0843  0.3405
 4635TIP3   OH235319   5.885   3.219   5.386 -0.2238  0.6126 -0.1766
 4635TIP3    H135320   5.874   3.226   5.481  1.5221 -0.4153  0.1381
 4635TIP3    H235321   5.835   3.141   5.362 -1.0621  1.1439 -0.1965
 4636TIP3   OH235322   5.359   4.728  12.356 -0.3751  0.1957 -0.0745
 4636TIP3    H135323   5.369   4.641  12.395  0.6683 -0.6570 -2.1022
 4636TIP3    H235324   5.386   4.717  12.265 -2.0380  2.2328 -0.9070
 4637TIP3   OH235325   1.851   5.211   4.422  0.1070 -0.4199  0.0946
 4637TIP3    H135326   1.802   5.217   4.504 -1.6390 -0.5893 -0.8962
 4637TIP3    H235327   1.907   5.134   4.434  0.0179 -0.3303  1.1904
 4638TIP3   OH235328   2.913   1.532  10.350 -0.0107  0.2802  0.1948
 4638TIP3    H135329   2.838   1.518  10.409  0.5207  0.0033  0.8200
 4638TIP3    H235330   2.974   1.585  10.401 -0.7270  2.4993 -1.1115
 4639TIP3   OH235331   2.239   1.956  12.458 -0.4003  0.4768  0.0867
 4639TIP3    H135332   2.296   2.010  12.403  2.2406 -0.7277  1.4412
 4639TIP3    H235333   2.259   1.866  12.432 -1.3424  0.0030  0.9462
 4640TIP3   OH235334   1.374   1.593  15.075 -0.2857 -0.0884  0.1554
 4640TIP3    H135335   1.405   1.681  15.097  3.0910 -1.2266  0.6054
 4640TIP3    H235336   1.395   1.583  14.982  0.2804 -0.7288  0.3454
 4641TIP3   OH235337   4.799   3.240  12.215 -0.2363 -0.4292 -0.0579
 4641TIP3    H135338   4.757   3.324  12.200 -2.0604 -1.0262  1.3300
 4641TIP3    H235339   4.883   3.247  12.170 -0.4186  2.0347 -0.1652
 4642TIP3   OH235340   6.369   2.102  17.124  0.2052  0.2247  0.1208
 4642TIP3    H135341   6.338   2.037  17.061  0.1497  1.7255 -1.4617
 4642TIP3    H235342   6.463   2.084  17.133 -0.2427 -1.6731  1.7156
 4643TIP3   OH235343   5.273   2.047   4.864 -0.1877 -0.0467 -0.0487
 4643TIP3    H135344   5.281   2.086   4.777 -0.3127  1.9108  0.7644
 4643TIP3    H235345   5.363   2.028   4.890 -0.1790 -1.0745 -0.7513
 4644TIP3   OH235346   0.640   5.643   5.787  0.1766 -1.3412  0.0995
 4644TIP3    H135347   0.682   5.729   5.794 -1.2347 -0.7566  2.5102
 4644TIP3    H235348   0.584   5.637   5.864 -1.8248 -3.3519 -1.3744
 4645TIP3   OH235349   0.850   6.158  13.119  0.2712 -0.0596 -0.0985
 4645TIP3    H135350   0.922   6.182  13.060 -0.2022  0.1437 -0.6074
 4645TIP3    H235351   0.793   6.102  13.065 -1.5883  2.2953 -0.7362
 4646TIP3   OH235352   2.727   3.134   1.688  0.4033 -0.2439  0.1289
 4646TIP3    H135353   2.806   3.120   1.635  0.0963 -1.1735 -0.1083
 4646TIP3    H235354   2.679   3.051   1.681 -0.7795  0.4414 -0.0269
 4647TIP3   OH235355   0.625   5.300  13.052 -0.4209  0.3609 -0.2634
 4647TIP3    H135356   0.548   5.335  13.096 -1.5108  0.0694 -1.8828
 4647TIP3    H235357   0.696   5.314  13.115 -1.5109  1.9114  0.7042
 4648TIP3   OH235358   3.163   4.564  16.595  0.2387  0.2115  0.4379
 4648TIP3    H135359   3.162   4.635  16.659  0.7769  0.0644  0.6234
 4648TIP3    H235360   3.251   4.525  16.605  0.1482 -0.1212 -0.0472
 4649TIP3   OH235361   3.340   1.150   5.766  0.3120  0.0870  0.2628
 4649TIP3    H135362   3.300   1.183   5.686 -0.2490  1.0315  0.9167
 4649TIP3    H235363   3.267   1.114   5.817  0.4562  0.7406  0.9445
 4650TIP3   OH235364   2.082   4.940  15.407 -0.3617 -0.6900  0.3638
 4650TIP3    H135365   2.152   4.883  15.439 -0.3945 -0.6994  0.4192
 4650TIP3    H235366   2.087   4.933  15.312  2.6515  2.7837  0.0862
 4651TIP3   OH235367   1.484   5.403   1.084  0.1273 -0.3739  0.3436
 4651TIP3    H135368   1.407   5.423   1.136  0.3835 -0.0753  0.6136
 4651TIP3    H235369   1.453   5.407   0.993 -0.3620 -1.0997  0.4742
 4652TIP3   OH235370   6.501   1.593  14.951 -0.3122 -0.3953 -0.5098
 4652TIP3    H135371   6.486   1.672  14.900  0.3388  0.1482  0.1227
 4652TIP3    H235372   6.501   1.522  14.886 -1.6292  0.0144 -0.9877
 4653TIP3   OH235373   0.021   6.335  15.854  0.0494 -0.9647 -0.3062
 4653TIP3    H135374   0.035   6.369  15.765  1.9225  0.1297  0.3393
 4653TIP3    H235375  -0.052   6.386  15.888 -0.4353 -1.1260 -1.0742
 4654TIP3   OH235376   2.804   0.110  15.237 -0.3953 -0.4616 -0.5456
 4654TIP3    H135377   2.822   0.195  15.196  0.9169 -1.1096 -1.3799
 4654TIP3    H235378   2.708   0.101  15.232 -0.7108  1.4999  0.7098
 4655TIP3   OH235379   0.132   6.615   5.797  0.2409  0.4437 -0.2395
 4655TIP3    H135380   0.111   6.706   5.778 -0.1218  0.6534  1.0464
 4655TIP3    H235381   0.157   6.615   5.889 -0.8725 -0.9279  0.0920
 4656TIP3   OH235382   4.980   0.501  15.854 -0.1946 -0.3550  0.3332
 4656TIP3    H135383   5.041   0.514  15.926 -0.0088 -1.1805  0.3309
 4656TIP3    H235384   4.903   0.460  15.895 -0.3545 -0.2119  0.1759
 4657TIP3   OH235385   2.842   1.698   1.598 -0.1483  0.1386  0.1169
 4657TIP3    H135386   2.775   1.721   1.662 -2.5002 -0.3629 -2.0433
 4657TIP3    H235387   2.807   1.623   1.552  1.4934  0.4267 -1.7367
 4658TIP3   OH235388   4.970   4.399  14.668  0.0048 -0.8129 -0.6460
 4658TIP3    H135389   4.894   4.425  14.720  0.0957 -2.6847  0.5254
 4658TIP3    H235390   4.945   4.419  14.578 -0.7833  1.0732 -0.0504
 4659TIP3   OH235391   6.733   2.007   5.340 -0.0145  0.1161  0.6996
 4659TIP3    H135392   6.712   1.942   5.408 -0.1314  0.2497  0.7914
 4659TIP3    H235393   6.788   2.071   5.384 -0.2581  0.3115  0.7222
 4660TIP3   OH235394   2.019   3.340  13.247  0.6640 -0.2896  0.5974
 4660TIP3    H135395   1.934   3.320  13.209  1.3088  1.3848 -1.9455
 4660TIP3    H235396   1.999   3.377  13.333 -1.1691 -0.0373  0.0939
 4661TIP3   OH235397   2.342   4.066   1.116 -0.8577  0.1343  0.2494
 4661TIP3    H135398   2.424   4.021   1.133 -0.9939 -0.1939  0.0411
 4661TIP3    H235399   2.277   4.021   1.171 -0.6365  1.3040  1.5161
 4662TIP3   OH235400   4.487   6.750  15.837 -0.5098  0.0076 -0.3485
 4662TIP3    H135401   4.539   6.674  15.813 -0.4072 -0.0247 -0.0357
 4662TIP3    H235402   4.505   6.815  15.770  1.8781  0.8993  1.0369
 4663TIP3   OH235403   3.120   0.871   0.297 -0.6593  0.2439  0.3224
 4663TIP3    H135404   3.084   0.868   0.386 -3.3828  0.0073 -0.7039
 4663TIP3    H235405   3.054   0.918   0.246 -0.0127 -1.1679 -1.9393
 4664TIP3   OH235406   1.747   5.725  14.151 -0.3948  0.3324 -0.4622
 4664TIP3    H135407   1.656   5.752  14.163  0.1488  1.5013  1.4428
 4664TIP3    H235408   1.761   5.657  14.218 -0.0344 -0.3308 -1.1919
 4665TIP3   OH235409   2.410   0.215  11.341  0.1937 -0.1874 -0.1157
 4665TIP3    H135410   2.351   0.281  11.377  0.9298 -0.7399  2.2483
 4665TIP3    H235411   2.373   0.195  11.255 -1.3841  1.5646  0.0827
 4666TIP3   OH235412   1.454   4.497   3.035  0.0941  0.5933 -0.4855
 4666TIP3    H135413   1.382   4.468   2.979 -1.0318  3.3821 -0.6274
 4666TIP3    H235414   1.463   4.428   3.101 -1.0607 -0.9586 -1.8659
 4667TIP3   OH235415   5.886   1.809   0.714  0.4147 -0.1533  0.2958
 4667TIP3    H135416   5.974   1.770   0.710  0.3513 -0.2909  0.2327
 4667TIP3    H235417   5.833   1.752   0.659  0.6135  0.7965 -0.9311
 4668TIP3   OH235418   5.426   1.709  16.398  0.8571 -0.3326  0.4364
 4668TIP3    H135419   5.359   1.659  16.354  1.7665 -1.2166  0.0230
 4668TIP3    H235420   5.378   1.778  16.444 -0.0743  1.9017 -3.4340
 4669TIP3   OH235421   3.268   1.803  14.010  0.2152 -0.1781  0.2372
 4669TIP3    H135422   3.359   1.800  14.039  1.0593 -0.2830 -2.1970
 4669TIP3    H235423   3.247   1.896  14.006  1.0556 -0.0124 -1.4052
 4670TIP3   OH235424   6.259   4.439   2.088 -0.2759  0.3102  0.4410
 4670TIP3    H135425   6.219   4.359   2.054 -0.9806  0.6805  0.3993
 4670TIP3    H235426   6.266   4.497   2.012  0.8011  0.0748  0.3410
 4671TIP3   OH235427   6.501   0.329   5.602  0.1386  0.4282  0.1901
 4671TIP3    H135428   6.454   0.392   5.546  1.9201  0.3878 -1.4346
 4671TIP3    H235429   6.563   0.383   5.651  0.7744  0.1153 -0.2536
 4672TIP3   OH235430   4.667   1.486   2.942  0.5001 -0.3880  0.3528
 4672TIP3    H135431   4.651   1.477   2.848 -1.1597 -0.5143  0.6189
 4672TIP3    H235432   4.744   1.543   2.948  0.3698 -0.0202 -1.0671
 4673TIP3   OH235433   5.567   1.079   3.920 -0.1650  0.2593  0.0289
 4673TIP3    H135434   5.587   1.124   3.838  0.9031  0.2300  0.2613
 4673TIP3    H235435   5.606   1.133   3.988 -1.4141  0.5025  0.5654
 4674TIP3   OH235436   1.697   0.766   1.776 -0.1459  0.8955 -0.0148
 4674TIP3    H135437   1.698   0.702   1.847  0.8238  2.5735  1.5770
 4674TIP3    H235438   1.772   0.822   1.794  0.0147  1.4844 -2.3032
 4675TIP3   OH235439   4.051   5.989   0.848 -0.2407 -1.3394 -0.4685
 4675TIP3    H135440   4.059   5.902   0.808 -2.2538 -0.9322 -1.9064
 4675TIP3    H235441   3.976   5.981   0.908  0.0088 -0.7733 -0.0773
 4676TIP3   OH235442   2.069   2.704  16.414  0.6903  0.6240  0.4320
 4676TIP3    H135443   2.120   2.722  16.336 -0.8091  0.5770 -0.5917
 4676TIP3    H235444   1.978   2.700  16.384  0.1842 -0.5757  1.9672
 4677TIP3   OH235445   1.934   3.864  14.826  0.3248 -0.4946 -0.2906
 4677TIP3    H135446   2.000   3.849  14.894 -0.6439 -2.3923  0.2837
 4677TIP3    H235447   1.850   3.858  14.871 -0.3511 -1.8221 -1.6140
 4678TIP3   OH235448   0.286   0.125  13.394  0.3975 -0.1127 -1.0130
 4678TIP3    H135449   0.211   0.113  13.335 -1.5891  1.9999  0.8825
 4678TIP3    H235450   0.278   0.054  13.457  0.9687 -0.8310 -1.7361
 4679TIP3   OH235451   6.389   2.170   5.482 -0.0992 -0.1287 -0.3506
 4679TIP3    H135452   6.365   2.256   5.515  0.1837 -0.2097  0.0715
 4679TIP3    H235453   6.402   2.183   5.388 -1.9756 -0.1344 -0.6397
 4680TIP3   OH235454   1.580   1.222  11.033  0.2467  0.4408 -0.6835
 4680TIP3    H135455   1.534   1.209  11.116  0.3113  0.8638 -0.5784
 4680TIP3    H235456   1.605   1.134  11.006  2.5409  0.4604  1.0712
 4681TIP3   OH235457   0.425   3.139  13.342 -0.2848  0.1387  0.1684
 4681TIP3    H135458   0.344   3.091  13.361 -0.1347 -0.7765 -1.2813
 4681TIP3    H235459   0.396   3.215  13.291 -0.2777  0.0106 -0.0302
 4682TIP3   OH235460   2.341   0.548  11.547  0.5193  0.0227 -0.2576
 4682TIP3    H135461   2.263   0.526  11.495  0.0081  1.1806 -0.0006
 4682TIP3    H235462   2.321   0.513  11.635  0.9763 -1.0819 -0.5786
 4683TIP3   OH235463   5.083   6.309   3.797  0.0282  0.1315  0.6474
 4683TIP3    H135464   5.111   6.337   3.885 -2.1602  1.3695  1.0296
 4683TIP3    H235465   5.008   6.251   3.813  0.1493 -0.3384 -0.3973
 4684TIP3   OH235466   6.546   0.327  14.492  0.1883  0.4727 -0.2745
 4684TIP3    H135467   6.559   0.282  14.408 -0.5250  0.2573 -0.2763
 4684TIP3    H235468   6.633   0.360  14.515  0.9966 -1.7958  0.2337
 4685TIP3   OH235469   6.250   1.553  15.570 -0.2281  0.0481 -0.4069
 4685TIP3    H135470   6.266   1.591  15.657  0.3691 -0.5530 -0.2388
 4685TIP3    H235471   6.333   1.510  15.548 -1.1250 -1.9102 -0.1960
 4686TIP3   OH235472   3.033   2.953  15.385 -0.0193  0.0151  0.4858
 4686TIP3    H135473   3.079   2.876  15.352  0.3005  0.9309 -1.3217
 4686TIP3    H235474   3.054   2.956  15.478  0.9088 -1.4221  0.3457
 4687TIP3   OH235475   1.086   6.472   6.650 -0.6224 -0.5161 -0.2390
 4687TIP3    H135476   1.005   6.422   6.647 -0.7564 -0.3063 -0.1894
 4687TIP3    H235477   1.064   6.551   6.700 -0.3524 -0.5208 -0.1111
 4688TIP3   OH235478   2.196   3.709   6.365  0.1376 -0.7043  0.2883
 4688TIP3    H135479   2.278   3.752   6.342 -0.7494  0.1415 -1.4486
 4688TIP3    H235480   2.216   3.615   6.358  1.1920 -0.5368  0.8365
 4689TIP3   OH235481   1.260   3.539   4.999 -0.0887 -0.1418 -0.3167
 4689TIP3    H135482   1.320   3.610   4.973 -1.1359  0.4764 -1.1109
 4689TIP3    H235483   1.252   3.485   4.921  2.2394 -2.3365  0.8294
 4690TIP3   OH235484   1.076   5.552  12.811  0.0597  0.1122  0.4482
 4690TIP3    H135485   1.032   5.494  12.873 -3.3473  0.3056 -1.5278
 4690TIP3    H235486   1.058   5.513  12.725  1.2235  1.8982 -0.6787
 4691TIP3   OH235487   2.054   3.513  15.228 -0.0120 -0.4980 -0.1024
 4691TIP3    H135488   2.058   3.429  15.184  1.0704 -0.3002 -0.4220
 4691TIP3    H235489   1.962   3.526  15.248 -0.6340 -0.3957 -2.7034
 4692TIP3   OH235490   2.469   0.323  12.755  0.4298  0.3245 -0.0414
 4692TIP3    H135491   2.558   0.338  12.723  0.1659 -0.8545 -1.4337
 4692TIP3    H235492   2.412   0.357  12.685 -0.1664 -2.3407 -0.9605
 4693TIP3   OH235493   4.688   3.939  11.174  0.3138  0.0340  0.5992
 4693TIP3    H135494   4.670   3.846  11.189 -0.6701  0.1961  0.4508
 4693TIP3    H235495   4.653   3.957  11.087  2.5838  0.0131 -0.3955
 4694TIP3   OH235496   6.148   2.680  11.476  0.2912 -0.3674 -0.6978
 4694TIP3    H135497   6.199   2.640  11.405  0.3715 -1.4174 -0.0796
 4694TIP3    H235498   6.213   2.695  11.545 -0.0703 -0.9063 -0.2326
 4695TIP3   OH235499   2.757   1.898   4.769 -0.3438 -0.3584  0.6019
 4695TIP3    H135500   2.716   1.880   4.853 -1.1636  0.6984  0.4568
 4695TIP3    H235501   2.803   1.981   4.782  0.6798 -0.8758  0.3884
 4696TIP3   OH235502   0.690   3.992   4.501  0.3057 -0.3613  0.4216
 4696TIP3    H135503   0.775   3.959   4.528 -0.1574 -0.6941  1.5348
 4696TIP3    H235504   0.708   4.046   4.425  1.3252 -1.6230 -0.2722
 4697TIP3   OH235505   0.341   3.911  16.456  0.2861 -0.0301  0.2858
 4697TIP3    H135506   0.321   3.832  16.506  0.7287 -0.1714  0.2365
 4697TIP3    H235507   0.261   3.929  16.407  0.9011 -1.7043 -1.4166
 4698TIP3   OH235508   1.181   4.545   6.609  0.0485  0.0998  0.0361
 4698TIP3    H135509   1.100   4.546   6.659  0.0252  1.1146  0.0094
 4698TIP3    H235510   1.234   4.614   6.649  1.1122 -0.8978  0.3895
 4699TIP3   OH235511   5.709   2.856  14.635 -0.1505  0.5505 -0.4831
 4699TIP3    H135512   5.789   2.804  14.641 -0.8640 -0.6552 -0.9686
 4699TIP3    H235513   5.699   2.895  14.722  0.2373 -0.4113  0.0139
 4700TIP3   OH235514   1.227   6.559  14.841  0.2072 -0.0022 -0.1519
 4700TIP3    H135515   1.187   6.513  14.915  0.2429  0.0571 -0.0950
 4700TIP3    H235516   1.221   6.652  14.865  2.6618 -0.0532  1.0703
 4701TIP3   OH235517   0.635   1.597   5.226 -0.1926  0.0144 -0.1111
 4701TIP3    H135518   0.681   1.518   5.254 -0.6309 -0.6870 -1.2867
 4701TIP3    H235519   0.628   1.650   5.305  0.8763 -0.7312  0.5156
 4702TIP3   OH235520   1.500   0.627   0.355  0.1912  0.0217  0.1061
 4702TIP3    H135521   1.455   0.546   0.377 -1.0471  0.4435 -0.8156
 4702TIP3    H235522   1.590   0.613   0.387 -0.7389 -0.5196  2.6902
 4703TIP3   OH235523   6.044   1.776   3.142  0.3962  0.4342  0.3454
 4703TIP3    H135524   5.995   1.767   3.224 -1.6314  0.1509 -0.8239
 4703TIP3    H235525   6.009   1.856   3.103 -1.3844 -1.3143 -1.8984
 4704TIP3   OH235526   1.190   0.107   2.205 -0.0930  0.4076  0.1969
 4704TIP3    H135527   1.217   0.062   2.126 -0.3902 -0.5410  0.6118
 4704TIP3    H235528   1.177   0.036   2.269  1.3865  1.2334  1.4817
 4705TIP3   OH235529   2.134   1.033   1.787 -0.3786 -0.1236  0.1063
 4705TIP3    H135530   2.122   1.112   1.839 -0.4003  0.8848 -1.3737
 4705TIP3    H235531   2.210   0.990   1.827  0.6234  1.4635 -0.0117
 4706TIP3   OH235532   0.529   0.675   2.139  0.4563  0.3036 -0.6407
 4706TIP3    H135533   0.494   0.724   2.214  0.2570 -0.4189 -0.2497
 4706TIP3    H235534   0.624   0.676   2.152  0.3728 -0.6892  0.1970
 4707TIP3   OH235535   2.074   6.340   3.312 -0.2764 -0.6459  0.3100
 4707TIP3    H135536   2.107   6.265   3.363  1.0334 -0.1488  0.2422
 4707TIP3    H235537   1.992   6.309   3.274 -0.7558 -1.3902  1.8534
 4708TIP3   OH235538   6.082   5.915  15.292  0.4571  0.2570  0.1018
 4708TIP3    H135539   6.100   5.933  15.384  2.6781  2.4821 -0.6344
 4708TIP3    H235540   6.009   5.854  15.293  0.7821 -0.2550  3.3256
 4709TIP3   OH235541   6.333   1.008  15.396 -0.1884 -0.3337 -0.2596
 4709TIP3    H135542   6.282   0.930  15.417 -1.2318  0.3545 -0.1565
 4709TIP3    H235543   6.280   1.081  15.428  1.1834  0.3870  0.4722
 4710TIP3   OH235544   2.939   0.783   3.589 -0.8130 -0.4143 -0.2531
 4710TIP3    H135545   2.852   0.746   3.602 -1.8246  1.5978 -0.8817
 4710TIP3    H235546   2.957   0.832   3.669  0.7560 -2.6034  0.8155
 4711TIP3   OH235547   0.631   0.176   3.263 -0.7303  0.0253 -0.1748
 4711TIP3    H135548   0.634   0.098   3.319  0.1436  0.6784  0.7225
 4711TIP3    H235549   0.713   0.222   3.282 -1.9051  1.9345  0.4396
 4712TIP3   OH235550   1.006   4.563   6.375 -0.2267 -0.3470  0.3815
 4712TIP3    H135551   1.042   4.529   6.457 -0.6517 -1.3427  0.1684
 4712TIP3    H235552   0.965   4.646   6.400  0.4752 -0.1754  0.9946
 4713TIP3   OH235553   5.526   2.570  13.184  0.6895 -0.0289 -0.1194
 4713TIP3    H135554   5.594   2.511  13.152  0.7539 -0.1982  0.3257
 4713TIP3    H235555   5.443   2.526  13.163  0.7278 -0.0752 -0.1735
 4714TIP3   OH235556   1.596   6.728   2.600 -0.3864 -0.2126 -0.4063
 4714TIP3    H135557   1.660   6.790   2.634 -0.2353 -0.4963 -0.1599
 4714TIP3    H235558   1.530   6.721   2.669 -0.7212  0.1340 -0.6904
 4715TIP3   OH235559   3.751   0.981   4.205 -0.1305  0.0778 -0.1055
 4715TIP3    H135560   3.657   1.001   4.200 -0.3733 -1.0324 -0.1409
 4715TIP3    H235561   3.791   1.064   4.231 -0.8915  1.0833 -1.9245
 4716TIP3   OH235562   6.257   0.913  10.793 -0.1823 -0.1566 -0.1726
 4716TIP3    H135563   6.219   0.828  10.817 -2.8992  1.0032  0.0132
 4716TIP3    H235564   6.247   0.918  10.698 -0.6777  0.2102 -0.1061
 4717TIP3   OH235565   0.358   4.125   0.245 -0.1400  0.1159  0.1971
 4717TIP3    H135566   0.358   4.036   0.211  0.3675 -0.4773  1.6493
 4717TIP3    H235567   0.413   4.174   0.184 -1.3718 -0.2749 -1.2718
 4718TIP3   OH235568   0.427   1.489  15.097  0.2759 -0.2963 -0.0700
 4718TIP3    H135569   0.378   1.416  15.059 -0.8342  0.3041  0.1648
 4718TIP3    H235570   0.366   1.530  15.157  1.1504  0.3603  0.3913
 4719TIP3   OH235571   0.616   4.361   3.479  0.0125 -0.1635  0.2554
 4719TIP3    H135572   0.544   4.384   3.420 -0.2322 -1.5074  0.0027
 4719TIP3    H235573   0.695   4.389   3.432 -0.2708  0.2317  0.0050
 4720TIP3   OH235574   4.467   3.664  15.141  0.3035 -0.0915  0.1629
 4720TIP3    H135575   4.528   3.598  15.108  1.2941 -0.2425  2.1600
 4720TIP3    H235576   4.499   3.747  15.106  1.7213 -0.1676  1.2081
 4721TIP3   OH235577   5.966   5.422   0.541 -0.0525  0.6524  0.8803
 4721TIP3    H135578   6.061   5.412   0.553  0.3055  3.0483  0.5390
 4721TIP3    H235579   5.943   5.352   0.479  2.1064  1.8119 -1.4574
 4722TIP3   OH235580   5.967   0.771   2.398  0.6594  0.0195  0.4905
 4722TIP3    H135581   6.012   0.799   2.477  0.7606  1.7612 -0.1446
 4722TIP3    H235582   5.876   0.761   2.424  1.0879 -1.9802  1.4048
 4723TIP3   OH235583   5.720   3.698   5.555 -0.3774 -0.5214  0.4137
 4723TIP3    H135584   5.771   3.691   5.474 -1.1432 -1.8983  0.0223
 4723TIP3    H235585   5.640   3.745   5.529 -0.6515 -1.0185  0.3494
 4724TIP3   OH235586   0.834   5.189   2.649  0.1926 -0.2801 -0.0104
 4724TIP3    H135587   0.827   5.130   2.574 -2.2116 -0.3879  0.2070
 4724TIP3    H235588   0.868   5.134   2.720  1.3181 -0.4820 -0.6851
 4725TIP3   OH235589   0.035   2.403   3.863 -0.2867  0.6419 -0.3407
 4725TIP3    H135590   0.041   2.456   3.784  1.7235  2.6653  1.0461
 4725TIP3    H235591   0.005   2.464   3.930  3.9237  0.7899  1.7526
 4726TIP3   OH235592   2.789   4.232  15.252  0.3400 -0.3527 -0.1618
 4726TIP3    H135593   2.730   4.156  15.251 -1.2635  0.8221  0.5130
 4726TIP3    H235594   2.858   4.209  15.190 -1.1201 -1.5732 -1.4308
 4727TIP3   OH235595   0.755   0.425   1.947  0.2289 -0.5873  0.8238
 4727TIP3    H135596   0.744   0.432   2.042  2.9323 -2.7475  1.4137
 4727TIP3    H235597   0.837   0.470   1.929 -0.3139 -0.0994 -0.5516
 4728TIP3   OH235598   2.735   5.134  15.377 -0.2456  0.6251  0.6441
 4728TIP3    H135599   2.715   5.226  15.358 -1.2002  0.5073  0.9922
 4728TIP3    H235600   2.801   5.110  15.312 -1.1384  1.1214 -0.4842
 4729TIP3   OH235601   4.404   0.997  15.729 -0.4420  0.0777 -0.5689
 4729TIP3    H135602   4.311   1.017  15.735 -0.4234 -0.2024  1.9095
 4729TIP3    H235603   4.410   0.902  15.741  0.1659  0.1775  0.0572
 4730TIP3   OH235604   6.087   4.600  15.170 -0.0775 -0.6132  0.3581
 4730TIP3    H135605   6.169   4.649  15.170  0.0631 -0.8257 -0.5064
 4730TIP3    H235606   6.112   4.512  15.199 -0.5750  0.1481  3.3942
 4731TIP3   OH235607   3.832   6.156  15.617  0.2841 -0.2597  0.0704
 4731TIP3    H135608   3.885   6.156  15.538  1.0311 -2.0527  0.5125
 4731TIP3    H235609   3.818   6.249  15.637  0.8662  0.2199 -1.6246
 4732TIP3   OH235610   3.793   4.151  13.985  0.0452  0.1518 -0.0335
 4732TIP3    H135611   3.715   4.192  13.947  0.1352 -0.3721 -0.8116
 4732TIP3    H235612   3.865   4.178  13.928  0.0214 -1.5204 -0.9213
 4733TIP3   OH235613   6.190   6.693   2.232 -0.2190 -0.4867 -0.5599
 4733TIP3    H135614   6.135   6.765   2.200  0.1695 -0.0426 -0.2386
 4733TIP3    H235615   6.185   6.627   2.163 -0.5182 -0.1197 -0.8961
 4734TIP3   OH235616   3.596   1.555   3.296  0.5703 -0.0584  0.2689
 4734TIP3    H135617   3.611   1.645   3.325  0.1991  0.3182 -0.6704
 4734TIP3    H235618   3.680   1.512   3.307 -0.0619 -0.6541  4.2423
 4735TIP3   OH235619   4.819   2.833   4.856 -0.1583 -0.3306 -0.2138
 4735TIP3    H135620   4.883   2.897   4.888  2.1186 -1.7720 -1.5979
 4735TIP3    H235621   4.866   2.750   4.855 -2.3510 -1.6416 -0.5087
 4736TIP3   OH235622   1.932   2.683   0.312 -0.4809 -0.4829 -0.0685
 4736TIP3    H135623   2.021   2.668   0.279 -0.3200  0.6075 -0.1730
 4736TIP3    H235624   1.877   2.624   0.261 -0.0140 -0.0266 -1.1328
 4737TIP3   OH235625   4.090   4.874  13.764  0.0208 -0.2339 -0.1963
 4737TIP3    H135626   4.050   4.807  13.709  2.6036 -0.3375 -2.1276
 4737TIP3    H235627   4.149   4.825  13.823  0.2875  0.1731 -0.1189
 4738TIP3   OH235628   5.680   5.351   2.085 -0.2793 -0.2581  0.1887
 4738TIP3    H135629   5.607   5.316   2.033 -1.1408 -0.8779  1.7615
 4738TIP3    H235630   5.753   5.357   2.022 -0.8893 -2.2458 -0.8040
 4739TIP3   OH235631   1.154   6.076  12.248 -0.7324 -0.1155 -0.3493
 4739TIP3    H135632   1.097   6.148  12.276  0.2755  0.9681 -1.0047
 4739TIP3    H235633   1.181   6.034  12.330 -1.2061  0.3449  0.0481
 4740TIP3   OH235634   6.179   4.173   2.974 -0.1974 -0.4307  0.1287
 4740TIP3    H135635   6.136   4.155   3.058  1.2739 -0.3761  0.9144
 4740TIP3    H235636   6.161   4.095   2.921 -1.8882 -0.0943  0.1532
 4741TIP3   OH235637   0.889   4.744  11.970  0.3794 -0.2377  0.3329
 4741TIP3    H135638   0.863   4.741  12.062  0.3455  2.2136  0.4681
 4741TIP3    H235639   0.983   4.729  11.971  0.3674 -0.2930  0.7804
 4742TIP3   OH235640   2.083   4.726   1.252  0.1118  0.1397  0.0078
 4742TIP3    H135641   2.132   4.650   1.283 -2.2114 -1.0608  0.9821
 4742TIP3    H235642   2.094   4.791   1.321 -0.7524 -0.6326  0.9056
 4743TIP3   OH235643   1.972   0.860  11.197 -0.1269 -0.3771  0.5634
 4743TIP3    H135644   1.882   0.889  11.207 -0.9420 -1.6671 -1.9828
 4743TIP3    H235645   1.996   0.823  11.282 -2.3528 -0.8741  1.0310
 4744TIP3   OH235646   5.578   5.637   2.159  0.0369  0.6058  0.2121
 4744TIP3    H135647   5.673   5.648   2.159 -0.1176  2.2036  0.9223
 4744TIP3    H235648   5.563   5.560   2.214  0.9018  0.4433  0.2409
 4745TIP3   OH235649   5.301   1.510   0.464  0.0390 -0.1453  0.5650
 4745TIP3    H135650   5.264   1.586   0.508  0.5862  1.2112 -1.1960
 4745TIP3    H235651   5.225   1.455   0.445 -0.7854  1.3237 -0.6308
 4746TIP3   OH235652   2.439   1.752   5.290 -0.1450 -0.6972 -0.1492
 4746TIP3    H135653   2.448   1.694   5.365  0.1690 -1.2329 -0.5899
 4746TIP3    H235654   2.418   1.837   5.327 -1.9120 -1.3484  0.4700
 4747TIP3   OH235655   1.966   5.512   1.854  0.0812  0.6008  0.0236
 4747TIP3    H135656   1.996   5.433   1.809  1.3589  1.0859 -0.0340
 4747TIP3    H235657   1.964   5.579   1.786 -0.1697  0.8128  0.2392
 4748TIP3   OH235658   3.456   5.526   0.523  0.3046  0.3659  0.0232
 4748TIP3    H135659   3.392   5.512   0.453 -0.4119 -1.7670  1.0390
 4748TIP3    H235660   3.411   5.581   0.587  0.2172  0.5355 -0.1824
 4749TIP3   OH235661   5.374   0.909   3.882  0.0569 -0.0419 -0.0925
 4749TIP3    H135662   5.370   0.923   3.788  2.0035  1.4492 -0.0155
 4749TIP3    H235663   5.427   0.981   3.915  1.2143 -1.6819  1.8734
 4750TIP3   OH235664   1.495   6.619  14.149 -0.1690 -0.0271 -0.1785
 4750TIP3    H135665   1.569   6.560  14.162 -0.8272 -0.4548  1.9819
 4750TIP3    H235666   1.521   6.673  14.075  1.1438 -1.9313 -1.1932
 4751TIP3   OH235667   3.767   2.643  16.040  0.2899 -0.0548  0.0947
 4751TIP3    H135668   3.862   2.653  16.050  0.2949 -0.6913  0.8128
 4751TIP3    H235669   3.756   2.595  15.958  0.6864 -1.3134  0.7452
 4752TIP3   OH235670   5.657   5.577  15.182 -0.1610 -0.4498 -0.3989
 4752TIP3    H135671   5.676   5.628  15.103  1.5628 -1.6703 -0.8095
 4752TIP3    H235672   5.672   5.486  15.156 -0.4795 -0.9472  1.0870
 4753TIP3   OH235673   1.991   5.717   2.857 -0.5809  0.2288  0.2363
 4753TIP3    H135674   2.086   5.713   2.865 -0.3917  0.4146 -1.4426
 4753TIP3    H235675   1.964   5.628   2.837 -0.6539  0.3226 -0.0969
 4754TIP3   OH235676   5.305   6.050  15.581 -0.3287 -0.4232 -0.1427
 4754TIP3    H135677   5.343   6.049  15.493  0.9153 -0.5893  0.3701
 4754TIP3    H235678   5.348   5.977  15.625  1.1814  1.3153  1.4364
 4755TIP3   OH235679   4.703   0.230   0.035  0.0813 -0.2639 -0.0980
 4755TIP3    H135680   4.671   0.305  -0.015  0.9526  0.4030  0.3099
 4755TIP3    H235681   4.698   0.157  -0.026 -2.2673 -0.2402 -0.0192
 4756TIP3   OH235682   3.937   4.361   4.310  0.4260 -0.0363  0.1468
 4756TIP3    H135683   3.854   4.341   4.266 -0.5114  0.2071  1.7127
 4756TIP3    H235684   4.004   4.331   4.249 -0.7922  0.1231 -1.3499
 4757TIP3   OH235685   2.680   5.253   1.063 -0.1813  0.0303 -0.7023
 4757TIP3    H135686   2.628   5.319   1.109 -1.2149 -1.0994 -0.1754
 4757TIP3    H235687   2.770   5.284   1.070 -0.8366  2.8014 -2.8944
 4758TIP3   OH235688   5.372   2.778   3.399 -0.0218 -0.0734  0.0091
 4758TIP3    H135689   5.425   2.728   3.461  1.1815  1.6979  0.4822
 4758TIP3    H235690   5.311   2.714   3.362  0.0681 -1.4302  2.0844
 4759TIP3   OH235691   5.384   4.813  11.392  0.1778  0.4343  0.2267
 4759TIP3    H135692   5.364   4.748  11.325 -0.8236  1.5494 -0.5978
 4759TIP3    H235693   5.317   4.800  11.459  0.2379  0.3339  0.2673
 4760TIP3   OH235694   2.308   3.398   4.205  0.7420 -0.1678 -0.6211
 4760TIP3    H135695   2.223   3.439   4.186  0.4683 -0.7781 -0.7263
 4760TIP3    H235696   2.359   3.412   4.125  0.6073 -0.1304 -0.7023
 4761TIP3   OH235697   1.752   3.189   2.907  0.4069 -0.3455 -0.1550
 4761TIP3    H135698   1.718   3.114   2.956 -2.7533  0.8147 -0.3194
 4761TIP3    H235699   1.769   3.256   2.974  1.8948 -0.7210 -0.1364
 4762TIP3   OH235700   1.670   1.649  13.351  0.1294 -0.4926  0.1979
 4762TIP3    H135701   1.676   1.616  13.441 -0.2141 -1.9314 -0.2910
 4762TIP3    H235702   1.743   1.711  13.344 -0.1138  0.0132  1.6020
 4763TIP3   OH235703   1.247   0.993  14.964  0.3977  0.1678  0.2690
 4763TIP3    H135704   1.239   0.912  15.015  0.6991  0.1278  0.2550
 4763TIP3    H235705   1.203   0.974  14.882  1.1191 -0.2364 -0.0307
 4764TIP3   OH235706   2.782   5.857  14.067 -0.4561  0.0205 -0.1899
 4764TIP3    H135707   2.858   5.871  14.124 -0.8717  1.0447  0.1535
 4764TIP3    H235708   2.818   5.827  13.984  0.5566  2.5257 -0.7628
 4765TIP3   OH235709   6.459   0.185   1.509  0.2390 -0.7151 -0.1396
 4765TIP3    H135710   6.378   0.176   1.560  0.8279 -2.3182  0.6001
 4765TIP3    H235711   6.471   0.098   1.470 -0.4859  0.5949 -3.5628
 4766TIP3   OH235712   1.536   6.066   3.897 -0.0350 -0.1056  0.3037
 4766TIP3    H135713   1.503   6.096   3.812 -0.3591 -0.7593  0.1976
 4766TIP3    H235714   1.574   5.980   3.879  0.5206  0.0516  0.6911
 4767TIP3   OH235715   6.594   6.185  16.551  0.1930 -0.0520  0.8923
 4767TIP3    H135716   6.558   6.106  16.591  0.1862 -0.3899  0.2341
 4767TIP3    H235717   6.683   6.190  16.585 -0.0174  0.0107  1.4358
 4768TIP3   OH235718   4.366   3.077  16.272  0.1208  0.0594  0.6876
 4768TIP3    H135719   4.428   3.009  16.299 -0.2306 -0.4473  0.2314
 4768TIP3    H235720   4.415   3.158  16.278  0.9401 -0.3759 -0.0195
 4769TIP3   OH235721   1.700   1.857   4.682  0.1256 -0.4810  0.0060
 4769TIP3    H135722   1.679   1.784   4.740  3.1991 -0.4397  1.3446
 4769TIP3    H235723   1.703   1.933   4.739 -0.7032  0.3192 -0.9738
 4770TIP3   OH235724   3.256   0.312  15.562 -0.2154 -0.5642  0.2669
 4770TIP3    H135725   3.197   0.303  15.487 -0.5288  0.2853  0.3995
 4770TIP3    H235726   3.268   0.222  15.593  0.6663 -1.0496 -1.3589
 4771TIP3   OH235727   4.911   6.116   1.430  0.3389  0.0765 -0.1536
 4771TIP3    H135728   4.946   6.036   1.391 -1.0295 -0.5266 -0.1963
 4771TIP3    H235729   4.907   6.178   1.358  2.5958  0.6339  0.1389
 4772TIP3   OH235730   6.234   0.812   3.493  0.1457 -0.0260 -0.4383
 4772TIP3    H135731   6.192   0.826   3.578  1.6003  0.3022  0.2588
 4772TIP3    H235732   6.319   0.855   3.500  0.5608 -0.5372 -1.8448
 4773TIP3   OH235733   6.141   5.296   5.594  0.1770  0.6034  0.6580
 4773TIP3    H135734   6.136   5.276   5.687 -2.6096  1.1032  0.7025
 4773TIP3    H235735   6.060   5.261   5.557  0.6390  1.4957 -1.3580
 4774TIP3   OH235736   2.844   3.470  14.273  0.2338  0.2193  0.6192
 4774TIP3    H135737   2.765   3.495  14.322  0.4059  2.0171  0.0785
 4774TIP3    H235738   2.821   3.389  14.230 -1.2521  0.5820  0.6719
 4775TIP3   OH235739   4.432   0.558  14.696 -0.4274  0.4592  0.4623
 4775TIP3    H135740   4.493   0.562  14.769 -1.3968 -0.9095  1.3764
 4775TIP3    H235741   4.389   0.473  14.704  0.9955 -0.7828 -2.9856
 4776TIP3   OH235742   4.016   0.665   0.500  0.4519 -0.2240  0.0668
 4776TIP3    H135743   3.997   0.579   0.538  3.2434 -0.5535  0.8831
 4776TIP3    H235744   4.088   0.700   0.552  1.5680  1.2056 -2.2638
 4777TIP3   OH235745   2.933   2.114  12.543  0.0869  0.5186  0.4148
 4777TIP3    H135746   2.971   2.200  12.556  0.6761  0.7332 -2.1207
 4777TIP3    H235747   2.991   2.070  12.481 -2.7638  0.2533 -2.3653
 4778TIP3   OH235748   2.261   3.436   0.741 -0.1691 -0.3085  0.2362
 4778TIP3    H135749   2.315   3.368   0.781  1.6561  0.8589 -0.1448
 4778TIP3    H235750   2.266   3.418   0.647  0.6476  0.5622  0.1039
 4779TIP3   OH235751   4.700   2.204   1.702  0.3257  0.1588  0.4986
 4779TIP3    H135752   4.783   2.170   1.668 -0.1515 -1.4928  0.8931
 4779TIP3    H235753   4.642   2.207   1.625  0.4305  0.2902  0.4242
 4780TIP3   OH235754   3.319   1.475   0.135  0.9014 -0.4838 -0.0824
 4780TIP3    H135755   3.342   1.502   0.223 -0.5553 -1.5637  0.6953
 4780TIP3    H235756   3.347   1.383   0.130  1.1471 -0.3767 -0.8180
 4781TIP3   OH235757   4.494   6.316   3.357  0.3054  0.1516 -0.5658
 4781TIP3    H135758   4.513   6.394   3.409 -1.1189  1.0571 -1.3355
 4781TIP3    H235759   4.477   6.248   3.422 -1.0103  1.1488  0.1901
 4782TIP3   OH235760   6.427   2.403   0.486  0.1542 -0.7559  0.3891
 4782TIP3    H135761   6.348   2.349   0.483  0.7906 -1.7619  1.2312
 4782TIP3    H235762   6.456   2.398   0.577  0.4493  0.7069  0.4013
 4783TIP3   OH235763   0.227   2.370  13.597 -0.0083  0.2318  0.0892
 4783TIP3    H135764   0.239   2.465  13.605  0.0268  0.2594 -0.2900
 4783TIP3    H235765   0.150   2.351  13.650  0.2262  0.4149  0.5007
 4784TIP3   OH235766   4.661   3.303  12.494  0.0799 -0.2513 -0.2777
 4784TIP3    H135767   4.746   3.260  12.483 -0.4097 -1.9216  1.7677
 4784TIP3    H235768   4.624   3.262  12.572 -2.8681 -0.0127 -1.4285
 4785TIP3   OH235769   1.115   1.904  15.566  0.2100 -0.0975  0.0663
 4785TIP3    H135770   1.097   1.953  15.485  0.1652  0.3671  0.3539
 4785TIP3    H235771   1.205   1.926  15.588  1.3925 -2.7430 -1.5943
 4786TIP3   OH235772   5.463   5.316   2.926  0.1099 -0.0768 -0.0834
 4786TIP3    H135773   5.382   5.351   2.888 -0.5905 -2.4281 -0.9045
 4786TIP3    H235774   5.471   5.228   2.890  0.8604 -1.4890  3.1125
 4787TIP3   OH235775   2.213   1.101   5.103  0.4419 -0.3926 -0.2956
 4787TIP3    H135776   2.160   1.022   5.117 -0.8522  0.4860 -0.1608
 4787TIP3    H235777   2.205   1.150   5.184  1.2768 -0.1144 -0.3701
 4788TIP3   OH235778   0.716   6.340  13.269 -0.3231  0.1774 -0.1906
 4788TIP3    H135779   0.692   6.324  13.361 -1.2366 -1.7177 -0.6944
 4788TIP3    H235780   0.776   6.269  13.247 -0.4122  0.3868 -1.1604
 4789TIP3   OH235781   4.748   4.334  13.084  0.4450  0.0971  0.0084
 4789TIP3    H135782   4.816   4.400  13.094  0.6450  0.2745 -2.0363
 4789TIP3    H235783   4.705   4.356  13.001 -0.8722 -1.1035  0.3255
 4790TIP3   OH235784   0.244   4.461   2.219  0.0559 -0.7180  0.0003
 4790TIP3    H135785   0.333   4.496   2.222  0.6266 -2.0481 -0.2576
 4790TIP3    H235786   0.248   4.381   2.272 -1.1872 -0.4005  0.6146
 4791TIP3   OH235787   5.623   4.970   4.605  0.0594 -0.4795  0.2238
 4791TIP3    H135788   5.617   4.875   4.613  1.6107 -0.6731 -0.5522
 4791TIP3    H235789   5.568   5.003   4.675 -1.5578 -1.9312 -0.3000
 4792TIP3   OH235790   1.744   3.126  13.699  0.1789  0.0563  0.1163
 4792TIP3    H135791   1.771   3.201  13.752 -0.3347 -0.7034  1.5235
 4792TIP3    H235792   1.658   3.102  13.734  0.3493 -1.2035 -0.2782
 4793TIP3   OH235793   2.077   5.670   3.241  0.3734  0.4065 -0.1925
 4793TIP3    H135794   2.097   5.716   3.323 -0.3612  1.5848 -0.6573
 4793TIP3    H235795   2.013   5.725   3.197  0.7689 -0.2031 -1.5861
 4794TIP3   OH235796   6.761   4.531  14.777  0.2434  0.1727 -0.2034
 4794TIP3    H135797   6.756   4.451  14.829 -2.3255 -0.0927 -0.7296
 4794TIP3    H235798   6.843   4.523  14.728  1.0295 -1.1482  1.2565
 4795TIP3   OH235799   3.204   5.989  13.894 -0.4982 -0.2446  0.0189
 4795TIP3    H135800   3.166   5.921  13.949 -1.9086 -1.1007 -1.9335
 4795TIP3    H235801   3.297   5.990  13.918 -1.0877 -0.3420  2.5855
 4796TIP3   OH235802   0.732   5.681   2.568 -0.0461  0.4408  0.6272
 4796TIP3    H135803   0.827   5.696   2.568 -0.2089  1.6078  0.8904
 4796TIP3    H235804   0.723   5.587   2.581  1.0633  0.5085  2.2719
 4797TIP3   OH235805   6.292   0.105   2.489  0.0921  0.2489  0.2917
 4797TIP3    H135806   6.285   0.148   2.574 -1.2479  1.9255 -0.6174
 4797TIP3    H235807   6.201   0.085   2.465  0.3267  0.9092 -1.2680
 4798TIP3   OH235808   6.741   3.897  12.378 -0.0230 -0.4101 -0.2905
 4798TIP3    H135809   6.792   3.871  12.301  3.3134 -0.2529  1.6812
 4798TIP3    H235810   6.741   3.993  12.376  1.5126 -0.3526  0.6654
 4799TIP3   OH235811   0.800   1.445   4.082  0.2591  0.1330 -0.0588
 4799TIP3    H135812   0.881   1.400   4.055  0.4031  0.5459 -0.3162
 4799TIP3    H235813   0.830   1.526   4.122 -0.0675  0.9179 -1.3543
 4800TIP3   OH235814   5.542   6.490  12.365  0.0553  0.2846  0.1505
 4800TIP3    H135815   5.608   6.506  12.297  1.7385  1.1065  1.8898
 4800TIP3    H235816   5.522   6.396  12.357  1.0468  0.1266 -0.7538
 4801TIP3   OH235817   1.789   0.236  11.519  0.4605  0.1439  0.5060
 4801TIP3    H135818   1.779   0.320  11.475 -1.3568  0.0948  0.7475
 4801TIP3    H235819   1.877   0.239  11.558  0.7155  1.5927 -0.1438
 4802TIP3   OH235820   3.749   3.469  12.567 -0.0282 -0.3994  0.5510
 4802TIP3    H135821   3.782   3.558  12.568 -0.0220 -0.4035  0.6796
 4802TIP3    H235822   3.813   3.420  12.515  0.8909 -0.6892  1.9072
 4803TIP3   OH235823   2.764   1.816   6.073  0.0354  0.2958  0.0483
 4803TIP3    H135824   2.835   1.871   6.041 -0.0778  1.1390  1.2033
 4803TIP3    H235825   2.807   1.751   6.128  0.0329  0.0326 -0.2574
 4804TIP3   OH235826   5.081   5.607   3.841 -0.3525 -0.0367 -0.2356
 4804TIP3    H135827   4.999   5.625   3.887  0.3944  0.6557  0.8846
 4804TIP3    H235828   5.075   5.514   3.819 -0.7217 -0.4386  1.3871
 4805TIP3   OH235829   5.132   1.571   3.165  0.3497 -0.1021 -0.7485
 4805TIP3    H135830   5.143   1.599   3.074  2.0570  2.3905  0.1124
 4805TIP3    H235831   5.188   1.494   3.174 -0.3055 -0.7506 -1.9037
 4806TIP3   OH235832   5.351   2.630  10.864 -0.5891  0.1744 -0.1518
 4806TIP3    H135833   5.305   2.702  10.823 -1.0432  0.3666  0.6673
 4806TIP3    H235834   5.438   2.630  10.823 -0.9653  0.4585 -0.9665
 4807TIP3   OH235835   0.005   1.597  12.520  0.1935  0.1062  0.6021
 4807TIP3    H135836  -0.067   1.553  12.477  0.9957  1.7152 -2.6633
 4807TIP3    H235837   0.081   1.540  12.504  0.2876  0.1255  0.9693
 4808TIP3   OH235838   3.830   0.211  13.075 -0.5462  0.1033 -0.1407
 4808TIP3    H135839   3.798   0.130  13.115 -0.2235 -0.3590 -0.8040
 4808TIP3    H235840   3.813   0.200  12.981 -0.2582  0.6960 -0.2687
 4809TIP3   OH235841   5.860   4.437  13.242  0.3364 -0.3189  0.2383
 4809TIP3    H135842   5.926   4.503  13.262 -0.0793  0.4221 -0.7045
 4809TIP3    H235843   5.782   4.466  13.289  0.3180 -0.4699  0.3024
 4810TIP3   OH235844   1.286   2.220  13.348  0.1597  0.3009 -0.6584
 4810TIP3    H135845   1.224   2.153  13.318  2.0213 -0.5448 -3.0217
 4810TIP3    H235846   1.337   2.176  13.415 -0.3403  0.2503 -0.3041
 4811TIP3   OH235847   2.374   0.191  10.417  1.2507  0.5278  0.3824
 4811TIP3    H135848   2.459   0.176  10.377  0.2604 -0.5494 -1.4382
 4811TIP3    H235849   2.326   0.109  10.405  0.0380  1.0104  1.6115
 4812TIP3   OH235850   4.164   6.195  14.278 -0.3550  0.7247 -0.4775
 4812TIP3    H135851   4.241   6.139  14.292 -0.5530 -0.1808 -2.7342
 4812TIP3    H235852   4.092   6.134  14.262 -1.2508  1.5986  0.0884
 4813TIP3   OH235853   1.738   1.217  12.154  0.3051 -0.0394  0.0807
 4813TIP3    H135854   1.789   1.173  12.086  2.0727  2.5741 -0.4611
 4813TIP3    H235855   1.656   1.240  12.111 -0.0688 -1.4708 -0.0330
 4814TIP3   OH235856   3.069   0.536  11.710  0.0287 -0.5176  0.5353
 4814TIP3    H135857   3.147   0.561  11.760 -0.8856  2.2421  0.7454
 4814TIP3    H235858   3.027   0.620  11.688 -2.8304 -1.8935  0.3379
 4815TIP3   OH235859   1.720   1.412   1.561 -0.1951  0.1459  0.5223
 4815TIP3    H135860   1.755   1.327   1.534 -0.4938  0.2626 -0.2787
 4815TIP3    H235861   1.682   1.449   1.481  1.5062  1.8279  0.4164
 4816TIP3   OH235862   4.718   6.356  16.272 -0.1584 -0.9096 -0.3533
 4816TIP3    H135863   4.786   6.373  16.338 -0.1063 -0.5135 -0.5052
 4816TIP3    H235864   4.760   6.377  16.189 -0.3809 -0.9298 -0.4710
 4817TIP3   OH235865   2.586   2.121   5.805  0.4376 -0.3565 -0.2642
 4817TIP3    H135866   2.601   2.179   5.730  1.4758  0.7790  0.7792
 4817TIP3    H235867   2.674   2.104   5.839  0.0585 -1.6728  0.1181
 4818TIP3   OH235868   2.928   3.372   6.555 -0.0443  0.2699  0.3293
 4818TIP3    H135869   3.006   3.352   6.607  0.9746  0.6016 -0.9985
 4818TIP3    H235870   2.908   3.464   6.575  1.1319  0.8014 -0.7889
 4819TIP3   OH235871   2.313   0.674   5.170  0.4598 -0.5067 -0.1781
 4819TIP3    H135872   2.335   0.604   5.232  0.6915  0.3944  0.7790
 4819TIP3    H235873   2.395   0.690   5.123  1.2296  0.9816  1.5200
 4820TIP3   OH235874   4.750   0.748  12.211 -0.2493  0.2860 -0.0630
 4820TIP3    H135875   4.846   0.751  12.214 -0.1324  0.9441 -2.4426
 4820TIP3    H235876   4.725   0.817  12.149 -2.0398 -1.7512 -1.8114
 4821TIP3   OH235877   2.674   3.955   5.064  0.5878  0.4228 -0.2147
 4821TIP3    H135878   2.598   3.949   5.007  0.7103  0.5069 -0.3868
 4821TIP3    H235879   2.669   4.043   5.102 -1.4897 -0.7846  2.6994
 4822TIP3   OH235880   3.397   4.404   3.441 -0.0879 -0.4940 -0.3324
 4822TIP3    H135881   3.380   4.417   3.348 -0.5272  0.9769 -0.0635
 4822TIP3    H235882   3.346   4.326   3.463  0.1130 -0.9298 -1.3377
 4823TIP3   OH235883   5.497   1.828   5.061 -0.2042  0.2261  0.4313
 4823TIP3    H135884   5.542   1.891   5.005 -0.1753  0.7814  1.0658
 4823TIP3    H235885   5.490   1.749   5.008 -1.7098  1.2452 -0.9979
 4824TIP3   OH235886   5.858   0.101  11.290 -0.2681  0.1503 -0.2358
 4824TIP3    H135887   5.829   0.091  11.380 -1.0223 -0.1667 -0.5030
 4824TIP3    H235888   5.899   0.017  11.269 -0.8796 -0.0964 -0.4604
 4825TIP3   OH235889   5.634   1.111  12.203  0.2837  0.0325  0.4145
 4825TIP3    H135890   5.538   1.106  12.198  0.3170 -0.9496  0.5286
 4825TIP3    H235891   5.653   1.204  12.198 -0.6333  0.1910 -0.4724
 4826TIP3   OH235892   2.492   2.100  14.628  0.1218  0.1700  0.5400
 4826TIP3    H135893   2.432   2.031  14.601  1.8294 -0.4727 -1.8645
 4826TIP3    H235894   2.572   2.054  14.654  0.4796  1.1325  1.2167
 4827TIP3   OH235895   3.586   6.459  11.531 -0.4522 -0.2196 -0.5098
 4827TIP3    H135896   3.609   6.493  11.444 -0.9549  0.3187 -0.4399
 4827TIP3    H235897   3.491   6.467  11.535 -0.3337  0.8790  0.5448
 4828TIP3   OH235898   6.152   3.964  13.729  0.4872  0.1821  0.2643
 4828TIP3    H135899   6.145   4.038  13.788  2.4231  1.4348 -0.9667
 4828TIP3    H235900   6.246   3.951  13.717  0.2204  0.1700 -2.6828
 4829TIP3   OH235901   3.212   4.723  15.127 -0.1933  0.0819 -0.2085
 4829TIP3    H135902   3.144   4.673  15.171 -0.6769  2.2860  1.7463
 4829TIP3    H235903   3.292   4.703  15.176 -0.3205  0.8818  0.3469
 4830TIP3   OH235904   2.307   3.265   2.363 -0.1037  0.0444 -0.3554
 4830TIP3    H135905   2.215   3.253   2.385  0.1204  1.9367  2.1623
 4830TIP3    H235906   2.307   3.303   2.276 -1.6182 -0.9331 -0.8151
 4831TIP3   OH235907   2.451   0.171  17.068 -0.1497  0.2911  0.3525
 4831TIP3    H135908   2.506   0.097  17.092 -0.0733  0.3350  0.3151
 4831TIP3    H235909   2.513   0.244  17.058 -0.3628  0.7080  1.7745
 4832TIP3   OH235910   0.414   5.331  11.286  0.2247  0.1913  0.5033
 4832TIP3    H135911   0.486   5.309  11.227 -0.1299 -0.3826  0.2722
 4832TIP3    H235912   0.454   5.383  11.355  0.5003  1.5721 -0.6558
 4833TIP3   OH235913   6.233   5.671  12.847  0.9874  0.0620 -0.7141
 4833TIP3    H135914   6.152   5.721  12.836  0.0088 -0.8904  1.4763
 4833TIP3    H235915   6.227   5.601  12.782  0.2901  0.3206 -0.9307
 4834TIP3   OH235916   2.130   4.453   4.200 -0.2246  0.3521 -0.2599
 4834TIP3    H135917   2.179   4.530   4.228 -0.0373 -0.5809  2.2860
 4834TIP3    H235918   2.039   4.475   4.217 -0.2434  0.2784 -0.2644
 4835TIP3   OH235919   1.701   4.062   0.220 -0.7137 -0.0032 -0.6541
 4835TIP3    H135920   1.691   3.968   0.205  0.4167 -0.5012  1.3198
 4835TIP3    H235921   1.788   4.070   0.259 -0.9940  1.8223 -0.3454
 4836TIP3   OH235922   3.820   5.809  13.239 -0.0624  0.0783  0.8429
 4836TIP3    H135923   3.777   5.731  13.204 -1.0972  0.3726  1.4162
 4836TIP3    H235924   3.763   5.838  13.310  0.6133  1.0254  1.0160
 4837TIP3   OH235925   5.182   4.677   2.487 -0.4162  0.1199 -0.2535
 4837TIP3    H135926   5.104   4.677   2.542 -0.1392  0.6506  0.1501
 4837TIP3    H235927   5.209   4.586   2.484 -1.5736 -0.2198 -1.1629
 4838TIP3   OH235928   4.548   1.892  14.006 -0.1841  0.2501 -0.7529
 4838TIP3    H135929   4.549   1.950  13.930  2.6268 -1.5119 -2.2467
 4838TIP3    H235930   4.585   1.945  14.077  0.4564  0.9067 -1.5517
 4839TIP3   OH235931   3.780   6.641  16.838 -0.5496 -0.1304 -0.2932
 4839TIP3    H135932   3.741   6.718  16.877 -2.5182  0.0040 -2.2897
 4839TIP3    H235933   3.706   6.595  16.797  0.6359 -2.7714  0.3205
 4840TIP3   OH235934   3.688   3.166  16.599 -0.8072 -0.2480  0.3393
 4840TIP3    H135935   3.656   3.256  16.599 -0.9760 -0.3031 -0.2442
 4840TIP3    H235936   3.659   3.130  16.515  1.9515  0.1193 -0.8883
 4841TIP3   OH235937   5.423   6.330  10.654  0.6431  0.2817 -0.2552
 4841TIP3    H135938   5.333   6.314  10.625  0.6564  1.0109 -0.6950
 4841TIP3    H235939   5.440   6.259  10.717 -0.2150  0.1008 -0.2126
 4842TIP3   OH235940   2.595   2.640   5.369 -0.1343  0.0194 -0.1894
 4842TIP3    H135941   2.502   2.627   5.351 -0.2550  0.3268  0.1956
 4842TIP3    H235942   2.597   2.710   5.435  0.3203 -0.6331  0.5033
 4843TIP3   OH235943   3.668   5.329   0.652 -0.4744  0.5577 -0.5643
 4843TIP3    H135944   3.586   5.295   0.616 -0.6868  0.5577 -0.0975
 4843TIP3    H235945   3.650   5.421   0.669 -0.6971  0.3432  0.4283
 4844TIP3   OH235946   6.146   4.270   0.984 -0.0894  0.0001  0.2386
 4844TIP3    H135947   6.150   4.360   0.952 -1.7735 -0.6785 -2.1694
 4844TIP3    H235948   6.098   4.276   1.066 -0.6680  1.2650 -0.1636
 4845TIP3   OH235949   4.822   0.632   3.793  0.7165  0.2299 -0.4932
 4845TIP3    H135950   4.819   0.659   3.885 -0.3281 -0.0532 -0.4308
 4845TIP3    H235951   4.773   0.550   3.790 -0.8567  1.1384 -1.5824
 4846TIP3   OH235952   6.270   1.332  14.591 -0.5153  0.7364 -0.2703
 4846TIP3    H135953   6.212   1.372  14.656  0.1046  0.6346  0.3521
 4846TIP3    H235954   6.211   1.285  14.533 -1.1618  1.6125 -0.3522
 4847TIP3   OH235955   0.827   0.333  16.819 -0.3044 -0.0805  0.7519
 4847TIP3    H135956   0.768   0.266  16.785  0.6512 -0.2872 -0.6237
 4847TIP3    H235957   0.784   0.416  16.796  0.1585 -0.2207 -0.7734
 4848TIP3   OH235958   5.403   6.201  15.921  0.0668 -0.4181 -0.0495
 4848TIP3    H135959   5.456   6.272  15.957 -1.3105  0.2862  0.7076
 4848TIP3    H235960   5.449   6.121  15.945  0.8790  0.1777  0.4087
 4849TIP3   OH235961   4.821   1.655   3.207 -0.0968  0.1370  0.1273
 4849TIP3    H135962   4.875   1.683   3.133  0.6951  0.7765  0.9422
 4849TIP3    H235963   4.804   1.562   3.190 -0.1662  0.3338 -0.9979
 4850TIP3   OH235964   5.273   4.818   0.022  0.4821 -0.3653  0.5765
 4850TIP3    H135965   5.282   4.825   0.117 -1.2760  0.3656  0.7262
 4850TIP3    H235966   5.237   4.730   0.008  3.4132 -1.6120  0.3123
 4851TIP3   OH235967   2.989   5.471  14.701  0.2677  0.1558 -0.5884
 4851TIP3    H135968   3.083   5.486  14.701 -0.0894  3.1352  0.5583
 4851TIP3    H235969   2.977   5.391  14.752  2.0433  1.6730  2.5164
 4852TIP3   OH235970   0.114   2.229  14.753 -0.4119  0.4445  0.2157
 4852TIP3    H135971   0.097   2.284  14.677  2.1204  1.3919  0.2215
 4852TIP3    H235972   0.046   2.252  14.816 -2.0728  0.2269 -1.4153
 4853TIP3   OH235973   3.699   0.452   2.457 -0.2261  0.9550  0.0135
 4853TIP3    H135974   3.655   0.426   2.376  0.2909  0.2693 -0.0592
 4853TIP3    H235975   3.637   0.510   2.501 -1.2783 -0.0988 -0.0239
 4854TIP3   OH235976   5.388   3.852   0.768  0.0802 -0.2491 -0.6292
 4854TIP3    H135977   5.482   3.848   0.748  0.4270  3.1042 -0.2324
 4854TIP3    H235978   5.383   3.828   0.861  0.4843 -0.6330 -0.6973
 4855TIP3   OH235979   1.653   6.634   4.944 -0.1423 -0.1465  0.2303
 4855TIP3    H135980   1.583   6.576   4.912  0.4679 -0.0886 -1.2978
 4855TIP3    H235981   1.728   6.614   4.888  0.9451  0.1364  1.5340
 4856TIP3   OH235982   0.738   4.045  13.654 -0.0285  0.1641  0.3502
 4856TIP3    H135983   0.778   4.081  13.733  0.4145 -0.0831  0.2462
 4856TIP3    H235984   0.810   4.040  13.591 -0.5124  0.9749 -0.2932
 4857TIP3   OH235985   6.526   4.677  15.541  0.1183  0.4305  0.2230
 4857TIP3    H135986   6.603   4.719  15.501  1.8703 -0.5877  2.3331
 4857TIP3    H235987   6.504   4.606  15.480 -0.4934  1.9842 -1.4428
 4858TIP3   OH235988   6.211   2.621   5.693 -0.0749 -0.0895 -0.1427
 4858TIP3    H135989   6.293   2.628   5.743  0.9075  0.0342 -1.6984
 4858TIP3    H235990   6.164   2.549   5.735  1.4835 -1.1193 -0.0580
 4859TIP3   OH235991   4.522   4.893  13.947 -0.1141 -0.4766  0.0304
 4859TIP3    H135992   4.541   4.804  13.916  1.1440 -0.3631  0.4377
 4859TIP3    H235993   4.607   4.927  13.975 -0.4103  1.2119 -1.0255
 4860TIP3   OH235994   2.499   0.288   1.800 -0.2456 -0.0857  0.2767
 4860TIP3    H135995   2.579   0.250   1.837  0.1833  0.0908 -0.4677
 4860TIP3    H235996   2.526   0.372   1.764 -1.0340  0.5881  1.1867
 4861TIP3   OH235997   2.289   3.283  15.399  0.1301  0.1652  0.3140
 4861TIP3    H135998   2.333   3.359  15.361 -0.7990  0.5461 -0.0219
 4861TIP3    H235999   2.354   3.212  15.393  0.1763  0.3252 -1.5684
 4862TIP3   OH236000   5.404   2.649  14.802 -0.4991 -0.0235 -0.0063
 4862TIP3    H136001   5.435   2.679  14.887 -1.9862  0.7291  0.3027
 4862TIP3    H236002   5.349   2.720  14.770 -0.2888 -0.4720 -1.4168
 4863TIP3   OH236003   2.613   2.991   2.096 -0.1281 -0.1295  0.4082
 4863TIP3    H136004   2.533   2.949   2.065  0.5212 -1.1421  0.0709
 4863TIP3    H236005   2.589   3.083   2.108 -0.7460  0.0761 -1.9261
 4864TIP3   OH236006   1.484   4.441  13.051  0.1700  0.2232  0.5711
 4864TIP3    H136007   1.453   4.357  13.083  0.7991 -0.2065  0.0704
 4864TIP3    H236008   1.428   4.506  13.095  0.3449 -0.3905  1.7392
 4865TIP3   OH236009   5.344   4.935   2.113 -0.2860 -0.0768 -0.0114
 4865TIP3    H136010   5.283   4.912   2.043 -0.0314  0.6401 -0.4779
 4865TIP3    H236011   5.289   4.960   2.186 -0.5554  0.7194 -0.4786
 4866TIP3   OH236012   3.987   2.644  15.807 -0.2716 -0.2545 -0.0931
 4866TIP3    H136013   4.000   2.713  15.871  0.7003 -0.1903 -0.3471
 4866TIP3    H236014   4.074   2.626  15.772 -0.0181 -3.4383  1.8266
 4867TIP3   OH236015   1.611   1.114   0.049  0.2880 -0.0584  0.3030
 4867TIP3    H136016   1.602   1.158  -0.036  1.3094 -1.1760 -0.4111
 4867TIP3    H236017   1.565   1.031   0.038 -0.0189  0.0060  1.0306
 4868TIP3   OH236018   6.251   0.445  12.610 -0.0282 -0.6122  0.2730
 4868TIP3    H136019   6.251   0.502  12.533  0.2065 -2.0856 -0.8527
 4868TIP3    H236020   6.239   0.505  12.684 -0.9142  0.7792 -0.9406
 4869TIP3   OH236021   3.390   5.765  14.405  0.1549 -0.5394 -0.3736
 4869TIP3    H136022   3.385   5.796  14.315 -0.7866 -1.5140 -0.6746
 4869TIP3    H236023   3.374   5.671  14.399 -0.6208 -0.5089  0.8808
 4870TIP3   OH236024   5.907   0.719   2.893  0.5984 -0.2550  0.1913
 4870TIP3    H136025   5.871   0.759   2.973  0.2586 -1.6899  0.7910
 4870TIP3    H236026   5.842   0.653   2.869  0.3475  0.6383 -1.7011
 4871TIP3   OH236027   2.697   1.536   5.412 -0.8330  0.0396  0.1666
 4871TIP3    H136028   2.659   1.611   5.458  1.5528  1.1724  0.4310
 4871TIP3    H236029   2.655   1.460   5.451 -2.7767  1.1707  0.4138
 4872TIP3   OH236030   1.997   1.799   5.726 -0.1320  0.1319 -0.1983
 4872TIP3    H136031   2.021   1.891   5.730  0.4436  0.0798 -1.8067
 4872TIP3    H236032   2.012   1.774   5.635 -1.0550 -1.3460  0.0193
 4873TIP3   OH236033   0.059   0.638  12.133 -0.3876  0.6072 -0.1509
 4873TIP3    H136034   0.048   0.609  12.042 -2.0047  0.5283  0.0321
 4873TIP3    H236035   0.115   0.715  12.127  0.7465 -0.2568 -1.0522
 4874TIP3   OH236036   1.436   2.920  11.546  0.2886  0.0094 -0.4742
 4874TIP3    H136037   1.503   2.868  11.589 -0.8183 -1.1207 -0.0582
 4874TIP3    H236038   1.485   2.984  11.494  1.6744  1.2752  2.2202
 4875TIP3   OH236039   3.252   3.787   2.131  0.4056 -0.5069  0.0128
 4875TIP3    H136040   3.240   3.790   2.036  0.5090  0.5106  0.0201
 4875TIP3    H236041   3.317   3.718   2.144 -1.0223 -2.0032 -0.4826
 4876TIP3   OH236042   3.385   2.430  12.769  0.3734  0.3665 -0.2602
 4876TIP3    H136043   3.423   2.343  12.757  0.4198  0.2446  0.6362
 4876TIP3    H236044   3.444   2.474  12.830  1.3163  1.6948 -2.0406
 4877TIP3   OH236045   2.309   0.477  12.070  0.3123 -0.7850 -0.3572
 4877TIP3    H136046   2.324   0.536  11.996 -2.1584  0.2751 -0.0898
 4877TIP3    H236047   2.339   0.526  12.146 -2.2921  0.5266 -0.0583
 4878TIP3   OH236048   0.915   2.699  12.474  0.4401 -0.4572 -0.2101
 4878TIP3    H136049   1.008   2.705  12.496  0.2840 -3.4172  1.7963
 4878TIP3    H236050   0.913   2.649  12.392  0.6137  0.0732 -0.5425
 4879TIP3   OH236051   3.519   5.917  15.374 -0.5139 -0.9108 -0.2158
 4879TIP3    H136052   3.550   5.965  15.451 -0.2447 -1.4658  0.0300
 4879TIP3    H236053   3.491   5.832  15.409 -0.8264 -0.9986 -0.6680
 4880TIP3   OH236054   6.659   4.851  11.890  0.3506  0.4559  0.2134
 4880TIP3    H136055   6.616   4.805  11.818  1.0576  0.1478 -0.0186
 4880TIP3    H236056   6.587   4.881  11.945 -0.1243 -2.5989  1.4461
 4881TIP3   OH236057   4.863   5.197   2.577  0.0395 -0.1494  0.5116
 4881TIP3    H136058   4.843   5.118   2.527  0.6367  0.5096 -0.8167
 4881TIP3    H236059   4.800   5.196   2.649 -0.8035 -1.1634 -0.2013
 4882TIP3   OH236060   4.507   1.539  11.243  0.2061  0.0588 -0.8091
 4882TIP3    H136061   4.545   1.496  11.320 -0.6874  1.7838  0.6739
 4882TIP3    H236062   4.473   1.467  11.190  1.3967 -1.2223  0.1006
 4883TIP3   OH236063   5.681   4.826   2.940 -0.1957  0.0644 -0.3264
 4883TIP3    H136064   5.746   4.835   3.010  0.3746 -0.5461 -0.7593
 4883TIP3    H236065   5.617   4.894   2.958  0.4178  0.4999  0.2794
 4884TIP3   OH236066   2.686   5.195   2.507  0.5392  0.0701 -0.0643
 4884TIP3    H136067   2.660   5.177   2.417  1.4994  0.4262 -0.4201
 4884TIP3    H236068   2.616   5.250   2.542 -1.0679 -2.0014  0.1891
 4885TIP3   OH236069   6.210   1.577   6.294  0.1696  0.0868 -0.1225
 4885TIP3    H136070   6.267   1.506   6.266  0.4690 -0.8182  2.5117
 4885TIP3    H236071   6.242   1.601   6.381 -1.0241  2.2881 -0.2114
 4886TIP3   OH236072   3.752   1.555  13.785  0.3215  0.1015  0.0353
 4886TIP3    H136073   3.696   1.483  13.755  0.0112  0.6179 -0.6598
 4886TIP3    H236074   3.692   1.614  13.831  0.4196  0.3183 -0.1128
 4887TIP3   OH236075   2.808   0.540   0.740  0.0822  0.2533 -0.0660
 4887TIP3    H136076   2.806   0.634   0.721  1.0436  0.4328  0.6181
 4887TIP3    H236077   2.738   0.503   0.687 -0.6529  1.4272  0.0417
 4888TIP3   OH236078   4.972   2.835  16.537  0.0676  0.2670 -0.3878
 4888TIP3    H136079   4.946   2.916  16.581  1.1400  0.7200 -0.5810
 4888TIP3    H236080   5.067   2.840  16.530  0.3794 -1.8471  1.2601
 4889TIP3   OH236081   1.663   6.408  15.065  0.5955  0.8241  0.4563
 4889TIP3    H136082   1.594   6.438  15.124 -1.5202  4.3067 -3.2126
 4889TIP3    H236083   1.625   6.333  15.019  0.2929  1.1255  0.2137
 4890TIP3   OH236084   1.333   6.036  11.466  0.0667 -0.2333  0.1323
 4890TIP3    H136085   1.251   6.032  11.417 -0.2760 -0.4078  0.7204
 4890TIP3    H236086   1.385   6.102  11.420 -0.2787 -0.3416 -0.4243
 4891TIP3   OH236087   4.184   6.142  13.748 -0.2693  0.3018  0.4154
 4891TIP3    H136088   4.113   6.089  13.713  1.0069 -1.1572 -0.1031
 4891TIP3    H236089   4.252   6.139  13.681  0.1248  2.0349  0.6970
 4892TIP3   OH236090   1.315   2.122   0.305  0.1487 -0.8397 -0.1214
 4892TIP3    H136091   1.280   2.175   0.233  1.3553  1.1807  0.6712
 4892TIP3    H236092   1.248   2.126   0.373  0.9430  1.3449  0.6348
 4893TIP3   OH236093   0.510   0.736   5.695  0.7669  0.0177  0.0232
 4893TIP3    H136094   0.417   0.757   5.696  0.8029  0.1485  0.6498
 4893TIP3    H236095   0.532   0.716   5.786  1.1077 -1.1114 -0.2862
 4894TIP3   OH236096   0.813   4.753   5.644  0.0139  0.0982  0.0396
 4894TIP3    H136097   0.771   4.777   5.561 -1.6159 -0.0449  0.7961
 4894TIP3    H236098   0.903   4.734   5.620 -0.6883 -1.0529 -1.9093
 4895TIP3   OH236099   0.189   3.631  12.572  0.4805 -0.7910 -0.3028
 4895TIP3    H136100   0.237   3.698  12.622  4.0562 -1.7242 -2.1115
 4895TIP3    H236101   0.204   3.550  12.621 -0.5420 -0.8861 -0.1391
 4896TIP3   OH236102   0.078   0.603  12.489 -0.1446 -0.5935 -0.1957
 4896TIP3    H136103   0.072   0.537  12.420  0.6930  0.7136 -1.5849
 4896TIP3    H236104   0.075   0.687  12.442 -1.0291  0.3813  1.4882
 4897TIP3   OH236105   6.252   2.869  15.829 -0.2074  0.1104  0.9342
 4897TIP3    H136106   6.227   2.953  15.867 -1.2123  0.8590 -1.2421
 4897TIP3    H236107   6.170   2.829  15.802  0.4305 -0.4940 -0.1981
 4898TIP3   OH236108   2.536   5.021  15.076 -0.0042  0.1525 -0.2114
 4898TIP3    H136109   2.576   4.940  15.045 -0.8676 -1.0990  1.7688
 4898TIP3    H236110   2.532   5.012  15.171 -0.3909  2.4147  0.0493
 4899TIP3   OH236111   0.923   6.712   2.871 -0.2938  0.4053 -0.6855
 4899TIP3    H136112   0.880   6.668   2.797 -0.4240 -0.7700  0.0605
 4899TIP3    H236113   0.880   6.797   2.876 -0.4282  0.4232 -1.8260
 4900TIP3   OH236114   3.257   3.854  10.498  0.1010 -0.5402 -0.1223
 4900TIP3    H136115   3.287   3.942  10.520 -2.3925  0.4416 -0.2487
 4900TIP3    H236116   3.294   3.798  10.566  2.5428  0.4047 -0.5922
 4901TIP3   OH236117   1.953   3.190  14.451  0.2199  0.2058  0.2376
 4901TIP3    H136118   2.010   3.201  14.374 -0.2826  0.7934 -0.0542
 4901TIP3    H236119   2.007   3.219  14.525  1.2404 -1.7197  0.3387
 4902TIP3   OH236120   2.212   2.688  14.173  0.6084 -0.7365 -0.5336
 4902TIP3    H136121   2.173   2.690  14.086  0.7258  2.1487 -0.6064
 4902TIP3    H236122   2.298   2.729  14.161  0.5503 -0.1283  0.9551
 4903TIP3   OH236123   6.714   4.280   3.551 -0.8479 -0.1554 -0.3366
 4903TIP3    H136124   6.649   4.249   3.488 -0.1796 -1.0479 -0.5987
 4903TIP3    H236125   6.721   4.209   3.615 -1.4289  0.6917  0.7020
 4904TIP3   OH236126   5.273   2.630  13.108  0.1239 -0.3253 -0.3555
 4904TIP3    H136127   5.349   2.687  13.113 -0.5184  0.4909  0.3908
 4904TIP3    H236128   5.209   2.679  13.056 -0.3933 -0.4083  0.1922
 4905TIP3   OH236129   4.535   0.004   3.595 -0.4679 -0.0196  0.1323
 4905TIP3    H136130   4.469   0.048   3.648 -1.4068  1.8818 -2.4384
 4905TIP3    H236131   4.596   0.073   3.570 -1.3643 -0.2281 -3.0842
 4906TIP3   OH236132   2.727   4.577  13.978  0.2116 -0.1255  0.5171
 4906TIP3    H136133   2.721   4.491  14.022 -2.3179 -0.6845 -0.7160
 4906TIP3    H236134   2.670   4.634  14.031 -1.0322 -0.2137 -0.6695
 4907TIP3   OH236135   3.941   1.823  10.722  0.1048 -0.4381 -0.1380
 4907TIP3    H136136   3.916   1.852  10.635  0.3865 -1.9574 -0.7547
 4907TIP3    H236137   4.028   1.784  10.711  0.7022  0.4734  1.0721
 4908TIP3   OH236138   6.308   4.748   2.629 -0.0264  0.4788  0.3124
 4908TIP3    H136139   6.222   4.724   2.663 -0.5210  1.7595  0.0044
 4908TIP3    H236140   6.339   4.817   2.687  0.3986  0.6629 -0.1218
 4909TIP3   OH236141   2.484   2.790   5.034 -0.2441 -0.0842 -0.6034
 4909TIP3    H136142   2.560   2.738   5.007 -0.5757 -1.3856  0.8750
 4909TIP3    H236143   2.423   2.727   5.071 -1.8549  1.0114 -1.2819
 4910TIP3   OH236144   3.626   3.535  14.861  0.0647 -0.5791  0.2141
 4910TIP3    H136145   3.589   3.529  14.949  1.7969 -1.3104  0.9541
 4910TIP3    H236146   3.721   3.525  14.875  0.3175 -1.3882 -1.8011
 4911TIP3   OH236147   2.955   4.762  16.984  0.1720  0.0212  0.1509
 4911TIP3    H136148   2.958   4.827  17.054  2.6992  0.0748  0.0767
 4911TIP3    H236149   2.934   4.812  16.905  0.7073  0.5146  0.3193
 4912TIP3   OH236150   3.950   3.441   2.304  0.4703 -0.6194  0.2855
 4912TIP3    H136151   3.932   3.418   2.395  1.5062  1.2319  1.0050
 4912TIP3    H236152   4.038   3.405   2.288  1.0540  0.6236  0.6228
 4913TIP3   OH236153   4.282   4.854   4.745  0.2874 -0.2925 -0.1194
 4913TIP3    H136154   4.239   4.853   4.660 -0.0673 -1.3393  0.0499
 4913TIP3    H236155   4.366   4.809   4.730 -0.5063 -2.0471  0.4069
 4914TIP3   OH236156   4.927   2.447   0.525  0.5365 -0.1063  0.5273
 4914TIP3    H136157   4.982   2.369   0.514 -0.0087 -0.2781 -1.4713
 4914TIP3    H236158   4.874   2.428   0.602 -1.4155 -2.9412 -1.3119
 4915TIP3   OH236159   6.621   5.806   2.005 -0.3293 -0.1912  0.2332
 4915TIP3    H136160   6.601   5.741   1.937 -0.4921 -0.9684  1.0019
 4915TIP3    H236161   6.678   5.869   1.963 -0.6632 -0.5036 -0.7069
 4916TIP3   OH236162   4.858   5.287  16.668 -0.1308  0.4960 -0.4568
 4916TIP3    H136163   4.871   5.193  16.672  0.3047  0.5168 -1.3747
 4916TIP3    H236164   4.946   5.324  16.669 -0.2982  0.9727  1.1949
 4917TIP3   OH236165   4.395   0.478   2.566 -0.5192  0.1543  0.4302
 4917TIP3    H136166   4.324   0.540   2.581  1.3477  2.2515  1.0548
 4917TIP3    H236167   4.402   0.430   2.649 -1.6767 -0.6489  0.0934
 4918TIP3   OH236168   6.126   1.963  14.076  0.5897  0.0212 -0.3621
 4918TIP3    H136169   6.038   1.984  14.108  1.0355  1.0914  0.2251
 4918TIP3    H236170   6.124   1.985  13.983  0.4073  0.6236 -0.2201
 4919TIP3   OH236171   2.622   4.077   3.995 -0.3587 -0.4733 -0.1354
 4919TIP3    H136172   2.603   3.984   4.003  1.5206 -1.0414 -1.4676
 4919TIP3    H236173   2.660   4.101   4.079 -0.1436 -1.1040 -0.0490
 4920TIP3   OH236174   6.162   3.890  16.494 -0.5433  0.0504 -0.1951
 4920TIP3    H136175   6.218   3.886  16.417 -0.5077  1.5873 -0.2826
 4920TIP3    H236176   6.197   3.825  16.554  0.7045  0.2791 -0.6612
 4921TIP3   OH236177   3.491   3.390   4.511  0.7799 -0.6269 -0.4134
 4921TIP3    H136178   3.500   3.414   4.418 -1.0256  0.4986 -0.3629
 4921TIP3    H236179   3.527   3.464   4.559 -0.6745  0.0233 -0.2563
 4922TIP3   OH236180   3.768   0.400   0.319  0.3777 -1.0416 -0.0760
 4922TIP3    H136181   3.699   0.439   0.373  1.0112  0.3263 -0.1959
 4922TIP3    H236182   3.850   0.427   0.362  0.8742 -0.6070 -1.2564
 4923TIP3   OH236183   6.170   0.347  15.023 -0.3347  0.4622  0.2610
 4923TIP3    H136184   6.213   0.399  14.955 -0.2809 -0.6064 -0.5616
 4923TIP3    H236185   6.084   0.327  14.987 -0.1698 -0.4280  0.3302
 4924TIP3   OH236186   4.651   0.644  15.351 -0.0093 -0.5480 -0.4598
 4924TIP3    H136187   4.642   0.734  15.321 -0.6121 -0.0945  1.0212
 4924TIP3    H236188   4.745   0.627  15.347  0.3038  0.7195  0.8138
 4925TIP3   OH236189   2.078   5.575  11.820  0.5163 -0.4354 -0.5964
 4925TIP3    H136190   2.124   5.616  11.746 -0.8302  1.4519 -0.4576
 4925TIP3    H236191   2.143   5.571  11.890  1.3666 -0.8054 -1.3921
 4926TIP3   OH236192   1.459   3.547   4.535 -0.9503  0.7236  0.1955
 4926TIP3    H136193   1.396   3.486   4.497 -0.3027  0.2747 -0.1602
 4926TIP3    H236194   1.496   3.501   4.610 -0.3681  0.6172 -0.1496
 4927TIP3   OH236195   1.463   3.402   1.837 -0.7113  0.0110 -0.1988
 4927TIP3    H136196   1.501   3.460   1.903 -0.0935 -2.5902  1.8997
 4927TIP3    H236197   1.369   3.406   1.852 -0.5494 -0.8715  1.1671
 4928TIP3   OH236198   3.485   4.106  11.685 -0.2410 -0.2262  0.0539
 4928TIP3    H136199   3.516   4.108  11.775 -1.6143  0.0789  0.5430
 4928TIP3    H236200   3.512   4.191  11.649  0.1709 -0.2842  0.2232
 4929TIP3   OH236201   5.734   6.288   4.351  0.0686 -0.5095  0.3747
 4929TIP3    H136202   5.793   6.227   4.307 -1.5804 -0.0721 -2.7489
 4929TIP3    H236203   5.791   6.359   4.381  1.2651 -0.3489 -2.0494
 4930TIP3   OH236204   5.780   6.412   5.440 -0.4460 -0.6585 -0.3099
 4930TIP3    H136205   5.766   6.329   5.484  1.6977 -0.9835 -0.1294
 4930TIP3    H236206   5.813   6.388   5.353 -1.9953  0.0106 -1.1293
 4931TIP3   OH236207   3.513   2.601  12.977 -0.4169 -0.8889  0.3113
 4931TIP3    H136208   3.546   2.619  13.066 -1.0699 -0.1285  0.4123
 4931TIP3    H236209   3.471   2.683  12.950 -1.2026 -1.4653 -0.2671
 4932TIP3   OH236210   0.547   3.540   2.895  0.2060  0.4734  0.8466
 4932TIP3    H136211   0.508   3.553   2.809  1.2346 -3.2021 -0.3689
 4932TIP3    H236212   0.486   3.582   2.955 -1.6143  1.4507 -1.5071
 4933TIP3   OH236213   2.113   6.054  14.783 -0.2047 -0.1181 -0.1704
 4933TIP3    H136214   2.079   6.122  14.842 -1.2332 -1.8114  1.3143
 4933TIP3    H236215   2.195   6.090  14.750 -0.4195  1.6032  1.0109
 4934TIP3   OH236216   6.031   6.237  11.795  0.0117  0.1559 -0.3808
 4934TIP3    H136217   5.946   6.209  11.762 -0.2194  0.1394  0.2132
 4934TIP3    H236218   6.094   6.202  11.732 -0.5113  1.7342 -1.8507
 4935TIP3   OH236219   2.799   6.124   6.438  0.0025  0.4601  0.4224
 4935TIP3    H136220   2.774   6.191   6.374  3.9265  1.4226 -0.3469
 4935TIP3    H236221   2.831   6.174   6.513  0.1152 -0.5998  1.0909
 4936TIP3   OH236222   3.789   3.614  11.988 -0.6675 -0.1875 -0.3998
 4936TIP3    H136223   3.773   3.666  11.910 -0.4362 -0.3528 -0.5604
 4936TIP3    H236224   3.736   3.655  12.057  0.4117  0.9803 -0.2322
 4937TIP3   OH236225   0.290   1.004   5.283  0.3821  0.1617  0.4838
 4937TIP3    H136226   0.382   0.979   5.272  0.2113 -0.0443 -0.6600
 4937TIP3    H236227   0.241   0.931   5.244 -0.2249  0.7634  0.1013
 4938TIP3   OH236228   0.639   3.533  14.300  0.4927 -0.2156 -0.2491
 4938TIP3    H136229   0.642   3.493  14.213 -0.1591 -0.5260 -0.1369
 4938TIP3    H236230   0.701   3.481  14.352  1.1735  0.2120 -0.6144
 4939TIP3   OH236231   3.363   5.359   3.347  0.1959  0.3891  0.1911
 4939TIP3    H136232   3.422   5.420   3.391 -0.0579  1.2253 -0.6196
 4939TIP3    H236233   3.364   5.384   3.255  1.7275 -2.1585 -0.5854
 4940TIP3   OH236234   5.885   0.508  15.403 -0.4123 -0.1627  0.1629
 4940TIP3    H136235   5.954   0.493  15.339 -1.7697 -1.1174 -1.1487
 4940TIP3    H236236   5.854   0.597  15.384  0.8526  0.5493  1.2168
 4941TIP3   OH236237   2.598   5.376   3.281  0.2087 -0.0693  0.0926
 4941TIP3    H136238   2.624   5.290   3.249  0.0133  0.0766 -0.4705
 4941TIP3    H236239   2.637   5.382   3.368  2.6476  0.4107 -0.9476
 4942TIP3   OH236240   3.831   5.235   1.244  0.2985 -0.7503 -0.5577
 4942TIP3    H136241   3.886   5.283   1.307  0.7453 -0.3830 -1.2164
 4942TIP3    H236242   3.741   5.256   1.271  0.4823 -0.5430 -0.0811
 4943TIP3   OH236243   5.259   5.597  13.117  0.0389  0.1366  0.2125
 4943TIP3    H136244   5.236   5.664  13.182  1.1218  0.3380  0.4088
 4943TIP3    H236245   5.353   5.585  13.128 -0.1380 -1.4037  0.1582
 4944TIP3   OH236246   3.659   5.517   5.690 -0.2737  1.2598  0.0953
 4944TIP3    H136247   3.566   5.537   5.695 -0.5306 -0.0117  1.0892
 4944TIP3    H236248   3.703   5.591   5.731 -0.6458  2.8502 -2.1794
 4945TIP3   OH236249   0.119   1.103  12.058  0.1585 -0.0425  0.6955
 4945TIP3    H136250   0.211   1.115  12.078  0.0844 -1.1023  1.7089
 4945TIP3    H236251   0.078   1.187  12.082  0.8942  0.5899 -0.1751
 4946TIP3   OH236252   0.185   3.003  11.648 -0.2459 -0.2970 -0.2457
 4946TIP3    H136253   0.214   2.929  11.595  1.0007 -0.2725  0.3444
 4946TIP3    H236254   0.196   2.972  11.739 -1.7194 -0.1164  0.0137
 4947TIP3   OH236255   1.220   2.295   2.919 -0.5167  0.6302  0.2208
 4947TIP3    H136256   1.306   2.328   2.896 -0.3844  0.0777 -0.1073
 4947TIP3    H236257   1.212   2.213   2.870 -1.0578  0.4661  0.5704
 4948TIP3   OH236258   4.277   2.255   1.148  0.0973 -0.3786  0.1845
 4948TIP3    H136259   4.368   2.227   1.137  1.4096  3.0725  1.0606
 4948TIP3    H236260   4.261   2.249   1.242  0.1492  0.9443  0.2892
 4949TIP3   OH236261   4.354   1.260  16.637  0.0783 -0.3885 -0.3513
 4949TIP3    H136262   4.265   1.236  16.663  0.9978 -1.9887  1.4963
 4949TIP3    H236263   4.410   1.229  16.708  2.1080  0.9264 -1.2719
 4950TIP3   OH236264   5.615   3.261  13.136  0.5189  0.1665  0.4475
 4950TIP3    H136265   5.711   3.266  13.133  0.7720 -2.4277  1.2733
 4950TIP3    H236266   5.597   3.189  13.197 -1.9874  0.8916  0.6784
 4951TIP3   OH236267   2.577   5.699  14.526 -0.4224 -0.2409  0.5654
 4951TIP3    H136268   2.525   5.769  14.564 -0.6433 -0.2938  0.3619
 4951TIP3    H236269   2.605   5.733  14.441  0.0946 -0.1118  0.7829
 4952TIP3   OH236270   2.496   4.697   3.523  0.1413 -0.2713  0.5855
 4952TIP3    H136271   2.510   4.787   3.494 -1.7412  0.4350  1.7624
 4952TIP3    H236272   2.585   4.662   3.531  0.8926  1.1209 -0.8595
 4953TIP3   OH236273   5.286   0.934   5.241  0.2739 -0.4399  0.3279
 4953TIP3    H136274   5.298   1.025   5.214  0.1361 -0.7896 -1.0258
 4953TIP3    H236275   5.314   0.932   5.332 -3.6616  1.8465  1.8359
 4954TIP3   OH236276   6.128   0.077   3.563  0.0794  0.2480  0.2104
 4954TIP3    H136277   6.210   0.125   3.548  1.0617 -1.6562 -0.8271
 4954TIP3    H236278   6.065   0.119   3.504  0.7802  0.5850 -0.3190
 4955TIP3   OH236279   1.387   2.082  11.009 -0.3354  0.3104 -0.4674
 4955TIP3    H136280   1.317   2.138  10.975  1.0602  1.8350 -0.9769
 4955TIP3    H236281   1.467   2.121  10.974  0.8756 -0.5501  1.2081
 4956TIP3   OH236282   0.951   3.969  16.785 -0.2747 -0.0699  0.1182
 4956TIP3    H136283   0.905   4.039  16.737 -0.8671 -0.2224  0.4481
 4956TIP3    H236284   0.909   3.968  16.871 -1.7688 -2.2519 -0.5530
 4957TIP3   OH236285   1.076   5.824  10.789 -0.2857  0.2348  0.2434
 4957TIP3    H136286   1.036   5.749  10.834 -1.3706 -0.8751 -2.4099
 4957TIP3    H236287   1.004   5.885  10.776  0.4526  1.4924  1.7545
 4958TIP3   OH236288   0.465   0.275  16.672  0.0588  0.4173  0.8303
 4958TIP3    H136289   0.464   0.363  16.636 -1.7626  0.1219  0.0951
 4958TIP3    H236290   0.465   0.217  16.596 -2.2815 -0.2015  1.2421
 4959TIP3   OH236291   3.310   5.199  13.645  0.3179  0.2848 -0.2638
 4959TIP3    H136292   3.394   5.177  13.606  0.4711  1.7794 -0.8621
 4959TIP3    H236293   3.277   5.271  13.591 -1.5060 -0.4855 -0.2386
 4960TIP3   OH236294   4.167   6.579   3.768 -0.1453 -0.3162 -0.1862
 4960TIP3    H136295   4.163   6.581   3.673  0.4920 -1.5515 -0.2613
 4960TIP3    H236296   4.092   6.631   3.797 -0.4812 -0.1345 -1.3628
 4961TIP3   OH236297   5.148   3.475  15.295 -0.3951  0.3314  0.2099
 4961TIP3    H136298   5.082   3.422  15.341  0.2001 -1.4474 -0.8982
 4961TIP3    H236299   5.179   3.537  15.361 -1.1992 -0.6307  1.5416
 4962TIP3   OH236300   6.788   6.657   2.524  1.1006 -0.9617  0.3143
 4962TIP3    H136301   6.777   6.583   2.464 -0.5859 -0.9497  0.5627
 4962TIP3    H236302   6.801   6.733   2.468  0.0455 -1.0301 -0.0305
 4963TIP3   OH236303   6.158   3.056  13.009  0.0009  0.3568  0.4302
 4963TIP3    H136304   6.252   3.045  13.023  0.0407 -1.6456 -1.0409
 4963TIP3    H236305   6.117   3.013  13.084  0.2430  0.7089  0.7689
 4964TIP3   OH236306   2.211   0.401  11.359 -0.5683  0.1340 -0.0044
 4964TIP3    H136307   2.241   0.468  11.298 -0.6415  0.3472  0.1945
 4964TIP3    H236308   2.146   0.350  11.308 -2.5423  1.8603  0.6393
 4965TIP3   OH236309   2.248   2.348  16.034 -0.7576  0.1015 -0.3596
 4965TIP3    H136310   2.189   2.290  16.083  0.3479 -0.5679  0.2105
 4965TIP3    H236311   2.310   2.380  16.100 -1.2005  1.7855 -0.7047
 4966TIP3   OH236312   3.857   6.058   5.121  0.7732  0.3263 -0.2096
 4966TIP3    H136313   3.862   5.963   5.131 -0.4192  0.4004  1.6346
 4966TIP3    H236314   3.946   6.085   5.101  1.0383 -1.2014 -1.3547
 4967TIP3   OH236315   0.038   0.117   4.670  0.3547  0.1277 -0.0166
 4967TIP3    H136316   0.128   0.086   4.675 -0.1600 -1.7235 -0.9386
 4967TIP3    H236317  -0.015   0.037   4.681 -1.1446  1.0747 -0.0716
 4968TIP3   OH236318   6.410   0.095   1.797 -0.4498 -0.6859  0.5154
 4968TIP3    H136319   6.457   0.022   1.836  1.3476 -0.3512 -0.8780
 4968TIP3    H236320   6.468   0.170   1.807 -0.4963 -0.3082 -1.4860
 4969TIP3   OH236321   5.562   6.709   4.630  0.2335  0.0753  0.1374
 4969TIP3    H136322   5.600   6.638   4.682  0.9550  1.4053  1.5275
 4969TIP3    H236323   5.635   6.745   4.581  0.3203  1.1371  1.0096
 4970TIP3   OH236324   5.756   2.216   1.645 -0.1027 -0.0176 -0.2788
 4970TIP3    H136325   5.696   2.175   1.707 -0.1328 -1.8160 -1.4370
 4970TIP3    H236326   5.700   2.248   1.575  0.0426  0.9985  0.0443
 4971TIP3   OH236327   1.027   0.063   5.149  0.4091 -0.2093 -0.3102
 4971TIP3    H136328   1.008   0.138   5.206 -0.3770 -1.2928  0.9220
 4971TIP3    H236329   0.944   0.044   5.106  0.4614 -0.7081 -0.1909
 4972TIP3   OH236330   0.289   6.102   0.087  0.3406 -0.4621  0.3134
 4972TIP3    H136331   0.194   6.092   0.076  0.0500  1.4183  0.6596
 4972TIP3    H236332   0.305   6.072   0.177  0.1365 -1.0743  0.1527
 4973TIP3   OH236333   2.311   2.003   3.521 -0.0100 -0.1822  0.1981
 4973TIP3    H136334   2.326   2.066   3.450 -1.2089  0.7080  0.7019
 4973TIP3    H236335   2.225   1.966   3.503 -0.4331  0.2276  1.2977
 4974TIP3   OH236336   5.307   0.119  16.335  0.4382 -0.2096 -0.1766
 4974TIP3    H136337   5.348   0.036  16.360  0.9646 -0.2945 -1.2707
 4974TIP3    H236338   5.355   0.185  16.385 -0.9989 -0.6322  1.9267
 4975TIP3   OH236339   4.550   5.771  15.730  0.3804 -1.3859  1.1020
 4975TIP3    H136340   4.526   5.810  15.815 -1.3923  2.1226 -0.7581
 4975TIP3    H236341   4.475   5.716  15.708  0.7004 -2.0505  1.6373
 4976TIP3   OH236342   6.022   2.946   6.616  0.5520  0.3894  0.0199
 4976TIP3    H136343   5.941   2.972   6.659 -0.3354 -1.0397 -0.7057
 4976TIP3    H236344   6.068   2.893   6.681  0.7155  0.8434  0.2800
 4977TIP3   OH236345   5.749   0.862  14.706 -0.0049 -0.3939  0.0617
 4977TIP3    H136346   5.663   0.859  14.749  0.5152  0.3640  1.1973
 4977TIP3    H236347   5.810   0.885  14.776  0.8994  0.7339 -1.0542
 4978TIP3   OH236348   0.018   5.015  14.951 -0.3414 -0.1803 -0.5895
 4978TIP3    H136349   0.013   4.996  14.858 -0.3907  0.4449 -0.7157
 4978TIP3    H236350  -0.049   4.959  14.991  0.4241 -1.2789 -0.7879
 4979TIP3   OH236351   3.695   2.777  12.117 -0.1920 -0.1921 -0.2193
 4979TIP3    H136352   3.750   2.855  12.111 -1.0783  0.4612 -0.0127
 4979TIP3    H236353   3.671   2.772  12.210 -0.3197 -0.5865 -0.2732
 4980TIP3   OH236354   4.389   3.913   0.937  0.2961 -0.0874  0.2928
 4980TIP3    H136355   4.346   3.839   0.979 -0.4123 -0.4575 -1.0339
 4980TIP3    H236356   4.426   3.876   0.857 -2.4214  1.4595 -1.8265
 4981TIP3   OH236357   2.216   1.271   3.185 -0.2587  0.1808 -0.0264
 4981TIP3    H136358   2.177   1.188   3.156 -0.3472  0.2625 -0.1439
 4981TIP3    H236359   2.219   1.264   3.280 -1.8498  0.7401  0.0825
 4982TIP3   OH236360   4.983   6.442   4.932  0.1450 -0.2961 -0.0038
 4982TIP3    H136361   4.993   6.460   5.025  0.6372 -1.0793  0.1065
 4982TIP3    H236362   5.049   6.497   4.889  0.2926 -0.3493  0.1556
 4983TIP3   OH236363   4.905   1.639  11.288 -0.6376 -0.3391 -0.1107
 4983TIP3    H136364   4.997   1.665  11.285 -1.1932  1.6917 -2.4502
 4983TIP3    H236365   4.903   1.552  11.249  0.0090  0.9070 -3.1916
 4984TIP3   OH236366   0.756   5.810  13.022 -0.0591  0.2450  0.2153
 4984TIP3    H136367   0.776   5.737  13.080 -0.4120  0.3585  0.4899
 4984TIP3    H236368   0.834   5.820  12.968 -0.2188 -0.6954 -0.2116
 4985TIP3   OH236369   1.181   6.445   5.022 -0.1881 -0.1333 -0.5274
 4985TIP3    H136370   1.208   6.498   5.096 -0.3439 -0.8097  0.0300
 4985TIP3    H236371   1.119   6.382   5.059  1.0748 -1.6441 -0.8708
 4986TIP3   OH236372   4.772   1.996  16.855 -0.2018 -0.1694 -0.6390
 4986TIP3    H136373   4.854   2.029  16.818  0.0742 -0.1503 -0.0263
 4986TIP3    H236374   4.703   2.044  16.809  0.1525  0.2865 -0.7011
 4987TIP3   OH236375   1.764   5.258  13.809  0.3152  0.0115  0.4950
 4987TIP3    H136376   1.678   5.294  13.832 -0.1614 -0.7585 -0.0462
 4987TIP3    H236377   1.817   5.335  13.789  0.9877  0.8967  4.6334
 4988TIP3   OH236378   1.265   1.647  11.311 -0.2546  0.2402 -0.3093
 4988TIP3    H136379   1.330   1.714  11.288 -0.1282  0.3053  0.2383
 4988TIP3    H236380   1.213   1.687  11.380 -0.2341 -0.1938 -0.0391
 4989TIP3   OH236381   6.229   6.072  13.868  0.1947 -0.1211 -0.0512
 4989TIP3    H136382   6.160   6.129  13.836 -0.0858  0.6572  1.7801
 4989TIP3    H236383   6.209   5.986  13.832 -0.3618  0.5700 -1.4648
 4990TIP3   OH236384   6.611   1.346   0.726  0.4812  0.2990  0.0894
 4990TIP3    H136385   6.576   1.403   0.795 -0.3500  0.1667 -0.2083
 4990TIP3    H236386   6.701   1.376   0.714  0.2227  1.2086  0.3000
 4991TIP3   OH236387   4.801   3.802   0.739 -0.3541 -0.1194  0.1115
 4991TIP3    H136388   4.788   3.748   0.661  0.8134  0.6304 -0.6314
 4991TIP3    H236389   4.895   3.819   0.741 -0.5230  0.7578  1.0832
 4992TIP3   OH236390   2.996   3.619  17.218 -0.3124  0.2884  0.1540
 4992TIP3    H136391   2.969   3.692  17.162 -0.3963 -0.1821 -0.4395
 4992TIP3    H236392   3.092   3.616  17.209 -0.4538 -0.8304 -1.3324
 4993TIP3   OH236393   3.312   6.009   0.579  0.1605  0.0320  0.1500
 4993TIP3    H136394   3.224   6.038   0.553  0.3725 -0.9153 -1.7278
 4993TIP3    H236395   3.295   5.941   0.645 -0.4556  0.7825  0.7938
 4994TIP3   OH236396   0.124   6.118  14.377 -0.2357  0.2538  0.3084
 4994TIP3    H136397   0.035   6.127  14.411 -0.2838 -0.3169  0.3421
 4994TIP3    H236398   0.143   6.025  14.384  1.4404  0.6912  3.0264
 4995TIP3   OH236399   6.365   1.292  11.968  0.1535  0.1411 -0.3496
 4995TIP3    H136400   6.390   1.252  12.051 -1.4039 -0.2197 -0.0246
 4995TIP3    H236401   6.446   1.292  11.916  1.7926  2.5376  1.9645
 4996TIP3   OH236402   4.403   1.459  10.521  0.2611 -0.0530 -0.9855
 4996TIP3    H136403   4.389   1.383  10.578  1.1776 -1.0504 -2.0117
 4996TIP3    H236404   4.320   1.471  10.476  0.3698 -1.0617 -1.4902
 4997TIP3   OH236405   4.672   0.445  11.561  0.4243  0.1251 -0.1345
 4997TIP3    H136406   4.633   0.358  11.576  0.4361  0.4161  1.8534
 4997TIP3    H236407   4.756   0.426  11.520  0.8169 -0.8958  1.0687
 4998TIP3   OH236408   1.610   0.521  10.726  0.5483  0.4933  0.8559
 4998TIP3    H136409   1.692   0.541  10.680  0.3503 -0.5294  0.0199
 4998TIP3    H236410   1.586   0.603  10.767  0.9156  1.3849 -0.6119
 4999TIP3   OH236411   5.408   3.684   5.411 -0.1797 -0.0592 -0.0192
 4999TIP3    H136412   5.501   3.671   5.393 -0.6751 -2.7670 -1.0991
 4999TIP3    H236413   5.379   3.743   5.341  0.7080  0.9022  0.3897
 5000TIP3   OH236414   5.793   5.895   5.675 -0.0201 -0.3494  0.4271
 5000TIP3    H136415   5.761   5.933   5.757  0.5005 -1.2360  1.0569
 5000TIP3    H236416   5.864   5.837   5.701  0.1621 -0.6462 -0.6608
 5001TIP3   OH236417   5.634   1.319   0.142  0.3702 -0.0983  0.1127
 5001TIP3    H136418   5.702   1.329   0.074  0.6609 -0.0335  0.4083
 5001TIP3    H236419   5.617   1.225   0.145  0.7583 -0.1635  0.3351
 5002TIP3   OH236420   1.277   1.562   0.094  0.1400 -0.7167 -0.3739
 5002TIP3    H136421   1.227   1.583   0.016 -1.2710 -0.4974  0.5424
 5002TIP3    H236422   1.252   1.471   0.115  1.8947 -1.4308 -1.1560
 5003TIP3   OH236423   0.676   0.735   3.462 -0.2957  0.8001  0.0207
 5003TIP3    H136424   0.691   0.823   3.426 -1.5645  1.5226  1.1496
 5003TIP3    H236425   0.678   0.677   3.385  0.3579  1.8311 -0.7739
 5004TIP3   OH236426   3.882   3.037   4.455  0.5270  0.3729  0.3556
 5004TIP3    H136427   3.908   3.001   4.370 -0.9463 -1.7964  0.7327
 5004TIP3    H236428   3.964   3.048   4.503  1.4181  1.9103 -1.3873
 5005TIP3   OH236429   3.093   4.011   5.833  0.0225 -0.5811 -0.1452
 5005TIP3    H136430   3.119   3.998   5.741 -0.7376 -0.4873 -0.3805
 5005TIP3    H236431   3.018   3.953   5.844 -0.5685  0.2235  0.1044
 5006TIP3   OH236432   5.953   3.398   1.796  0.8813  0.2311 -0.3854
 5006TIP3    H136433   6.022   3.421   1.859  1.3663  0.9579 -1.1632
 5006TIP3    H236434   5.998   3.398   1.711  0.0929 -0.0930 -0.8065
 5007TIP3   OH236435   5.253   0.070  14.986  0.1305 -0.4219  0.5090
 5007TIP3    H136436   5.308   0.024  15.050  2.3283 -0.0213 -0.9953
 5007TIP3    H236437   5.200   0.001  14.947 -0.2940 -0.8653  1.7990
 5008TIP3   OH236438   3.240   0.654  15.335 -0.3360 -0.7089  0.1339
 5008TIP3    H136439   3.291   0.600  15.395 -1.9381 -0.8456  1.4594
 5008TIP3    H236440   3.190   0.712  15.391 -1.0730 -0.0721 -1.1291
 5009TIP3   OH236441   6.268   0.932  12.525  0.0985  0.4862 -0.2341
 5009TIP3    H136442   6.175   0.956  12.517  0.2967  1.4330  0.0556
 5009TIP3    H236443   6.283   0.868  12.456 -1.2806 -1.3290  1.0360
 5010TIP3   OH236444   6.506   6.423   1.360 -0.0355 -0.5547  0.2847
 5010TIP3    H136445   6.447   6.408   1.434  1.0690  0.5288  1.4329
 5010TIP3    H236446   6.452   6.464   1.294 -0.3891  1.4542  1.7308
 5011TIP3   OH236447   5.334   4.457   1.454 -0.7043 -0.4710  0.3060
 5011TIP3    H136448   5.348   4.540   1.409 -0.5811 -0.2550  0.7360
 5011TIP3    H236449   5.415   4.441   1.502 -0.4497 -1.2076 -0.3476
 5012TIP3   OH236450   0.469   4.518   3.000  0.6581  0.6568  0.0502
 5012TIP3    H136451   0.498   4.542   2.912 -0.5998  0.7332 -0.3643
 5012TIP3    H236452   0.376   4.541   3.001  0.7208  0.9366  1.5025
 5013TIP3   OH236453   4.916   4.399  13.383 -0.0715 -0.3059  0.5593
 5013TIP3    H136454   4.918   4.325  13.322  0.0563  1.3523 -1.5753
 5013TIP3    H236455   5.004   4.403  13.420  0.4015 -0.3068 -0.5244
 5014TIP3   OH236456   1.636   5.065  11.882  0.2198 -0.1976 -0.3065
 5014TIP3    H136457   1.598   5.073  11.970  0.3237 -1.0887 -0.1727
 5014TIP3    H236458   1.725   5.099  11.892  0.3182 -0.5425 -0.0058
 5015TIP3   OH236459   6.515   2.787   4.753  0.4444 -0.0677 -0.0487
 5015TIP3    H136460   6.434   2.809   4.707  0.0292  1.0891  1.1594
 5015TIP3    H236461   6.546   2.707   4.711 -1.5076 -0.7337 -0.3304
 5016TIP3   OH236462   6.052   3.265   2.650 -0.2505 -0.0678  0.3747
 5016TIP3    H136463   5.999   3.236   2.576  0.6975  1.0192 -0.7620
 5016TIP3    H236464   6.142   3.264   2.618  0.2085  0.2197  1.5880
 5017TIP3   OH236465   1.413   3.633   3.609  0.2422  0.3936  0.0094
 5017TIP3    H136466   1.425   3.722   3.574 -1.3588 -0.3133 -2.5981
 5017TIP3    H236467   1.318   3.621   3.612  0.3887 -0.6799  1.9809
 5018TIP3   OH236468   0.048   1.640  15.914  0.2495  0.0076  0.2492
 5018TIP3    H136469   0.049   1.706  15.844 -0.7952  1.8480  1.8929
 5018TIP3    H236470   0.132   1.651  15.958 -0.2312  0.8010  0.9919
 5019TIP3   OH236471   1.843   1.232  12.955 -0.5089  0.4957 -0.0485
 5019TIP3    H136472   1.817   1.280  13.034 -0.2939 -0.3053  0.5152
 5019TIP3    H236473   1.879   1.300  12.898 -2.7097  1.4611 -0.4026
 5020TIP3   OH236474   4.184   4.321  12.350  0.0170 -0.1121  0.1738
 5020TIP3    H136475   4.187   4.399  12.405 -0.5236 -0.9947  1.5069
 5020TIP3    H236476   4.136   4.257  12.402  1.3994 -1.7090 -0.4121
 5021TIP3   OH236477   5.894   2.375   2.496  0.4943  0.2405  0.3654
 5021TIP3    H136478   5.909   2.302   2.556 -2.6668 -1.1888 -0.3349
 5021TIP3    H236479   5.842   2.437   2.547  0.1969  0.3309 -0.0420
 5022TIP3   OH236480   2.243   4.146  16.298  0.1604 -0.0313  0.1723
 5022TIP3    H136481   2.316   4.125  16.355 -0.4765 -0.3535  0.8896
 5022TIP3    H236482   2.216   4.061  16.263  0.4618  0.1489 -0.5137
 5023TIP3   OH236483   6.749   1.515   0.154  0.2991 -0.1798 -0.1820
 5023TIP3    H136484   6.707   1.439   0.193  1.5920 -0.3504  0.9507
 5023TIP3    H236485   6.730   1.508   0.060 -2.8518  0.2130  0.3334
 5024TIP3   OH236486   1.526   4.135  14.834 -0.4657  0.0848 -0.0842
 5024TIP3    H136487   1.546   4.125  14.741 -2.0509 -0.2052 -0.4289
 5024TIP3    H236488   1.538   4.229  14.851  0.3521  0.0474 -0.4442
 5025TIP3   OH236489   1.215   4.645  13.088  0.2292 -0.3110 -0.1673
 5025TIP3    H136490   1.138   4.610  13.042  0.4126 -2.6736  1.2023
 5025TIP3    H236491   1.232   4.582  13.158  2.5447  0.9397  0.4825
 5026TIP3   OH236492   5.751   0.476   4.993  0.3706 -0.1393 -0.1909
 5026TIP3    H136493   5.756   0.469   4.897 -0.4927 -0.7973 -0.2013
 5026TIP3    H236494   5.713   0.393   5.021  1.7743 -0.4589  0.8419
 5027TIP3   OH236495   0.859   0.202  13.912  0.5845  0.3162 -0.0473
 5027TIP3    H136496   0.776   0.247  13.895 -0.3762 -0.6053  1.8603
 5027TIP3    H236497   0.916   0.228  13.840 -1.1468  1.5114 -1.0519
 5028TIP3   OH236498   3.968   4.015   5.587 -0.2076 -0.6003 -0.6295
 5028TIP3    H136499   3.977   4.085   5.522 -0.3706 -0.4261 -0.4683
 5028TIP3    H236500   3.920   3.946   5.542  0.1018 -0.6770 -0.8438
 5029TIP3   OH236501   3.557   4.645  13.907  0.1524 -0.3182 -0.2478
 5029TIP3    H136502   3.651   4.650  13.891  0.1393 -0.4367 -0.3568
 5029TIP3    H236503   3.543   4.560  13.947  0.1194 -0.2172 -0.0438
 5030TIP3   OH236504   2.592   3.254   4.269  0.0679  0.1730  0.1559
 5030TIP3    H136505   2.567   3.327   4.213 -2.6734 -0.5668  0.2599
 5030TIP3    H236506   2.645   3.293   4.339  1.7291  1.4302 -1.7025
 5031TIP3   OH236507   1.592   3.137  12.950  0.3354  0.5976  0.0326
 5031TIP3    H136508   1.672   3.141  12.897 -0.7745  1.1016 -1.6726
 5031TIP3    H236509   1.545   3.061  12.918 -0.3405  0.8868  0.3207
 5032TIP3   OH236510   3.452   1.388   4.173 -0.1599  0.7663  0.2540
 5032TIP3    H136511   3.453   1.354   4.262  0.3621  1.8423  0.6672
 5032TIP3    H236512   3.528   1.446   4.168  0.1894  0.2341 -1.0871
 5033TIP3   OH236513   3.366   1.792  11.137 -0.1451  0.0149  0.3045
 5033TIP3    H136514   3.438   1.755  11.086 -1.2921 -1.4216 -0.3594
 5033TIP3    H236515   3.292   1.792  11.076 -1.0647  0.0909  1.3997
 5034TIP3   OH236516   4.874   2.408   1.440  0.7468 -0.2266  0.0743
 5034TIP3    H136517   4.835   2.477   1.494  2.1085 -0.3302  1.2494
 5034TIP3    H236518   4.931   2.361   1.500  1.3140 -1.1700 -1.1783
 5035TIP3   OH236519   4.176   1.168  12.043  0.2159  0.2166  0.9303
 5035TIP3    H136520   4.201   1.077  12.062  0.9220 -0.2223 -1.6733
 5035TIP3    H236521   4.254   1.219  12.066  0.9566 -0.2655 -0.3363
 5036TIP3   OH236522   5.092   5.865   5.608  0.4102  0.4592  0.5185
 5036TIP3    H136523   5.131   5.889   5.692  0.7925  0.1393  0.4312
 5036TIP3    H236524   5.137   5.785   5.582  0.2583  0.5293  0.0310
 5037TIP3   OH236525   3.762   1.191  14.040  0.2390  0.0798  0.3029
 5037TIP3    H136526   3.749   1.198  14.134 -1.4503 -1.9081  0.2953
 5037TIP3    H236527   3.714   1.112  14.015  1.1503  0.2101 -2.1391
 5038TIP3   OH236528   0.249   5.347  13.557 -0.1703  0.0799 -0.1140
 5038TIP3    H136529   0.292   5.278  13.507  2.5675  0.3122  1.7458
 5038TIP3    H236530   0.249   5.316  13.647 -0.1860  1.8816  0.5576
 5039TIP3   OH236531   0.635   0.333   5.050  0.1515 -0.1184  0.2555
 5039TIP3    H136532   0.593   0.263   5.001  0.7539  0.5659 -1.2845
 5039TIP3    H236533   0.564   0.393   5.072 -0.0548 -0.1849 -0.2233
 5040TIP3   OH236534   4.121   2.422   4.492  0.2911 -0.1098  0.1552
 5040TIP3    H136535   4.123   2.509   4.452  0.7089 -0.4766 -0.6337
 5040TIP3    H236536   4.053   2.375   4.444 -0.1545 -0.1230  0.7900
 5041TIP3   OH236537   4.667   2.192  14.821  0.3410  0.2321 -0.0405
 5041TIP3    H136538   4.579   2.200  14.785  1.4180  2.6072 -2.5145
 5041TIP3    H236539   4.719   2.156  14.748  1.9776  1.8156  0.2774
 5042TIP3   OH236540   6.747   5.465  15.887 -0.6446 -0.5053 -0.4809
 5042TIP3    H136541   6.696   5.463  15.806 -0.3075 -2.9625 -0.7092
 5042TIP3    H236542   6.775   5.374  15.900  1.4597  0.2766  1.0389
 5043TIP3   OH236543   6.740   4.681  16.412 -0.5713  0.2046 -0.6709
 5043TIP3    H136544   6.777   4.734  16.342  2.4962  0.0269  0.6369
 5043TIP3    H236545   6.674   4.627  16.369 -2.1229  3.2617 -2.4928
 5044TIP3   OH236546   2.793   0.199   2.786  0.5500 -0.2348  0.6875
 5044TIP3    H136547   2.728   0.267   2.770  0.7174 -0.5255 -1.5046
 5044TIP3    H236548   2.743   0.118   2.793  0.6079 -0.4252 -0.7714
 5045TIP3   OH236549   1.229   2.776  12.223  0.0491  0.0790  0.7798
 5045TIP3    H136550   1.138   2.806  12.231 -0.5328 -1.5710  0.6153
 5045TIP3    H236551   1.223   2.682  12.212  1.7427  0.0760 -0.5055
 5046TIP3   OH236552   2.595   6.504   2.534 -0.4789  0.0025  0.3999
 5046TIP3    H136553   2.506   6.474   2.553 -0.9794  0.5738 -0.8693
 5046TIP3    H236554   2.582   6.576   2.472  0.9150 -0.6875 -0.7405
 5047TIP3   OH236555   2.412   0.135   3.153  0.3296  0.0272 -0.0566
 5047TIP3    H136556   2.435   0.212   3.102  0.0026  0.3450  0.2627
 5047TIP3    H236557   2.478   0.131   3.223  0.1055  0.2614  0.1711
 5048TIP3   OH236558   0.231   5.891   1.750  0.3365 -0.0973 -0.1906
 5048TIP3    H136559   0.318   5.853   1.742 -0.1362 -0.9299 -2.3224
 5048TIP3    H236560   0.208   5.916   1.660 -1.4315  0.5176  0.3835
 5049TIP3   OH236561   4.383   3.194   1.444  0.3641 -0.2048 -0.1287
 5049TIP3    H136562   4.348   3.268   1.393  0.1529 -1.1776 -1.4424
 5049TIP3    H236563   4.474   3.219   1.463  0.1065  0.6703  0.0227
 5050TIP3   OH236564   4.370   4.666  12.440 -0.2897  0.2949  0.2449
 5050TIP3    H136565   4.295   4.625  12.481 -0.7569 -0.8095 -1.5835
 5050TIP3    H236566   4.333   4.721  12.371  0.5120  1.2088  0.5166
 5051TIP3   OH236567   6.547   4.748  11.661  0.5998  0.0307 -0.1040
 5051TIP3    H136568   6.599   4.695  11.600 -0.2757 -0.7161 -0.2240
 5051TIP3    H236569   6.464   4.763  11.615  0.1728 -0.0001  0.6462
 5052TIP3   OH236570   5.079   5.725   1.066 -1.1009  0.6609  0.0312
 5052TIP3    H136571   5.053   5.736   0.975 -1.4482 -3.7784 -0.6544
 5052TIP3    H236572   5.175   5.717   1.062 -1.1717 -0.2188 -0.0905
 5053TIP3   OH236573   3.910   5.743  16.559 -0.6103 -0.3362 -0.8639
 5053TIP3    H136574   3.966   5.792  16.499  0.4463 -1.8433 -1.1458
 5053TIP3    H236575   3.970   5.692  16.612 -1.5447  0.6610  1.2779
 5054TIP3   OH236576   1.199   2.426  16.987  0.2870  0.1465 -0.4989
 5054TIP3    H136577   1.221   2.507  17.032  2.2224  0.2674 -1.5336
 5054TIP3    H236578   1.111   2.441  16.951  0.1595  1.3314  0.2644
 5055TIP3   OH236579   6.611   1.702  13.535 -0.1682 -0.0664  0.3030
 5055TIP3    H136580   6.584   1.725  13.624 -0.4215  0.1168  0.1810
 5055TIP3    H236581   6.609   1.786  13.488  2.7847  0.4228  0.8200
 5056TIP3   OH236582   1.023   1.596  13.702  0.2006 -0.2793  0.8211
 5056TIP3    H136583   1.114   1.616  13.678 -0.2143 -1.5774 -2.2757
 5056TIP3    H236584   0.970   1.652  13.645 -0.9234 -1.5086  0.6078
 5057TIP3   OH236585   3.909   6.117  14.929  0.7944  0.4091 -0.3412
 5057TIP3    H136586   3.826   6.138  14.887 -0.8332 -1.4633  1.6540
 5057TIP3    H236587   3.905   6.161  15.014  1.7725  0.1247 -0.1279
 5058TIP3   OH236588   2.062   1.069  11.850  0.3974  0.3647 -0.3136
 5058TIP3    H136589   1.973   1.036  11.837  0.9603 -1.6235  0.4318
 5058TIP3    H236590   2.051   1.160  11.877 -1.2318  1.1005 -3.1659
 5059TIP3   OH236591   5.078   1.935  11.700  0.2538  0.0196 -0.0444
 5059TIP3    H136592   5.145   1.899  11.758 -0.4024  0.8659  1.3033
 5059TIP3    H236593   5.113   1.922  11.612  2.5410  1.0552  0.6163
 5060TIP3   OH236594   3.185   5.485  12.824  0.1048 -0.9137  0.2857
 5060TIP3    H136595   3.122   5.417  12.800 -0.3697  0.4055 -2.5416
 5060TIP3    H236596   3.258   5.473  12.763  2.3305 -1.8659  2.9373
 5061TIP3   OH236597   3.771   3.957   4.703  0.2928 -0.0763  0.0493
 5061TIP3    H136598   3.692   3.956   4.758  1.5703 -0.1504  1.9620
 5061TIP3    H236599   3.839   3.919   4.758  1.3920 -1.3303 -2.0502
 5062TIP3   OH236600   2.075   0.875  16.184 -0.1330  0.3762  0.2319
 5062TIP3    H136601   2.057   0.849  16.275 -1.5190  2.8740  0.7900
 5062TIP3    H236602   2.117   0.961  16.193 -0.1659  0.5925 -1.4879
 5063TIP3   OH236603   6.447   6.475  12.822 -1.2621 -0.0383  0.2626
 5063TIP3    H136604   6.436   6.435  12.908 -0.7854 -1.8451 -0.4695
 5063TIP3    H236605   6.358   6.481  12.787 -1.3801 -0.0659  0.5559
 5064TIP3   OH236606   1.067   3.616   4.714 -0.0663  0.1383  0.4385
 5064TIP3    H136607   1.079   3.582   4.803  0.2080  0.5476  0.5602
 5064TIP3    H236608   1.081   3.710   4.722  2.1227 -0.0631 -0.4009
 5065TIP3   OH236609   3.365   0.816  12.778  0.0274  0.4010  0.0375
 5065TIP3    H136610   3.355   0.853  12.691  3.6566  1.3613 -0.1070
 5065TIP3    H236611   3.357   0.891  12.837  1.0650  0.3585  0.2411
 5066TIP3   OH236612   5.406   1.975   5.928 -0.0642 -0.5703 -0.3332
 5066TIP3    H136613   5.435   1.885   5.937 -0.7556 -0.5982  2.6777
 5066TIP3    H236614   5.484   2.028   5.943 -0.0517 -0.6675 -0.0532
 5067TIP3   OH236615   3.683   3.685   4.899 -0.6583  0.2782  0.3189
 5067TIP3    H136616   3.615   3.667   4.964 -0.3445 -0.7455  0.3677
 5067TIP3    H236617   3.717   3.599   4.874 -0.6555  0.6514 -1.0840
 5068TIP3   OH236618   0.200   3.019  11.318 -0.0957 -0.4216  0.5348
 5068TIP3    H136619   0.142   2.963  11.268 -1.0576 -0.4143  1.6021
 5068TIP3    H236620   0.275   2.964  11.339 -1.0144 -1.3279  1.5414
 5069TIP3   OH236621   4.328   0.200  12.010  0.1478 -0.2451 -0.0228
 5069TIP3    H136622   4.289   0.168  12.091 -0.7365 -0.5066 -0.5337
 5069TIP3    H236623   4.418   0.167  12.011  0.0936 -0.3758  0.7726
 5070TIP3   OH236624   6.037   0.388   0.906  0.2752  0.1060 -0.3914
 5070TIP3    H136625   5.991   0.469   0.887 -3.1386 -1.6441 -0.4298
 5070TIP3    H236626   6.054   0.349   0.820 -1.9078 -1.0308 -0.3939
 5071TIP3   OH236627   6.089   1.773   1.067  0.1151  0.3823  0.5604
 5071TIP3    H136628   6.176   1.782   1.105 -0.1845 -0.3708  1.4690
 5071TIP3    H236629   6.055   1.863   1.063  1.1689  0.7623 -0.4486
 5072TIP3   OH236630   3.180   3.195  10.796  0.2555 -0.6511  0.6737
 5072TIP3    H136631   3.266   3.199  10.837  1.1547  0.4283 -1.1935
 5072TIP3    H236632   3.147   3.285  10.800 -0.5684 -0.9464  0.8666
 5073TIP3   OH236633   0.139   3.116   2.982  0.5864 -0.2499 -0.2727
 5073TIP3    H136634   0.156   3.184   3.047 -1.8802 -0.0904  0.3356
 5073TIP3    H236635   0.087   3.050   3.029 -1.1915 -0.1808 -1.9960
 5074TIP3   OH236636   6.217   3.571   2.963 -0.0290  0.2594 -0.1138
 5074TIP3    H136637   6.293   3.607   3.009  0.7413  0.7597 -1.7357
 5074TIP3    H236638   6.155   3.644   2.961  0.5872  0.7636 -1.2929
 5075TIP3   OH236639   5.743   1.311   5.392 -0.3365  0.1328  0.5104
 5075TIP3    H136640   5.726   1.255   5.468 -1.2350  0.9872  0.9581
 5075TIP3    H236641   5.763   1.397   5.429  2.0572 -0.0805 -0.1336
 5076TIP3   OH236642   5.635   6.064   3.584  0.2383 -0.2290 -0.0745
 5076TIP3    H136643   5.699   6.011   3.633  0.2659 -0.0617  0.0695
 5076TIP3    H236644   5.550   6.032   3.613  0.2559 -0.2596 -0.0565
 5077TIP3   OH236645   5.817   0.012  12.275  0.2768 -0.4614  0.0348
 5077TIP3    H136646   5.901   0.032  12.235  0.1245 -0.2685 -0.1917
 5077TIP3    H236647   5.792  -0.072  12.238 -0.5505  0.3928 -1.4037
 5078TIP3   OH236648   5.754   5.204   5.259 -0.6913 -0.2802 -0.0784
 5078TIP3    H136649   5.751   5.242   5.171  0.1604 -0.8349 -0.3585
 5078TIP3    H236650   5.667   5.220   5.295  0.0072  3.3490  0.4249
 5079TIP3   OH236651   0.979   0.615   4.102  0.0606  0.5604  0.0039
 5079TIP3    H136652   1.034   0.629   4.025 -0.4863  0.2997 -0.4385
 5079TIP3    H236653   1.008   0.682   4.164  0.9537  0.3568 -0.1697
 5080TIP3   OH236654   3.691   0.745   4.926 -0.0599  0.7525 -0.0051
 5080TIP3    H136655   3.659   0.831   4.954 -0.5092  0.3073  0.8754
 5080TIP3    H236656   3.750   0.764   4.853  1.4481  1.9785  1.4792
 5081TIP3   OH236657   4.328   5.983   0.609  0.2992 -0.1523  0.2912
 5081TIP3    H136658   4.240   6.020   0.603  0.2296  0.0187  1.8591
 5081TIP3    H236659   4.387   6.057   0.593  0.1491  0.1019  0.8794
 5082TIP3   OH236660   0.440   1.237   5.315 -0.0380  0.2223 -0.0113
 5082TIP3    H136661   0.372   1.189   5.267  0.4073  1.4681 -2.0344
 5082TIP3    H236662   0.521   1.189   5.295 -0.0931 -0.3598  1.1118
 5083TIP3   OH236663   4.045   1.287   4.881  0.0521  0.0559  0.0639
 5083TIP3    H136664   4.082   1.270   4.795 -0.2791  0.5191 -0.1727
 5083TIP3    H236665   4.029   1.200   4.918  2.6543 -0.2245  0.7512
 5084TIP3   OH236666   0.610   6.332  14.232 -0.2177 -0.3363 -0.0002
 5084TIP3    H136667   0.703   6.324  14.254  0.1172  0.6058 -0.9739
 5084TIP3    H236668   0.595   6.265  14.166  0.3438  0.8716 -1.4385
 5085TIP3   OH236669   0.495   5.007   5.085 -0.2795 -0.1350 -0.0492
 5085TIP3    H136670   0.568   4.998   5.023 -0.5383 -0.5802 -0.3029
 5085TIP3    H236671   0.532   5.053   5.160 -0.3020  1.7458 -1.1218
 5086TIP3   OH236672   6.406   2.164   0.879 -0.3524 -0.4727 -0.2480
 5086TIP3    H136673   6.414   2.222   0.955 -0.4034 -1.6375  0.6761
 5086TIP3    H236674   6.490   2.173   0.834  0.6406 -1.5749  1.3034
 5087TIP3   OH236675   5.555   3.009   1.798 -1.1151  0.7309 -0.2135
 5087TIP3    H136676   5.563   2.981   1.707 -0.6218  1.4054 -0.3832
 5087TIP3    H236677   5.615   3.083   1.806 -0.6670  0.2777  0.8231
 5088TIP3   OH236678   6.167   0.510   0.523 -0.1036  0.0741 -0.4712
 5088TIP3    H136679   6.154   0.558   0.604 -1.6645 -0.2020 -0.5270
 5088TIP3    H236680   6.240   0.554   0.479 -0.9225  1.8342 -0.1216
 5089TIP3   OH236681   4.017   4.135   0.199  0.0348  0.3709  0.2443
 5089TIP3    H136682   4.078   4.190   0.149  0.3167 -0.7142 -0.6727
 5089TIP3    H236683   3.938   4.188   0.207 -0.9722 -0.1964 -3.5882
 5090TIP3   OH236684   4.434   2.592  16.564  0.1920 -0.2765 -0.1199
 5090TIP3    H136685   4.409   2.684  16.559  0.4301 -0.1718  0.4976
 5090TIP3    H236686   4.412   2.556  16.478  2.2175  0.8854 -1.2195
 5091TIP3   OH236687   4.290   1.143   1.038 -0.3991  0.3653  0.0561
 5091TIP3    H136688   4.379   1.152   1.073 -0.2534 -0.1620 -0.1749
 5091TIP3    H236689   4.302   1.129   0.944 -0.7488  0.7756 -0.0545
 5092TIP3   OH236690   3.739   2.325  15.967  0.3749  0.2829  0.4460
 5092TIP3    H136691   3.828   2.353  15.987  0.2994  1.0289 -0.1838
 5092TIP3    H236692   3.736   2.322  15.872 -0.7398  1.9453  0.3928
 5093TIP3   OH236693   1.624   0.072   5.604 -0.4920 -0.3655 -0.4100
 5093TIP3    H136694   1.607   0.157   5.646 -0.0393 -0.1132 -0.7366
 5093TIP3    H236695   1.550   0.060   5.544  0.2582  0.5650 -1.5619
 5094TIP3   OH236696   3.934   6.546  12.255 -0.3523 -0.1212  0.1904
 5094TIP3    H136697   3.847   6.506  12.244 -1.0224  1.4341 -0.4784
 5094TIP3    H236698   3.939   6.568  12.347 -0.6506 -0.2488  0.2398
 5095TIP3   OH236699   0.281   1.059   4.633 -0.5254  0.4993  0.0900
 5095TIP3    H136700   0.297   1.099   4.719 -1.3009  0.0390  0.4555
 5095TIP3    H236701   0.186   1.055   4.626 -0.4860  1.2243 -1.1224
 5096TIP3   OH236702   4.789   6.340   6.215 -0.5257 -0.2427 -0.0507
 5096TIP3    H136703   4.776   6.434   6.231 -2.3655 -0.4110 -0.3389
 5096TIP3    H236704   4.701   6.303   6.217  0.0664 -1.8030 -1.0281
 5097TIP3   OH236705   2.336   0.147  16.634  0.2200  0.3659 -0.3390
 5097TIP3    H136706   2.349   0.116  16.724  2.2943  0.2642 -0.6152
 5097TIP3    H236707   2.379   0.233  16.632 -2.5743  1.8871 -0.4540
 5098TIP3   OH236708   4.957   6.058  11.321 -0.0611 -0.2525 -0.1850
 5098TIP3    H136709   4.929   6.145  11.347 -1.3203 -0.8133  0.4289
 5098TIP3    H236710   4.937   6.053  11.227  0.9390  0.4468 -0.4457
 5099TIP3   OH236711   1.825   3.199  12.809  0.2538 -0.4238 -0.6468
 5099TIP3    H136712   1.797   3.288  12.829  0.6688 -0.6563  1.2470
 5099TIP3    H236713   1.860   3.203  12.721  1.6116  1.6216 -0.0721
 5100TIP3   OH236714   1.595   0.540   0.780  0.2093  0.5855  0.5692
 5100TIP3    H136715   1.670   0.597   0.796 -0.2348  1.6195 -0.8361
 5100TIP3    H236716   1.602   0.471   0.847  2.3293  0.7168  0.5343
 5101TIP3   OH236717   2.950   1.638  13.224 -0.8340 -1.0823 -0.1738
 5101TIP3    H136718   3.005   1.699  13.175 -0.6594 -1.7333 -0.8191
 5101TIP3    H236719   2.952   1.557  13.172 -1.0807 -1.6280  0.6416
 5102TIP3   OH236720   0.973   3.182  10.773 -0.0071  0.8403  0.1601
 5102TIP3    H136721   0.889   3.171  10.727 -0.2085  0.7345  0.5538
 5102TIP3    H236722   0.981   3.276  10.786  2.0104  1.4509 -3.7742
 5103TIP3   OH236723   4.644   2.810   0.249 -0.3527 -0.3550  0.6151
 5103TIP3    H136724   4.715   2.757   0.287  0.2771  0.8299  1.1278
 5103TIP3    H236725   4.688   2.886   0.212 -1.2580 -0.1529 -0.0724
 5104TIP3   OH236726   3.120   4.788  12.046 -0.1491 -0.3567 -0.6166
 5104TIP3    H136727   3.137   4.813  11.955 -1.4718 -0.2823 -0.8668
 5104TIP3    H236728   3.150   4.863  12.097 -2.3983  1.0870 -1.2392
 5105TIP3   OH236729   6.484   4.247   1.777 -0.3266 -0.1151 -0.9573
 5105TIP3    H136730   6.542   4.184   1.733 -1.3350 -1.7830  0.0197
 5105TIP3    H236731   6.401   4.241   1.729 -0.8544 -0.5736 -0.0114
 5106TIP3   OH236732   1.073   6.765   2.428 -0.3828 -0.2402 -0.1112
 5106TIP3    H136733   1.132   6.700   2.466  1.2123 -0.2001 -2.3635
 5106TIP3    H236734   1.102   6.849   2.465 -1.3213 -0.5706  1.4504
 5107TIP3   OH236735   1.331   2.619   1.756 -0.0923 -0.1792  0.0475
 5107TIP3    H136736   1.349   2.656   1.842 -0.9012 -0.0443  0.1703
 5107TIP3    H236737   1.252   2.664   1.727 -0.7599 -1.3598 -0.0603
 5108TIP3   OH236738   4.456   1.723  16.806  0.0263  0.0323 -0.6052
 5108TIP3    H136739   4.410   1.647  16.842  0.6423  0.6132  1.5843
 5108TIP3    H236740   4.540   1.725  16.853  0.9256  0.8746 -2.1448
 5109TIP3   OH236741   4.309   3.392   3.764 -0.0553  0.5704  0.2973
 5109TIP3    H136742   4.295   3.421   3.674 -1.0951  0.3748  0.3898
 5109TIP3    H236743   4.357   3.310   3.755  0.8704  1.1304 -0.0337
 5110TIP3   OH236744   4.025   2.352   3.730 -0.6007  0.3935 -0.1930
 5110TIP3    H136745   4.085   2.285   3.763  0.0294 -0.1819 -2.3251
 5110TIP3    H236746   4.017   2.415   3.801  1.1895 -0.4007  0.7628
 5111TIP3   OH236747   4.675   0.737  14.970 -0.3005 -0.1240  0.1155
 5111TIP3    H136748   4.650   0.646  14.951  0.0881 -0.5155  1.3602
 5111TIP3    H236749   4.766   0.743  14.940 -0.6340  0.1552 -0.8667
 5112TIP3   OH236750   4.783   6.203  13.670  0.3025  0.5053 -0.4441
 5112TIP3    H136751   4.794   6.273  13.735  2.0838 -0.9177  0.8799
 5112TIP3    H236752   4.735   6.135  13.717  1.7116 -0.5837 -0.5276
 5113TIP3   OH236753   3.185   0.043  11.798  0.5329 -0.0651 -0.2096
 5113TIP3    H136754   3.110   0.102  11.814  2.2908  2.1836  0.2659
 5113TIP3    H236755   3.177   0.019  11.706 -0.3380  0.8125 -0.3871
 5114TIP3   OH236756   3.428   5.486   3.881 -0.2619  0.0410 -0.1278
 5114TIP3    H136757   3.364   5.436   3.931 -1.6813  0.5061 -1.4092
 5114TIP3    H236758   3.511   5.441   3.896 -1.6900 -4.0044 -2.7197
 5115TIP3   OH236759   1.259   2.221  14.553 -0.2733  0.0762  0.0009
 5115TIP3    H136760   1.242   2.131  14.580 -1.8672 -0.0033 -1.0622
 5115TIP3    H236761   1.333   2.250  14.606 -0.7734 -1.3143  1.5289
 5116TIP3   OH236762   5.024   1.131  16.333 -0.2610  0.7342 -0.0879
 5116TIP3    H136763   5.097   1.191  16.318 -0.5041  0.6729 -1.6327
 5116TIP3    H236764   4.997   1.103  16.246 -2.1479  0.7587  0.4437
 5117TIP3   OH236765   3.615   0.754  15.734  0.0573 -0.0450 -0.1346
 5117TIP3    H136766   3.557   0.799  15.795 -0.6740  0.3996 -1.1299
 5117TIP3    H236767   3.679   0.820  15.709 -0.4950  0.2016 -0.9261
 5118TIP3   OH236768   6.596   5.818   5.086 -0.5662 -0.4826  0.0098
 5118TIP3    H136769   6.639   5.896   5.052  2.3344 -2.1773 -0.5409
 5118TIP3    H236770   6.615   5.819   5.179 -0.8452 -0.3838  0.0684
 5119TIP3   OH236771   4.628   4.155  14.976 -0.0249  0.1954  0.5184
 5119TIP3    H136772   4.551   4.211  14.965  0.2367  0.3159 -0.9294
 5119TIP3    H236773   4.653   4.132  14.887  0.5919 -1.2587  1.0450
 5120TIP3   OH236774   1.341   1.751  16.290 -0.5036 -0.3341 -0.3657
 5120TIP3    H136775   1.258   1.781  16.326 -0.4615  0.3670 -0.8176
 5120TIP3    H236776   1.324   1.662  16.262 -0.5341 -0.9088  1.3625
 5121TIP3   OH236777   0.021   5.336   2.226 -0.0331  0.0123 -0.0576
 5121TIP3    H136778   0.030   5.297   2.313 -1.3751 -0.0502  0.0734
 5121TIP3    H236779  -0.041   5.408   2.238 -0.5506 -0.2490 -1.0220
 5122TIP3   OH236780   4.008   4.767  17.037 -0.6687  0.1924  0.4441
 5122TIP3    H136781   3.960   4.850  17.033  1.5096  1.5239  0.4401
 5122TIP3    H236782   4.094   4.791  17.071  1.7658 -1.1469 -4.0224
 5123TIP3   OH236783   2.376   5.145  13.516  0.2799 -0.6968  0.3353
 5123TIP3    H136784   2.335   5.230  13.502 -0.1140 -1.1929 -1.8715
 5123TIP3    H236785   2.430   5.157  13.594 -0.6007  1.2462  0.7026
 5124TIP3   OH236786   2.001   6.015   2.506  0.1027 -0.0461 -0.6053
 5124TIP3    H136787   1.984   5.946   2.442  1.2965  0.3008 -1.3387
 5124TIP3    H236788   1.920   6.065   2.511 -0.0963 -0.2435 -1.6650
 5125TIP3   OH236789   2.179   4.245   2.557  0.1110 -0.4270 -0.6181
 5125TIP3    H136790   2.216   4.158   2.542  0.6244 -0.1947 -0.7242
 5125TIP3    H236791   2.143   4.241   2.646  1.3392 -0.3502 -0.0887
 5126TIP3   OH236792   2.631   2.228   4.264  0.0399  0.2308 -0.2826
 5126TIP3    H136793   2.597   2.143   4.290  1.3737 -0.3168 -0.2570
 5126TIP3    H236794   2.659   2.269   4.346  2.1031 -0.5423 -0.5465
 5127TIP3   OH236795   3.708   0.563   1.305  0.3337  0.2441 -0.5782
 5127TIP3    H136796   3.785   0.520   1.266  0.5377  1.8214 -2.0355
 5127TIP3    H236797   3.676   0.621   1.236 -2.0596 -0.2042  0.0755
 5128TIP3   OH236798   5.245   6.031   3.277  0.3796 -0.0371  0.3863
 5128TIP3    H136799   5.332   6.070   3.289  0.1457  0.4971  0.3936
 5128TIP3    H236800   5.254   5.976   3.200  1.1186 -1.1723  1.2463
 5129TIP3   OH236801   0.970   6.013  11.874  0.0141  0.3247  0.3855
 5129TIP3    H136802   0.972   5.964  11.957 -0.5113  1.0254  0.8215
 5129TIP3    H236803   1.059   6.005  11.840  0.4692  0.7178  1.4311
 5130TIP3   OH236804   0.539   3.372  16.748 -0.2566 -0.1659 -0.4846
 5130TIP3    H136805   0.631   3.382  16.774  0.3288 -2.1120 -1.6279
 5130TIP3    H236806   0.489   3.393  16.827  1.2743 -1.2985  0.8306
 5131TIP3   OH236807   3.567   3.628   4.631 -0.0714  0.1725 -0.2844
 5131TIP3    H136808   3.650   3.613   4.585  0.6569 -0.5476  1.1779
 5131TIP3    H236809   3.594   3.659   4.718 -1.3851  1.3082 -0.2560
 5132TIP3   OH236810   4.004   4.097  10.587  0.1698 -0.8087 -0.4669
 5132TIP3    H136811   4.005   4.007  10.620 -3.1697 -1.8357 -2.7254
 5132TIP3    H236812   3.919   4.131  10.614  0.2441  0.6889 -1.9843
 5133TIP3   OH236813   1.564   3.297   1.607 -0.6026 -0.3366  0.1939
 5133TIP3    H136814   1.627   3.231   1.635  0.1996  0.6856  0.8957
 5133TIP3    H236815   1.535   3.338   1.689  1.3446  2.3237 -0.2881
 5134TIP3   OH236816   3.918   4.350  17.073 -0.0075  0.1971  0.5678
 5134TIP3    H136817   3.905   4.402  17.152  1.2708  1.3586  0.0527
 5134TIP3    H236818   3.984   4.284  17.098  1.7480  1.6754  0.0529
 5135TIP3   OH236819   2.861   4.774   3.746  0.0282 -0.0741 -0.7414
 5135TIP3    H136820   2.862   4.687   3.706  0.9307 -0.6814  0.5657
 5135TIP3    H236821   2.811   4.764   3.826  1.6549  0.1442  0.3579
 5136TIP3   OH236822   3.051   4.692   3.050 -0.0906  0.4279  0.6032
 5136TIP3    H136823   3.076   4.624   2.988 -1.5384  0.2847  0.1306
 5136TIP3    H236824   3.122   4.755   3.046  0.5525 -0.3119 -0.0886
 5137TIP3   OH236825   5.614   4.475   5.272  0.6519  0.7348 -0.7726
 5137TIP3    H136826   5.653   4.499   5.188 -0.3849  1.1895 -1.1446
 5137TIP3    H236827   5.683   4.491   5.336  0.6359  2.9952 -1.2343
 5138TIP3   OH236828   3.935   4.353   5.663  0.0581 -0.1689  0.8027
 5138TIP3    H136829   3.861   4.362   5.724 -1.2338  1.6365 -0.8926
 5138TIP3    H236830   3.893   4.342   5.577  1.7790 -0.1835 -0.0661
 5139TIP3   OH236831   0.731   3.307   3.557  0.2222  0.1585 -0.0578
 5139TIP3    H136832   0.665   3.238   3.548 -0.5880  0.9402 -0.3012
 5139TIP3    H236833   0.694   3.366   3.622  1.2917 -0.0503  0.7717
 5140TIP3   OH236834   4.074   6.505  11.589  0.7849 -0.2497 -0.4482
 5140TIP3    H136835   4.107   6.416  11.578  3.4261  0.4948  0.5249
 5140TIP3    H236836   4.127   6.558  11.529  0.1559  0.8282 -0.0824
 5141TIP3   OH236837   5.148   2.113  16.957 -0.2823  0.0509 -0.3966
 5141TIP3    H136838   5.079   2.178  16.941  0.5498  2.7409  4.7063
 5141TIP3    H236839   5.221   2.165  16.992  1.9489 -3.3509  0.4285
 5142TIP3   OH236840   0.878   1.837   0.981 -0.2831 -0.3604 -0.3947
 5142TIP3    H136841   0.938   1.807   0.912  0.3008 -1.1522  0.4244
 5142TIP3    H236842   0.798   1.862   0.935 -0.3310 -1.9942 -1.2769
 5143TIP3   OH236843   5.455   6.120  16.559 -0.2718  0.0411  0.4033
 5143TIP3    H136844   5.509   6.085  16.629  0.8597  0.0543 -0.4352
 5143TIP3    H236845   5.384   6.167  16.604 -0.5909 -1.4536  1.5299
 5144TIP3   OH236846   0.718   5.090  12.897 -0.3950  0.0107 -0.5929
 5144TIP3    H136847   0.687   5.146  12.967  0.3919 -0.2124 -0.0502
 5144TIP3    H236848   0.791   5.138  12.858  1.4287 -1.3033  0.9855
 5145TIP3   OH236849   4.714   3.739  16.154  0.1655  0.4902  0.3963
 5145TIP3    H136850   4.686   3.785  16.233 -1.9253  0.0306 -0.0385
 5145TIP3    H236851   4.724   3.807  16.088  0.6504  0.7141  0.6902
 5146TIP3   OH236852   5.244   2.130  13.946 -0.4554  0.0125 -0.4078
 5146TIP3    H136853   5.308   2.102  14.012  1.3418 -0.6148 -2.2976
 5146TIP3    H236854   5.297   2.150  13.868 -2.4672  0.8108 -1.6449
 5147TIP3   OH236855   6.502   0.173  15.931 -0.6177  0.2587  0.5221
 5147TIP3    H136856   6.577   0.231  15.919 -1.6187  1.9811  1.9799
 5147TIP3    H236857   6.464   0.164  15.844  2.5212 -2.6297 -0.7502
 5148TIP3   OH236858   3.947   1.793   1.699 -0.0506  0.2439 -0.3042
 5148TIP3    H136859   3.966   1.700   1.711  1.2895  0.6194  0.7370
 5148TIP3    H236860   3.864   1.795   1.652  0.0145 -1.4782 -0.5432
 5149TIP3   OH236861   0.721   4.986   5.972 -0.1995 -0.4380 -0.4223
 5149TIP3    H136862   0.762   5.008   6.056 -0.2168  1.0182 -0.7777
 5149TIP3    H236863   0.794   4.955   5.918  0.0482 -0.0668 -0.3094
 5150TIP3   OH236864   2.072   5.422  14.613  0.0395 -0.1024 -0.3380
 5150TIP3    H136865   2.076   5.354  14.546 -0.5720 -0.9839  0.4887
 5150TIP3    H236866   2.043   5.501  14.566 -1.3038 -0.9342 -0.9548
 5151TIP3   OH236867   6.391   6.446   5.827  0.3761  0.0841  0.3634
 5151TIP3    H136868   6.470   6.497   5.806  0.4675 -0.5726 -0.9965
 5151TIP3    H236869   6.390   6.376   5.762 -1.9468  0.7460 -0.4015
 5152TIP3   OH236870   6.478   0.661   5.714 -0.2935  0.4084 -0.6392
 5152TIP3    H136871   6.569   0.630   5.720 -0.7610 -1.1835 -1.2858
 5152TIP3    H236872   6.442   0.645   5.801 -0.4256 -0.5919 -0.8654
 5153TIP3   OH236873   2.955   6.334  10.805  0.0857 -0.2995  0.1905
 5153TIP3    H136874   3.010   6.256  10.794  0.4967  0.0183 -0.0185
 5153TIP3    H236875   2.871   6.310  10.767 -0.0021 -0.8727  0.7232
 5154TIP3   OH236876   1.983   0.817   3.777 -0.3880 -0.0034  0.1690
 5154TIP3    H136877   1.987   0.913   3.780  1.6187  0.0000 -0.5923
 5154TIP3    H236878   2.009   0.789   3.865  1.9024  0.2043 -0.3667
 5155TIP3   OH236879   5.023   0.284  12.715  0.6303 -0.5882 -0.1918
 5155TIP3    H136880   4.943   0.304  12.763  0.8539 -0.9011  0.3140
 5155TIP3    H236881   5.025   0.188  12.710 -0.0556 -0.5447 -1.9599
 5156TIP3   OH236882   4.148   5.869  16.411  0.0918 -0.0005  0.6289
 5156TIP3    H136883   4.155   5.931  16.339 -3.1442  0.0694  0.2147
 5156TIP3    H236884   4.218   5.806  16.396  1.8956  2.1272 -0.3432
 5157TIP3   OH236885   0.509   4.460   0.695 -0.0282  0.3635  0.0461
 5157TIP3    H136886   0.574   4.455   0.625 -0.6713  0.0678 -0.5311
 5157TIP3    H236887   0.510   4.373   0.735  1.2548  0.8983  1.2516
 5158TIP3   OH236888   4.006   5.116  16.796  0.1819 -0.0208  0.5534
 5158TIP3    H136889   3.946   5.079  16.861  0.3353  2.1611  2.0172
 5158TIP3    H236890   3.955   5.118  16.715 -1.1879  0.2963  1.3892
 5159TIP3   OH236891   1.624   5.465  12.221  0.0834  0.3044  0.1091
 5159TIP3    H136892   1.713   5.468  12.185  0.3213  0.2598  0.6948
 5159TIP3    H236893   1.593   5.555  12.215  0.0477  0.2622 -0.3926
 5160TIP3   OH236894   4.401   6.159   3.003  0.2131 -0.3016  0.4591
 5160TIP3    H136895   4.483   6.144   3.049  0.8035 -0.7159 -0.7012
 5160TIP3    H236896   4.343   6.089   3.034  0.4836 -0.3640  0.8303
 5161TIP3   OH236897   6.695   5.881  11.868 -0.1241 -0.0740  0.3743
 5161TIP3    H136898   6.760   5.914  11.806 -2.6568  0.7258 -2.0678
 5161TIP3    H236899   6.667   5.797  11.833 -1.6070  0.3835  0.3550
 5162TIP3   OH236900   2.165   3.171  14.840 -0.3511  0.2407  0.0867
 5162TIP3    H136901   2.085   3.219  14.819 -0.5125 -0.7088 -1.6485
 5162TIP3    H236902   2.236   3.223  14.801 -0.1711  0.6618  0.9335
 5163TIP3   OH236903   0.185   6.168  15.162 -0.1331  0.1148  0.7148
 5163TIP3    H136904   0.279   6.168  15.144 -0.0147  1.2569  1.2561
 5163TIP3    H236905   0.153   6.086  15.122  0.9278  0.1524 -0.2747
 5164TIP3   OH236906   5.693   5.896   2.519  0.4761 -0.0857  0.7069
 5164TIP3    H136907   5.759   5.829   2.537 -1.3642 -1.8656  1.1604
 5164TIP3    H236908   5.633   5.892   2.593  0.1855  1.9757  0.6493
 5165TIP3   OH236909   0.190   4.654  17.024 -0.6909 -0.0887  0.2669
 5165TIP3    H136910   0.209   4.739  16.983 -1.9640 -0.2083 -0.6403
 5165TIP3    H236911   0.205   4.669  17.117 -0.5439  1.0360  0.0794
 5166TIP3   OH236912   1.544   4.079  14.577  0.7799 -0.2815 -0.4583
 5166TIP3    H136913   1.579   4.090  14.489  0.9435 -1.8320 -0.6189
 5166TIP3    H236914   1.451   4.101  14.569  1.0660  0.8868 -0.7035
 5167TIP3   OH236915   1.206   1.174  15.455 -0.6962 -0.0796 -0.1781
 5167TIP3    H136916   1.250   1.259  15.451 -0.4050 -0.1606  1.0604
 5167TIP3    H236917   1.206   1.143  15.365  2.1407 -0.2539 -0.2016
 5168TIP3   OH236918   4.424   3.874   4.751  0.0106 -0.5246  0.3313
 5168TIP3    H136919   4.428   3.819   4.829 -3.1799  0.5375  1.4400
 5168TIP3    H236920   4.461   3.958   4.779 -2.6382  0.4094  1.4350
 5169TIP3   OH236921   3.888   5.014  17.039 -0.1155 -0.0115  0.0235
 5169TIP3    H136922   3.897   5.098  17.084 -0.8655  0.3934 -0.5579
 5169TIP3    H236923   3.795   4.993  17.047  0.3200 -1.5941  1.5562
 5170TIP3   OH236924   0.019   1.679  14.837  0.1420  0.7458 -0.1351
 5170TIP3    H136925  -0.051   1.708  14.896 -0.1193  0.5664 -0.3525
 5170TIP3    H236926  -0.011   1.706  14.750 -1.0278 -1.7435 -0.6156
 5171TIP3   OH236927   4.632   2.267  12.927 -0.8522  0.1275 -0.3236
 5171TIP3    H136928   4.613   2.193  12.985 -0.3030 -1.6295 -2.2436
 5171TIP3    H236929   4.700   2.316  12.973 -1.3999 -0.3940  1.1124
 5172TIP3   OH236930   1.802   4.543  16.421 -0.0306  0.2129  0.3802
 5172TIP3    H136931   1.769   4.608  16.358 -0.5825  0.1609  0.6162
 5172TIP3    H236932   1.725   4.514  16.469  0.4547  0.6528  1.4654
 5173TIP3   OH236933   3.756   1.736  12.525  0.1620  0.0552  0.3866
 5173TIP3    H136934   3.743   1.743  12.619  0.1063 -0.5253  0.4241
 5173TIP3    H236935   3.683   1.682  12.494 -0.1516  0.7257 -0.0755
 5174TIP3   OH236936   0.898   3.423   1.137 -0.1890  0.0076  0.4608
 5174TIP3    H136937   0.924   3.357   1.073 -1.6061  0.5535 -0.7289
 5174TIP3    H236938   0.944   3.502   1.110 -0.3593  0.1017  0.4460
 5175TIP3   OH236939   0.657   2.939   3.010  0.4218  0.0479 -0.3339
 5175TIP3    H136940   0.594   2.875   2.976  1.9809 -1.6770 -0.1477
 5175TIP3    H236941   0.603   3.009   3.047 -1.5290 -2.5925  2.2908
 5176TIP3   OH236942   4.681   5.805   5.593  0.3733  0.3752  0.0810
 5176TIP3    H136943   4.753   5.858   5.627  0.5042 -1.0881  2.2895
 5176TIP3    H236944   4.606   5.865   5.592  1.3255  1.6350 -1.2895
 5177TIP3   OH236945   1.484   0.012   0.238 -0.4174  0.3925 -0.2801
 5177TIP3    H136946   1.511   0.033   0.327  1.2326  2.0488 -1.0852
 5177TIP3    H236947   1.399  -0.031   0.248 -0.0473  0.0604  2.0936
 5178TIP3   OH236948   4.750   5.018   1.157 -0.3135 -0.3373 -0.0194
 5178TIP3    H136949   4.828   5.073   1.170  1.1288 -2.1464 -0.5897
 5178TIP3    H236950   4.697   5.067   1.093 -0.8537  2.0341  2.0806
 5179TIP3   OH236951   6.688   4.010   5.456 -0.4596  0.2369 -0.2083
 5179TIP3    H136952   6.643   4.091   5.433  1.3628  1.3561 -0.0633
 5179TIP3    H236953   6.622   3.941   5.444 -1.9086  1.6674 -0.8248
 5180TIP3   OH236954   2.417   0.985   1.838  0.3238 -0.0619  0.0992
 5180TIP3    H136955   2.403   1.074   1.804 -0.7098  0.1541  1.0167
 5180TIP3    H236956   2.463   0.999   1.921  1.9697 -0.5283 -0.6894
 5181TIP3   OH236957   2.360   4.185  13.061 -0.8076  0.5187  0.2527
 5181TIP3    H136958   2.416   4.150  13.131  2.3536  3.1288 -0.7591
 5181TIP3    H236959   2.371   4.122  12.989  0.3892  0.6669  0.2822
 5182TIP3   OH236960   5.969   5.423   0.847  0.3546  0.2106 -0.3481
 5182TIP3    H136961   6.050   5.414   0.797 -0.6168  0.7440 -2.1011
 5182TIP3    H236962   5.900   5.401   0.784 -0.9255  0.9637  0.7586
 5183TIP3   OH236963   6.218   2.804  11.100  0.0591 -0.6910 -0.2925
 5183TIP3    H136964   6.203   2.877  11.159  1.0421 -0.8378  0.1736
 5183TIP3    H236965   6.184   2.833  11.016 -1.6326 -0.5896  0.3904
 5184TIP3   OH236966   2.131   3.721  16.829  0.6932 -0.4233  0.1664
 5184TIP3    H136967   2.218   3.751  16.801  1.4243 -0.1124  2.5713
 5184TIP3    H236968   2.139   3.710  16.924 -1.9877 -0.1270  0.4892
 5185TIP3   OH236969   5.343   3.833  15.124 -0.6864  0.6591  0.5501
 5185TIP3    H136970   5.355   3.802  15.214 -2.1534 -0.9699  0.2392
 5185TIP3    H236971   5.249   3.847  15.116 -0.5443  1.0329 -0.6725
 5186TIP3   OH236972   5.834   4.853   3.182  0.5406 -0.7246  0.1394
 5186TIP3    H136973   5.800   4.942   3.184  1.3235 -0.3642 -1.3392
 5186TIP3    H236974   5.914   4.856   3.233  0.1205 -0.7954  0.8139
 5187TIP3   OH236975   3.934   3.418  15.801 -0.0466  0.1065  0.2011
 5187TIP3    H136976   4.019   3.424  15.845 -0.4627 -0.1293  1.0716
 5187TIP3    H236977   3.945   3.466  15.719  0.1701  2.4257  1.4960
 5188TIP3   OH236978   6.598   3.911  13.514  0.1696  0.2550  0.1541
 5188TIP3    H136979   6.597   3.818  13.494  0.1960  0.4924 -0.9732
 5188TIP3    H236980   6.521   3.946  13.469 -1.7876  0.2688  3.2050
 5189TIP3   OH236981   3.662   4.959   1.443  0.3360  0.0459  0.2297
 5189TIP3    H136982   3.672   5.044   1.486 -2.4954 -0.0184  1.2392
 5189TIP3    H236983   3.651   4.897   1.515 -2.7294 -0.3306 -0.4130
 5190TIP3   OH236984   0.503   1.100  12.972  0.0768 -0.1159  0.3665
 5190TIP3    H136985   0.466   1.043  13.039  0.7245 -0.7285  0.2181
 5190TIP3    H236986   0.535   1.176  13.019 -1.1449  0.3317  0.5263
 5191TIP3   OH236987   2.118   6.060  15.767 -0.0709 -0.6248 -0.2611
 5191TIP3    H136988   2.197   6.083  15.815 -0.3523  2.2988 -0.9842
 5191TIP3    H236989   2.051   6.047  15.834  0.3318  0.0324  0.2790
 5192TIP3   OH236990   5.302   2.628  11.169  0.5291 -0.2158 -0.2891
 5192TIP3    H136991   5.348   2.613  11.087  0.1694  1.5529 -0.8667
 5192TIP3    H236992   5.333   2.714  11.198  0.7775 -0.8736  1.5302
 5193TIP3   OH236993   1.683   2.835  12.582 -0.1833  0.2855  0.5805
 5193TIP3    H136994   1.688   2.739  12.583  1.2057  0.3371  1.1524
 5193TIP3    H236995   1.686   2.858  12.489  0.9719 -0.1917  0.4792
 5194TIP3   OH236996   3.631   1.041   5.986  0.1673 -0.1618 -0.2734
 5194TIP3    H136997   3.575   1.086   5.923  0.6210 -0.9824 -1.2809
 5194TIP3    H236998   3.572   0.984   6.035 -0.2893  0.9476  0.4991
 5195TIP3   OH236999   4.426   2.814  12.391 -0.1079 -0.0765  0.8295
 5195TIP3    H137000   4.469   2.785  12.311 -0.1201  1.3305  0.2908
 5195TIP3    H237001   4.392   2.734  12.431  0.0217 -0.8064 -0.4921
 5196TIP3   OH237002   4.413   0.260  13.961  0.6997  0.0084 -0.1451
 5196TIP3    H137003   4.327   0.298  13.977  0.6895  0.6960 -1.6795
 5196TIP3    H237004   4.451   0.250  14.048 -0.0257  1.8062  0.4181
 5197TIP3   OH237005   2.788   4.361   2.099 -0.1563 -0.1293 -0.0656
 5197TIP3    H137006   2.824   4.432   2.152  0.5143 -1.9716  2.1007
 5197TIP3    H237007   2.727   4.404   2.039  1.3906  2.4187  0.0641
 5198TIP3   OH237008   4.713   0.361  13.044 -0.1618  0.4206 -0.0704
 5198TIP3    H137009   4.768   0.425  12.999  0.4823  0.2021  0.3941
 5198TIP3    H237010   4.772   0.288  13.063 -0.9284 -0.3990 -0.7547
 5199TIP3   OH237011   5.954   4.991  10.963  0.5535 -0.0572 -0.0258
 5199TIP3    H137012   5.860   4.984  10.979  0.6667  0.4550  0.9512
 5199TIP3    H237013   5.968   4.944  10.881 -0.4611 -0.6461  0.1217
 5200TIP3   OH237014   3.225   2.060   1.859 -0.1105  0.1487 -0.4358
 5200TIP3    H137015   3.158   2.076   1.792 -0.7764 -1.3228 -0.1619
 5200TIP3    H237016   3.179   2.074   1.942  0.6712  1.8177 -0.2295
 5201TIP3   OH237017   5.773   3.904   1.652 -0.1115 -0.0390  0.1411
 5201TIP3    H137018   5.769   3.996   1.627 -0.6595  0.8418  3.1500
 5201TIP3    H237019   5.862   3.891   1.684 -0.5565  0.0022  1.4676
 5202TIP3   OH237020   1.905   0.203   4.894  0.0700 -0.3107  0.4424
 5202TIP3    H137021   1.881   0.142   4.824 -0.2163 -1.3001  1.3651
 5202TIP3    H237022   1.843   0.276   4.885 -0.7957 -1.0275  0.4458
 5203TIP3   OH237023   2.021   5.470   0.568 -0.3459 -0.5318  0.5240
 5203TIP3    H137024   2.060   5.506   0.648 -0.0858  0.9400 -0.2309
 5203TIP3    H237025   2.095   5.454   0.510 -0.6342 -0.3691  0.1075
 5204TIP3   OH237026   6.321   4.399   2.649 -0.5703 -0.5079 -0.4970
 5204TIP3    H137027   6.354   4.401   2.560 -3.2321  0.2849 -1.5693
 5204TIP3    H237028   6.234   4.360   2.641  0.0904 -2.8842  2.1724
 5205TIP3   OH237029   0.131   2.555  15.463  0.1625 -0.0016 -0.1285
 5205TIP3    H137030   0.192   2.618  15.502  1.9946 -1.2228 -0.8596
 5205TIP3    H237031   0.078   2.524  15.536 -0.3378  1.8681  0.3506
 5206TIP3   OH237032   4.596   4.196  13.966  0.1746 -0.0264  0.2305
 5206TIP3    H137033   4.671   4.256  13.968  0.3129 -0.1696  2.9983
 5206TIP3    H237034   4.617   4.133  13.897  2.9133 -0.3789  1.2566
 5207TIP3   OH237035   3.624   3.544  16.986  0.3565  0.1559 -0.0675
 5207TIP3    H137036   3.672   3.627  16.991 -0.7499  0.9951 -2.0867
 5207TIP3    H237037   3.542   3.561  17.032 -0.3261  0.6067 -1.3676
 5208TIP3   OH237038   2.816   6.298  15.871  0.0707 -0.4823 -0.2720
 5208TIP3    H137039   2.795   6.291  15.964 -0.1522 -1.2542 -0.3705
 5208TIP3    H237040   2.912   6.299  15.867  0.0791  0.1474 -0.0027
 5209TIP3   OH237041   4.769   1.239   1.001  0.7056  0.0947 -0.2507
 5209TIP3    H137042   4.775   1.306   0.934 -0.5400  1.2738  0.7658
 5209TIP3    H237043   4.832   1.266   1.068 -0.5700  0.9148  0.6713
 5210TIP3   OH237044   0.735   3.104  13.452 -0.6579  0.8726 -0.6869
 5210TIP3    H137045   0.827   3.121  13.474  0.0637 -2.3364 -0.8544
 5210TIP3    H237046   0.719   3.158  13.375  1.4361  0.7084 -1.2886
 5211TIP3   OH237047   2.871   3.563  16.771  0.5532 -0.0448 -0.5869
 5211TIP3    H137048   2.884   3.474  16.738  1.1089  0.6011 -2.2097
 5211TIP3    H237049   2.779   3.582  16.752  0.8783  0.3367 -1.8924
 5212TIP3   OH237050   0.918   2.569  13.273  0.0771 -0.3341  0.4327
 5212TIP3    H137051   1.002   2.529  13.296 -0.7186 -1.0324  2.3500
 5212TIP3    H237052   0.873   2.581  13.357 -1.0491  1.6453 -0.3824
 5213TIP3   OH237053   2.118   0.255   2.209 -0.5825 -0.1090  0.1881
 5213TIP3    H137054   2.030   0.291   2.213 -0.7137 -0.4326  0.2637
 5213TIP3    H237055   2.165   0.301   2.279 -0.8091 -0.2482  0.4333
 5214TIP3   OH237056   4.565   3.822  15.729 -0.2022 -0.6246  0.3818
 5214TIP3    H137057   4.600   3.907  15.703 -0.8364 -0.2596  0.6988
 5214TIP3    H237058   4.522   3.788  15.650 -1.3765  0.0941  0.6907
 5215TIP3   OH237059   0.440   3.338  13.880 -0.0090 -0.4486  0.2259
 5215TIP3    H137060   0.509   3.394  13.845 -0.8682 -0.5531 -1.7571
 5215TIP3    H237061   0.376   3.398  13.917 -0.9378 -0.0235 -1.9101
 5216TIP3   OH237062   5.817   4.044   1.026  0.1241  0.9896 -0.6975
 5216TIP3    H137063   5.766   3.974   0.986  0.1920 -0.0802  0.9959
 5216TIP3    H237064   5.778   4.056   1.112  1.4038  1.6137 -0.1844
 5217TIP3   OH237065   3.359   0.122   2.476  0.4450  0.0130 -0.4031
 5217TIP3    H137066   3.291   0.187   2.495 -0.7910 -1.7728  1.7647
 5217TIP3    H237067   3.362   0.068   2.555  2.5467 -1.6065 -1.5073
 5218TIP3   OH237068   5.660   3.147  16.765  0.2011 -0.4858 -0.4243
 5218TIP3    H137069   5.745   3.167  16.805 -0.6794  0.1961  1.1795
 5218TIP3    H237070   5.641   3.057  16.792  0.2210 -0.5037 -0.4685
 5219TIP3   OH237071   3.513   2.040  13.638 -0.6847  0.1160  0.0992
 5219TIP3    H137072   3.483   2.069  13.724 -1.2512 -0.8647  0.2553
 5219TIP3    H237073   3.592   1.990  13.656  0.6029  1.9366 -0.2225
 5220TIP3   OH237074   6.375   4.928   2.817 -0.5608  0.2424 -0.1534
 5220TIP3    H137075   6.371   5.021   2.791  0.5804  1.1107  2.4578
 5220TIP3    H237076   6.289   4.910   2.856 -0.2866  0.6719  0.6734
 5221TIP3   OH237077   5.449   3.962   4.383 -0.1187  0.1862  0.6617
 5221TIP3    H137078   5.507   3.988   4.311  0.5660 -1.8564  0.4109
 5221TIP3    H237079   5.506   3.920   4.447 -1.3343 -2.7649 -0.0304
 5222TIP3   OH237080   6.121   6.614   2.505 -0.1728  0.2566 -0.0939
 5222TIP3    H137081   6.033   6.578   2.503 -1.0094  2.0170  1.5674
 5222TIP3    H237082   6.129   6.662   2.422 -0.5982 -0.2910 -0.4530
 5223TIP3   OH237083   0.435   0.741   2.777 -0.4653  0.1620 -0.7279
 5223TIP3    H137084   0.395   0.758   2.862  0.2359 -0.6918 -0.2048
 5223TIP3    H237085   0.361   0.728   2.717 -1.0085 -1.3928  0.2187
 5224TIP3   OH237086   0.028   2.215  16.634 -0.4229  0.3940 -0.0092
 5224TIP3    H137087  -0.006   2.298  16.666 -1.1944 -0.3621  1.2465
 5224TIP3    H237088   0.040   2.228  16.540  1.9804  2.7256  0.5056
 5225TIP3   OH237089   5.587   2.945  15.931 -0.3302 -0.0728 -0.1928
 5225TIP3    H137090   5.579   2.994  15.850 -2.1746  0.7426  0.4383
 5225TIP3    H237091   5.501   2.908  15.946  0.3449 -1.3525  0.7109
 5226TIP3   OH237092   3.351   1.318  10.298 -0.3529 -0.1707 -0.2423
 5226TIP3    H137093   3.280   1.327  10.235  0.2750  1.1228 -0.7986
 5226TIP3    H237094   3.422   1.278  10.248 -0.3722 -0.6194  0.0782
 5227TIP3   OH237095   2.806   1.632   4.249 -0.1234  0.0848  0.0225
 5227TIP3    H137096   2.768   1.700   4.304 -0.8288  0.8575 -1.3617
 5227TIP3    H237097   2.888   1.670   4.217 -0.2726  0.0914 -0.3564
 5228TIP3   OH237098   2.304   2.606   4.560 -0.0998  0.4167 -0.0389
 5228TIP3    H137099   2.260   2.580   4.479 -2.3463  0.7170  1.0050
 5228TIP3    H237100   2.356   2.682   4.537  0.5019 -0.4203 -1.5123
 5229TIP3   OH237101   3.294   6.369   3.934 -0.2559 -0.0214  0.1149
 5229TIP3    H137102   3.231   6.395   3.867 -0.6794 -0.9848  0.1313
 5229TIP3    H237103   3.375   6.351   3.886 -0.3321  0.0504 -0.0418
 5230TIP3   OH237104   3.805   0.483  17.198  0.4378 -0.9567  0.2080
 5230TIP3    H137105   3.886   0.482  17.249  1.5930  1.0630 -1.4362
 5230TIP3    H237106   3.766   0.397  17.214  1.6153 -1.1095  2.9927
 5231TIP3   OH237107   0.284   1.074   2.239  0.3874  0.6052  1.3799
 5231TIP3    H137108   0.220   1.040   2.301  1.6019 -1.8145  1.4344
 5231TIP3    H237109   0.291   1.006   2.172 -0.1625  2.6930 -0.9558
 5232TIP3   OH237110   2.771   3.261   5.397 -0.1223 -0.0626  0.2573
 5232TIP3    H137111   2.804   3.191   5.341 -2.8901 -4.4428  3.4433
 5232TIP3    H237112   2.700   3.300   5.346  0.7003 -0.2971 -1.1433
 5233TIP3   OH237113   6.647   1.791  16.110  0.2021  0.5047 -0.7261
 5233TIP3    H137114   6.707   1.866  16.119 -0.7235  1.3242 -1.1836
 5233TIP3    H237115   6.697   1.717  16.144  1.1486  1.3238 -0.2543
 5234TIP3   OH237116   4.873   2.056  13.116 -0.5542 -0.0852  0.2772
 5234TIP3    H137117   4.929   1.985  13.085 -0.2398  0.6456 -0.8869
 5234TIP3    H237118   4.785   2.017  13.120 -0.5026 -0.3654 -1.0206
 5235TIP3   OH237119   1.072   2.737   2.027 -0.5015  0.0346 -0.6287
 5235TIP3    H137120   1.038   2.729   1.938  0.1436 -1.5988 -0.7681
 5235TIP3    H237121   1.166   2.720   2.018 -0.3598  0.3018  0.3005
 5236TIP3   OH237122   5.570   4.032   3.352 -0.1719  0.4920 -0.3686
 5236TIP3    H137123   5.522   4.102   3.307 -0.5299 -0.1529 -1.0066
 5236TIP3    H237124   5.651   4.074   3.381 -0.3877  1.1809 -0.7262
 5237TIP3   OH237125   3.597   3.485  16.361  0.4171 -0.2547  0.3783
 5237TIP3    H137126   3.521   3.485  16.420 -1.7163 -1.2459 -2.2004
 5237TIP3    H237127   3.594   3.570  16.318 -1.4023 -1.5388 -2.2235
 5238TIP3   OH237128   0.432   6.041  15.073 -0.0198  0.7154 -0.0293
 5238TIP3    H137129   0.523   6.041  15.102 -0.4058  0.3319  1.2743
 5238TIP3    H237130   0.415   5.951  15.045 -0.2126  0.5874  0.4857
 5239TIP3   OH237131   6.725   4.540   0.975 -0.4327  0.2245 -0.2087
 5239TIP3    H137132   6.752   4.577   0.891 -0.2857 -2.1134 -1.2695
 5239TIP3    H237133   6.630   4.533   0.969 -0.3096 -1.4606 -0.9370
 5240TIP3   OH237134   4.666   3.100   1.694  0.0039  0.4784  0.2904
 5240TIP3    H137135   4.658   3.027   1.634  1.4551  0.1121  0.5122
 5240TIP3    H237136   4.741   3.150   1.662 -1.8701  2.8011 -0.7831
 5241TIP3   OH237137   6.306   3.709  15.738  0.7818  0.3413 -0.2252
 5241TIP3    H137138   6.289   3.794  15.696  2.6695  0.6490 -0.4394
 5241TIP3    H237139   6.278   3.644  15.673 -0.7339  0.7672 -0.0324
 5242TIP3   OH237140   5.448   6.607   2.436  0.1390  0.2847 -0.5881
 5242TIP3    H137141   5.447   6.511   2.437 -1.5663  0.2293  1.6652
 5242TIP3    H237142   5.402   6.631   2.356  1.7445 -0.7002 -1.8825
 5243TIP3   OH237143   3.568   1.491  12.159  0.1739  0.8260  0.6419
 5243TIP3    H137144   3.505   1.530  12.098 -0.4720 -1.0374  0.0382
 5243TIP3    H237145   3.616   1.428  12.105  1.2374  0.8463  1.5492
 5244TIP3   OH237146   1.233   0.577  12.946 -0.0177  0.0246 -0.0697
 5244TIP3    H137147   1.177   0.567  13.023 -0.0332  0.2416 -0.0515
 5244TIP3    H237148   1.321   0.583  12.982 -0.1249  1.3553  0.0287
 5245TIP3   OH237149   0.943   6.224   2.961  0.5050  0.2856 -0.4287
 5245TIP3    H137150   0.954   6.311   2.998 -0.1399  0.3905 -0.4745
 5245TIP3    H237151   0.862   6.229   2.912 -0.7660 -0.9775  1.4225
 5246TIP3   OH237152   0.120   3.064  10.988 -0.3370  0.0613 -0.2509
 5246TIP3    H137153   0.191   3.025  11.038 -0.8693  2.5301  2.7228
 5246TIP3    H237154   0.161   3.134  10.938 -0.1041 -1.2410 -1.9824
 5247TIP3   OH237155   4.962   4.897  16.728 -0.7540 -0.4806  0.0489
 5247TIP3    H137156   5.027   4.923  16.662 -1.2094 -2.1533 -1.1004
 5247TIP3    H237157   4.929   4.981  16.762  0.5270  0.4120 -0.7925
 5248TIP3   OH237158   6.179   5.439  13.086 -1.0677 -0.1761  0.4618
 5248TIP3    H137159   6.247   5.450  13.020 -0.6961 -0.9959  0.6945
 5248TIP3    H237160   6.224   5.446  13.170 -1.4758  0.4906  0.6307
 5249TIP3   OH237161   5.930   4.954  12.938 -0.4143 -0.2521 -0.0128
 5249TIP3    H137162   5.918   5.044  12.969 -1.2101 -0.1337 -0.6126
 5249TIP3    H237163   6.022   4.935  12.953  0.0611  1.1077 -1.0171
 5250TIP3   OH237164   5.520   2.708  11.330 -0.4991  0.4579 -0.4578
 5250TIP3    H137165   5.579   2.668  11.266  0.0021  1.1988 -0.4776
 5250TIP3    H237166   5.570   2.709  11.411  0.0053  2.1735 -0.7444
 5251TIP3   OH237167   3.805   6.010   3.214 -0.1637 -0.0067 -0.7534
 5251TIP3    H137168   3.899   5.988   3.210 -0.0322  0.5463 -0.8061
 5251TIP3    H237169   3.767   5.941   3.268  0.4151  0.2001 -0.0556
 5252TIP3   OH237170   1.880   5.824   3.118 -0.2519 -0.5693 -0.1635
 5252TIP3    H137171   1.936   5.815   3.041 -0.4703 -2.0497 -0.1786
 5252TIP3    H237172   1.795   5.793   3.089  0.2813 -3.7790  1.3397
 5253TIP3   OH237173   1.205   6.513   5.735 -0.4141 -0.6778  0.6237
 5253TIP3    H137174   1.204   6.434   5.681  0.5636  0.7634 -1.6717
 5253TIP3    H237175   1.121   6.555   5.716 -1.3135 -1.4932  2.5053
 5254TIP3   OH237176   2.660   0.258  10.987 -0.1918 -0.0834 -0.0246
 5254TIP3    H137177   2.734   0.210  10.949 -0.6927 -1.7481  1.0168
 5254TIP3    H237178   2.673   0.349  10.958  0.4070 -0.9187 -2.6610
 5255TIP3   OH237179   3.483   0.095   3.207  0.2708 -0.0795  0.3935
 5255TIP3    H137180   3.414   0.157   3.183 -1.6831 -1.4858  2.0459
 5255TIP3    H237181   3.537   0.142   3.271 -0.4068  0.3529  0.6563
 5256TIP3   OH237182   2.154   2.604   0.749 -0.5707 -0.3651 -0.2187
 5256TIP3    H137183   2.147   2.654   0.667 -0.9200  0.9527  0.5856
 5256TIP3    H237184   2.197   2.663   0.810  1.5748 -2.0508  0.0226
 5257TIP3   OH237185   2.797   0.233   3.859  0.0778  0.0107 -0.0202
 5257TIP3    H137186   2.706   0.240   3.890  0.7241 -0.3921  2.1086
 5257TIP3    H237187   2.792   0.174   3.784 -1.4480  0.1866 -0.1008
 5258TIP3   OH237188   5.359   1.796  13.698 -0.5113  0.8111 -0.1779
 5258TIP3    H137189   5.317   1.710  13.699  0.8082  0.1456  1.1659
 5258TIP3    H237190   5.411   1.797  13.618  0.4237 -0.1428  0.4007
 5259TIP3   OH237191   6.514   3.368   2.940 -0.4374 -0.0479  0.1220
 5259TIP3    H137192   6.565   3.393   2.863 -0.7650 -1.3675 -0.5535
 5259TIP3    H237193   6.569   3.390   3.015  0.4497  0.0048 -0.5408
 5260TIP3   OH237194   3.955   4.923  14.035  0.5928  0.2939 -0.5163
 5260TIP3    H137195   3.992   4.935  14.123  1.8283  1.0636 -1.1278
 5260TIP3    H237196   3.949   4.828  14.025 -1.0370  0.1721  0.9732
 5261TIP3   OH237197   3.288   5.021   5.092  0.4223 -0.3607  0.1808
 5261TIP3    H137198   3.339   4.943   5.114 -0.8765 -0.6547  2.4299
 5261TIP3    H237199   3.279   5.068   5.175  1.6041  2.5205 -1.1732
 5262TIP3   OH237200   1.462   2.380   3.220  0.5470 -0.0891  0.0109
 5262TIP3    H137201   1.375   2.347   3.198 -0.3066  3.6184 -3.3484
 5262TIP3    H237202   1.448   2.444   3.289  0.7202  0.0476 -0.0796
 5263TIP3   OH237203   1.183   3.365   1.830 -0.3504  0.3429  0.5042
 5263TIP3    H137204   1.117   3.336   1.892  0.5137 -0.0492  1.2604
 5263TIP3    H237205   1.183   3.298   1.761 -1.9186  1.2281 -0.4035
 5264TIP3   OH237206   6.421   2.446   1.046  0.0629  0.1006  0.2864
 5264TIP3    H137207   6.399   2.532   1.009  0.6459  0.5809  1.0375
 5264TIP3    H237208   6.510   2.429   1.015  0.3260  0.2271  0.9663
 5265TIP3   OH237209   3.261   1.005  15.291 -0.0801 -0.4050 -0.0271
 5265TIP3    H137210   3.188   0.968  15.341 -0.0324  0.2500  0.5312
 5265TIP3    H237211   3.331   0.941  15.300  0.2376  0.1306  1.5314
 5266TIP3   OH237212   1.288   5.169  14.031 -0.1748 -0.7305 -0.2319
 5266TIP3    H137213   1.213   5.229  14.023 -1.3319 -1.9698  0.9318
 5266TIP3    H237214   1.364   5.227  14.031 -1.1023  0.5790 -1.3362
 5267TIP3   OH237215   5.543   5.514   4.176 -0.3303 -0.2731  0.8107
 5267TIP3    H137216   5.483   5.587   4.161  1.2099  1.0378  0.7064
 5267TIP3    H237217   5.494   5.436   4.149 -1.6094  0.8502 -0.2590
 5268TIP3   OH237218   6.066   3.196   1.438 -0.5507 -0.4358 -0.3455
 5268TIP3    H137219   6.123   3.120   1.451 -1.4708 -1.0384  0.3107
 5268TIP3    H237220   6.046   3.195   1.344 -0.5690 -1.0167 -0.3409
 5269TIP3   OH237221   2.160   2.872  12.780  0.3848 -0.2198  0.2701
 5269TIP3    H137222   2.095   2.872  12.850 -0.6261 -2.0888 -0.6078
 5269TIP3    H237223   2.150   2.958  12.739 -0.5253  0.0557  1.0321
 5270TIP3   OH237224   2.004   6.723  14.052 -0.6296 -0.0783 -0.1756
 5270TIP3    H137225   2.004   6.789  13.981 -2.1290 -0.2453 -0.3737
 5270TIP3    H237226   2.026   6.641  14.008 -0.1593  0.0450 -0.1801
 5271TIP3   OH237227   3.417   3.660  15.752  0.3803  0.0541 -0.7478
 5271TIP3    H137228   3.438   3.571  15.781  1.7388  0.8037  0.7491
 5271TIP3    H237229   3.436   3.660  15.658 -2.4508 -1.9831 -1.4387
 5272TIP3   OH237230   0.231   4.022   3.626  0.1026  0.4266 -0.0595
 5272TIP3    H137231   0.142   4.046   3.602  0.3064  1.3619  0.0870
 5272TIP3    H237232   0.222   3.977   3.710 -0.1319  1.5380  0.5249
 5273TIP3   OH237233   1.869   4.816  11.809 -0.1322 -0.0710  0.2158
 5273TIP3    H137234   1.864   4.881  11.880  0.6553  0.1051  0.1235
 5273TIP3    H237235   1.880   4.868  11.730  1.2012 -0.3245  0.2162
 5274TIP3   OH237236   4.490   5.553   2.629  0.2968  0.2037 -0.3342
 5274TIP3    H137237   4.446   5.467   2.632 -0.6861  0.6974 -0.2757
 5274TIP3    H237238   4.425   5.614   2.662  0.5087  1.1780 -1.6815
 5275TIP3   OH237239   4.552   5.432   1.967 -0.0721  0.0160  0.0015
 5275TIP3    H137240   4.591   5.346   1.953  1.0841  0.6878 -1.0465
 5275TIP3    H237241   4.627   5.492   1.974 -0.8217  1.5561 -3.4096
 5276TIP3   OH237242   0.703   4.127   1.423 -0.4087 -0.1978 -0.0647
 5276TIP3    H137243   0.684   4.115   1.330 -0.8165 -0.6591  0.0768
 5276TIP3    H237244   0.618   4.119   1.467 -0.2833  0.4522  0.3072
 5277TIP3   OH237245   2.943   5.814  12.483 -0.1597  0.2143  0.3143
 5277TIP3    H137246   2.939   5.721  12.506  0.9405  0.4489  1.5770
 5277TIP3    H237247   2.881   5.856  12.542 -0.6267  0.2878 -0.2288
 5278TIP3   OH237248   4.360   3.731  11.674 -0.1636 -0.4140 -0.0127
 5278TIP3    H137249   4.408   3.798  11.724 -2.9345  1.0370  0.9607
 5278TIP3    H237250   4.364   3.653  11.729  1.8038 -0.6651 -0.4260
 5279TIP3   OH237251   5.355   3.278   0.750  0.0050  0.0113  0.3621
 5279TIP3    H137252   5.409   3.225   0.808  1.8677  0.6063 -0.7256
 5279TIP3    H237253   5.405   3.360   0.739 -2.3619  1.7041  1.3321
 5280TIP3   OH237254   5.624   1.810   4.352 -0.2451 -0.3957 -0.1493
 5280TIP3    H137255   5.679   1.835   4.426 -2.7238  1.5580  1.1625
 5280TIP3    H237256   5.595   1.721   4.373 -1.3161  0.3124  1.5375
 5281TIP3   OH237257   4.830   2.669  11.031 -0.7110  0.2359 -0.4862
 5281TIP3    H137258   4.886   2.624  10.968 -0.2729  0.5873 -0.3540
 5281TIP3    H237259   4.810   2.753  10.990  1.6851  1.5652  0.8850
 5282TIP3   OH237260   3.883   1.223   5.844  0.0917  0.2170 -0.3983
 5282TIP3    H137261   3.791   1.201   5.862 -0.3859  1.3553 -1.3777
 5282TIP3    H237262   3.884   1.253   5.754  1.1583  1.7378  0.0794
 5283TIP3   OH237263   4.933   5.102   4.557 -0.0248  0.7414  0.2905
 5283TIP3    H137264   4.924   5.055   4.640 -0.9677  0.8343  0.2468
 5283TIP3    H237265   4.844   5.123   4.531  0.3390  2.0785  0.0336
 5284TIP3   OH237266   4.968   3.158  12.960  0.3168  0.0520  0.3777
 5284TIP3    H137267   5.010   3.080  12.996  1.0240  0.5679  0.7051
 5284TIP3    H237268   4.960   3.140  12.867 -1.7474 -1.4025  0.7579
 5285TIP3   OH237269   4.770   1.441   0.812 -0.2317 -0.2826  0.5218
 5285TIP3    H137270   4.768   1.486   0.727  1.0783 -0.6344  0.2762
 5285TIP3    H237271   4.813   1.503   0.871 -3.9384  1.3235  1.8543
 5286TIP3   OH237272   1.505   2.269  15.546  0.1577  0.1556  0.1907
 5286TIP3    H137273   1.589   2.308  15.571  0.1581 -0.0497  0.5250
 5286TIP3    H237274   1.446   2.343  15.538  0.2623  0.2646  0.4018
 5287TIP3   OH237275   4.850   2.193   3.718 -0.0902  0.0493 -0.1562
 5287TIP3    H137276   4.899   2.114   3.698 -0.9933 -0.0841 -2.0719
 5287TIP3    H237277   4.900   2.264   3.677 -1.7903 -0.1873 -2.9095
 5288TIP3   OH237278   6.449   5.731   4.825  0.0378  0.3714 -0.3821
 5288TIP3    H137279   6.420   5.724   4.916  2.3571 -0.1294  0.3897
 5288TIP3    H237280   6.397   5.803   4.789 -2.8874 -1.1581  0.4805
 5289TIP3   OH237281   0.496   0.616   0.757  0.6248 -0.0110  0.1356
 5289TIP3    H137282   0.588   0.592   0.751  0.0957 -2.1580 -0.2823
 5289TIP3    H237283   0.456   0.545   0.807 -0.4133  2.1491  2.5542
 5290TIP3   OH237284   3.248   5.533   3.599  0.1474 -0.4027  0.1243
 5290TIP3    H137285   3.327   5.536   3.653 -0.9042  1.3484  1.7409
 5290TIP3    H237286   3.206   5.450   3.622  0.5622 -0.4526  0.7221
 5291TIP3   OH237287   4.727   0.235   5.886  0.2018  0.1623 -0.0763
 5291TIP3    H137288   4.716   0.281   5.969  1.2456  0.3828 -0.0468
 5291TIP3    H237289   4.821   0.230   5.874  0.0839 -1.0012 -0.6275
 5292TIP3   OH237290   0.459   4.196   0.801  0.1257 -0.1998  0.2527
 5292TIP3    H137291   0.507   4.115   0.782 -0.2822 -0.9753  2.2303
 5292TIP3    H237292   0.371   4.167   0.822 -0.5317  0.9673 -0.8178
 5293TIP3   OH237293   1.642   1.398   3.594  0.4056  0.0405  0.1514
 5293TIP3    H137294   1.675   1.380   3.682  0.1971 -0.4176  0.1356
 5293TIP3    H237295   1.668   1.323   3.542 -0.9425 -0.5027  0.2161
 5294TIP3   OH237296   1.828   5.702  11.832 -0.3109 -0.2292  0.2145
 5294TIP3    H137297   1.912   5.657  11.825  0.1212  0.7252 -1.0583
 5294TIP3    H237298   1.837   5.758  11.909  0.6308  0.6533 -0.5153
 5295TIP3   OH237299   2.082   3.932  12.218 -0.3992 -0.0652 -0.3050
 5295TIP3    H137300   2.127   3.958  12.298  0.7573 -0.2235 -0.8856
 5295TIP3    H237301   2.076   4.013  12.166 -1.2469  0.0621 -0.0344
 5296TIP3   OH237302   2.913   4.648   1.536 -0.4305 -0.3745 -0.2138
 5296TIP3    H137303   2.877   4.689   1.458  0.2315 -0.2396 -0.4593
 5296TIP3    H237304   2.984   4.706   1.563 -0.0529 -0.8987 -0.0599
 5297TIP3   OH237305   5.772   4.765  11.012 -0.8638  0.3342 -0.3928
 5297TIP3    H137306   5.861   4.735  10.993 -1.0187 -1.0323  0.9347
 5297TIP3    H237307   5.716   4.713  10.954 -0.8399  1.0411 -1.0715
 5298TIP3   OH237308   2.247   4.955  12.630  0.0712 -0.1869  0.5709
 5298TIP3    H137309   2.168   4.913  12.663 -0.0481 -0.5431 -0.1449
 5298TIP3    H237310   2.300   4.883  12.597  0.1514  0.1562 -0.0697
 5299TIP3   OH237311   2.237   1.405   3.745  0.0345  0.2655 -0.0844
 5299TIP3    H137312   2.281   1.341   3.688  1.4789 -0.0830  1.3611
 5299TIP3    H237313   2.306   1.467   3.768 -1.4376  2.7511 -1.8753
 5300TIP3   OH237314   4.019   1.795  13.358  0.4417  0.2749 -0.0541
 5300TIP3    H137315   4.098   1.823  13.405  0.6125 -1.1046  0.5072
 5300TIP3    H237316   3.958   1.768  13.426 -0.5259  1.2759 -0.4919
 5301TIP3   OH237317   6.013   2.051  11.962 -0.0386  0.1129  0.3366
 5301TIP3    H137318   6.074   1.985  11.929 -3.1549 -2.8875  0.1047
 5301TIP3    H237319   5.967   2.082  11.885 -0.8213  0.1634  0.8130
 5302TIP3   OH237320   5.557   1.479   3.135  0.7368  0.0545 -0.0657
 5302TIP3    H137321   5.614   1.404   3.155  0.9919  0.7540  2.2360
 5302TIP3    H237322   5.469   1.450   3.161  0.8121  0.4605  0.6842
 5303TIP3   OH237323   2.958   5.250  15.970 -0.2479 -0.0961  0.1448
 5303TIP3    H137324   2.935   5.205  16.051 -0.5240  0.5061  0.4065
 5303TIP3    H237325   2.874   5.263  15.925 -0.4980  2.0594  1.0802
 5304TIP3   OH237326   5.155   2.234  11.916  0.1886  0.0123  0.1972
 5304TIP3    H137327   5.174   2.190  11.833  2.2693  0.1949  0.5288
 5304TIP3    H237328   5.231   2.216  11.971 -0.2131  1.6112  1.3578
 5305TIP3   OH237329   0.356   0.337  14.697  0.4544  0.3180  0.3616
 5305TIP3    H137330   0.362   0.278  14.622  1.3259  0.2982  0.4359
 5305TIP3    H237331   0.281   0.305  14.747 -0.2676  0.4598 -0.5980
 5306TIP3   OH237332   2.183   2.087   0.390  0.1401 -0.1530  0.0817
 5306TIP3    H137333   2.196   2.098   0.296 -2.9649 -1.6575 -0.6738
 5306TIP3    H237334   2.133   2.164   0.416  1.3873  0.4901  0.6518
 5307TIP3   OH237335   3.840   6.037   1.573 -0.1593  0.3596 -0.2830
 5307TIP3    H137336   3.889   6.117   1.593 -1.2156  0.5676  1.8126
 5307TIP3    H237337   3.907   5.974   1.547  1.2441  0.7627  2.0132
 5308TIP3   OH237338   3.697   0.453  12.502  0.3154 -0.3278 -0.1877
 5308TIP3    H137339   3.605   0.471  12.519  0.4946 -0.0142  0.5023
 5308TIP3    H237340   3.702   0.358  12.493 -0.1259 -0.3154 -0.5530
 5309TIP3   OH237341   5.739   1.698   3.153 -0.1740 -0.6623 -0.6629
 5309TIP3    H137342   5.669   1.633   3.147 -0.4373 -0.4235 -0.2217
 5309TIP3    H237343   5.709   1.770   3.098 -0.7849 -0.1081  0.3599
 5310TIP3   OH237344   2.800   3.928   6.075  0.0030  0.1167 -0.6422
 5310TIP3    H137345   2.781   4.015   6.038 -3.2577  0.3525  1.1717
 5310TIP3    H237346   2.802   3.870   6.000 -0.4023  1.3945 -1.6845
 5311TIP3   OH237347   4.010   0.965  12.715  0.0439 -0.9703  0.1477
 5311TIP3    H137348   4.071   0.898  12.746  0.0715 -0.6996  0.7002
 5311TIP3    H237349   3.948   0.976  12.787  0.8414  0.5635  0.6381
 5312TIP3   OH237350   6.036   5.638  12.195 -0.4018 -0.9404  0.0892
 5312TIP3    H137351   6.122   5.630  12.154 -0.7181  1.7602 -1.3298
 5312TIP3    H237352   6.055   5.648  12.288  0.8647 -0.2255 -0.2215
 5313TIP3   OH237353   5.255   3.398   4.813  0.1986 -0.3257 -0.7065
 5313TIP3    H137354   5.187   3.459   4.786  0.9564  0.2162 -1.4274
 5313TIP3    H237355   5.333   3.451   4.823  0.3132 -0.7557  1.1633
 5314TIP3   OH237356   5.094   0.664  12.584 -0.3326  0.6135 -1.5062
 5314TIP3    H137357   5.028   0.621  12.529  2.1691 -0.6562 -3.7436
 5314TIP3    H237358   5.133   0.593  12.635 -0.1951  1.2249 -0.7485
 5315TIP3   OH237359   1.832   1.805   3.442 -1.0428 -0.1521 -0.0272
 5315TIP3    H137360   1.831   1.711   3.429 -0.5919 -0.0382 -0.9597
 5315TIP3    H237361   1.778   1.840   3.371 -0.9236  0.3097  0.1039
 5316TIP3   OH237362   2.298   2.202  12.878  0.2894 -0.1727 -0.0459
 5316TIP3    H137363   2.381   2.189  12.833  0.6647 -0.5395  0.7367
 5316TIP3    H237364   2.310   2.283  12.927 -0.1567  0.2845 -0.6769
 5317TIP3   OH237365   5.489   1.402  12.667  0.4188  0.4366 -0.0376
 5317TIP3    H137366   5.480   1.391  12.572  0.1744 -0.1294  0.0475
 5317TIP3    H237367   5.400   1.392  12.700  0.9516 -3.3975  0.6474
 5318TIP3   OH237368   1.363   3.971   0.240  0.3443 -0.1254 -0.4365
 5318TIP3    H137369   1.316   4.051   0.263 -0.4273 -1.0751  1.4833
 5318TIP3    H237370   1.446   3.977   0.287 -0.3009 -1.0454  0.8964
 5319TIP3   OH237371   2.155   0.166   6.396  0.1910  0.1601  0.1077
 5319TIP3    H137372   2.168   0.159   6.491 -2.0602 -1.7013  0.3697
 5319TIP3    H237373   2.062   0.187   6.387 -0.7713 -3.9720 -1.6612
 5320TIP3   OH237374   2.615   2.593   2.469 -0.0497  0.0484 -0.7346
 5320TIP3    H137375   2.595   2.622   2.380  0.1805 -0.5926 -0.9999
 5320TIP3    H237376   2.698   2.546   2.461 -0.2694 -0.4277 -0.2585
 5321TIP3   OH237377   0.683   0.909  16.776 -0.0389  0.3011 -0.2938
 5321TIP3    H137378   0.655   0.986  16.727  0.8278  0.1683 -1.0227
 5321TIP3    H237379   0.618   0.900  16.845  0.5989  2.5228  0.7021
 5322TIP3   OH237380   5.252   1.551   1.357  0.4015 -0.2887  0.1557
 5322TIP3    H137381   5.274   1.491   1.285  1.9005 -0.4371  0.7093
 5322TIP3    H237382   5.297   1.514   1.433  0.0518  0.6898  0.8463
 5323TIP3   OH237383   1.245   3.284  16.186  0.3871 -0.4616 -0.0361
 5323TIP3    H137384   1.238   3.373  16.151 -0.5704 -0.3924  0.2999
 5323TIP3    H237385   1.323   3.248  16.144  1.1168  0.7261  0.2658
 5324TIP3   OH237386   4.272   0.854  12.100 -0.2269  0.3261  0.3182
 5324TIP3    H137387   4.354   0.806  12.090 -0.4201 -0.0330  0.4615
 5324TIP3    H237388   4.256   0.855  12.194 -0.9069 -0.4840  0.2188
 5325TIP3   OH237389   5.764   0.902   5.321 -0.1071  0.4328 -0.1447
 5325TIP3    H137390   5.836   0.916   5.260  0.6883 -0.0031  0.6622
 5325TIP3    H237391   5.752   0.807   5.323 -1.2969  0.5541 -0.9258
 5326TIP3   OH237392   3.497   5.783   2.806  0.0741 -0.0334  0.6216
 5326TIP3    H137393   3.500   5.694   2.771 -1.1536  0.7506 -1.6355
 5326TIP3    H237394   3.435   5.829   2.750  2.3444  2.8666  0.2882
 5327TIP3   OH237395   5.883   5.038   2.200  0.2619 -0.1281 -0.2273
 5327TIP3    H137396   5.796   5.077   2.211  0.1863  0.8279 -3.2884
 5327TIP3    H237397   5.890   4.975   2.272 -3.5546 -1.3027 -0.6196
 5328TIP3   OH237398   6.755   4.279  14.926 -0.2515 -0.2515  0.0625
 5328TIP3    H137399   6.745   4.215  14.855 -0.4126  1.9131 -1.9698
 5328TIP3    H237400   6.827   4.244  14.979  1.0255 -1.1319 -2.1055
 5329TIP3   OH237401   4.077   3.711  11.889  0.1743 -0.0948  0.3349
 5329TIP3    H137402   4.014   3.659  11.938 -1.8061  2.9585  1.3451
 5329TIP3    H237403   4.147   3.728  11.952 -0.2127  0.1721  0.7013
 5330TIP3   OH237404   3.222   2.566   2.887  0.3932 -0.3886 -0.1034
 5330TIP3    H137405   3.151   2.539   2.828 -0.0715 -0.1647  0.3413
 5330TIP3    H237406   3.279   2.489   2.893  0.6179 -0.3096 -1.0882
 5331TIP3   OH237407   6.521   3.478   4.491 -0.0853  0.3601  0.5798
 5331TIP3    H137408   6.426   3.482   4.502 -0.1549  0.8409 -0.1813
 5331TIP3    H237409   6.547   3.568   4.471  0.2683 -0.1080 -1.2544
 5332TIP3   OH237410   0.751   1.099   4.921  0.0305  0.4017  0.1977
 5332TIP3    H137411   0.747   1.173   4.982  1.6146  0.5666  0.1564
 5332TIP3    H237412   0.785   1.026   4.973  0.7175  0.3568 -0.2921
 5333TIP3   OH237413   2.163   5.279  15.129 -0.4905 -0.0249  0.1828
 5333TIP3    H137414   2.245   5.277  15.080 -1.6861 -0.5451 -1.9346
 5333TIP3    H237415   2.142   5.186  15.143 -0.4161  0.1124  1.3098
 5334TIP3   OH237416   4.728   5.212  12.262 -0.6500 -0.3553  0.4104
 5334TIP3    H137417   4.634   5.200  12.246 -0.3648 -1.2290 -0.7948
 5334TIP3    H237418   4.750   5.146  12.328 -0.7498 -0.7124  0.0962
 5335TIP3   OH237419   1.440   4.176   1.947  0.1801  0.0972 -0.2320
 5335TIP3    H137420   1.397   4.141   2.025 -0.0851 -1.5435 -1.0747
 5335TIP3    H237421   1.524   4.209   1.978  0.8358 -2.1401  0.5042
 5336TIP3   OH237422   2.520   2.064  12.378 -0.1595  0.1665  0.2936
 5336TIP3    H137423   2.517   2.159  12.372 -0.7420  0.1117 -0.4200
 5336TIP3    H237424   2.492   2.033  12.292 -1.1763 -0.6569  0.8913
 5337TIP3   OH237425   3.600   0.396  15.959 -0.1091 -0.3066  0.7148
 5337TIP3    H137426   3.519   0.421  16.004 -0.2033  0.4797  0.1202
 5337TIP3    H237427   3.667   0.401  16.027 -0.5710 -1.1629  1.2623
 5338TIP3   OH237428   3.170   1.817   1.314 -0.1389 -0.0298 -0.2920
 5338TIP3    H137429   3.148   1.727   1.336 -2.5011  0.3914 -0.6605
 5338TIP3    H237430   3.117   1.870   1.374  1.5571  1.1471  0.2367
 5339TIP3   OH237431   2.485   6.372   1.876  0.0481 -0.1815  0.4302
 5339TIP3    H137432   2.558   6.370   1.937  0.4446 -0.5133 -0.0471
 5339TIP3    H237433   2.525   6.395   1.792 -0.2376 -1.3826 -0.0486
 5340TIP3   OH237434   0.747   3.346   5.899 -0.5859 -0.0758 -0.1109
 5340TIP3    H137435   0.740   3.338   5.994 -0.3623 -0.1036 -0.0951
 5340TIP3    H237436   0.658   3.331   5.867 -1.1758  2.2433  0.2516
 5341TIP3   OH237437   0.866   2.155  12.637 -0.1982 -0.3274  0.0066
 5341TIP3    H137438   0.855   2.230  12.578 -0.0350  0.5715  1.0993
 5341TIP3    H237439   0.955   2.124  12.620 -0.3395 -0.4270 -0.5993
 5342TIP3   OH237440   2.531   2.220   2.598  0.0697  0.2580  0.1569
 5342TIP3    H137441   2.466   2.169   2.646  1.6342 -1.3168  0.7304
 5342TIP3    H237442   2.610   2.214   2.652  0.5842  2.5800 -0.2256
 5343TIP3   OH237443   2.501   4.945   1.821 -0.4307  0.0294  0.4123
 5343TIP3    H137444   2.523   4.924   1.912 -1.3212  1.0104  0.8815
 5343TIP3    H237445   2.556   4.886   1.768 -1.7223 -2.3501  1.5784
 5344TIP3   OH237446   1.132   6.431  16.977 -0.6938 -0.1401  0.3186
 5344TIP3    H137447   1.204   6.488  17.005  0.0032 -0.1873 -1.2598
 5344TIP3    H237448   1.171   6.345  16.968 -0.0948  0.3492 -3.3599
 5345TIP3   OH237449   5.522   6.353   4.943 -0.6868 -0.1010  0.0664
 5345TIP3    H137450   5.533   6.407   5.021 -0.5370  1.1218 -0.7718
 5345TIP3    H237451   5.590   6.287   4.950 -1.1202 -0.4359  1.3065
 5346TIP3   OH237452   6.173   5.116   5.109 -0.0713 -0.0699 -0.7727
 5346TIP3    H137453   6.163   5.185   5.174  1.7917  0.7098 -1.2394
 5346TIP3    H237454   6.101   5.130   5.048 -1.7911 -0.7607  1.0109
 5347TIP3   OH237455   1.830   6.034  14.454  0.0923 -0.4511 -0.6919
 5347TIP3    H137456   1.840   6.008  14.363  1.5092 -2.1258 -0.1016
 5347TIP3    H237457   1.861   6.125  14.456 -0.9556 -0.0409 -2.0437
 5348TIP3   OH237458   6.183   4.543   0.884 -0.8327  1.0672  0.7546
 5348TIP3    H137459   6.244   4.558   0.956 -1.6207  2.2244  1.2160
 5348TIP3    H237460   6.193   4.619   0.828  0.9910 -0.5833 -1.3292
 5349TIP3   OH237461   4.737   4.473  14.817  0.4816 -0.2941 -0.9344
 5349TIP3    H137462   4.778   4.440  14.896 -1.5013  0.0175  0.2900
 5349TIP3    H237463   4.657   4.421  14.808 -0.2449  0.9056 -1.6868
 5350TIP3   OH237464   4.387   4.088   1.187 -0.4749  0.1281 -0.2289
 5350TIP3    H137465   4.379   4.024   1.115  1.0398 -0.0626 -0.2567
 5350TIP3    H237466   4.396   4.172   1.143  0.4120  0.0157 -0.2868
 5351TIP3   OH237467   5.255   5.876  16.862  0.2676  0.1010 -0.9085
 5351TIP3    H137468   5.242   5.799  16.917  0.0359  0.7689 -0.0166
 5351TIP3    H237469   5.177   5.879  16.806 -1.2112  1.3167  1.0712
 5352TIP3   OH237470   5.715   3.485   5.878 -0.4196  0.0248  0.3025
 5352TIP3    H137471   5.734   3.533   5.959 -0.6428  1.2031 -0.3306
 5352TIP3    H237472   5.633   3.522   5.846 -0.6604 -0.8685 -0.1474
 5353TIP3   OH237473   1.865   0.679  16.670  0.4763 -0.5860  0.6974
 5353TIP3    H137474   1.938   0.731  16.706 -0.0935  0.0561  0.9470
 5353TIP3    H237475   1.786   0.722  16.704 -0.0854 -0.1346 -1.0510
 5354TIP3   OH237476   4.905   1.312  13.687 -0.0233  0.0784 -0.4440
 5354TIP3    H137477   4.879   1.395  13.646  0.3050  1.2462  1.6020
 5354TIP3    H237478   4.822   1.270  13.711 -0.2382 -0.7515 -2.3985
 5355TIP3   OH237479   0.344   4.254   4.066 -0.5791  0.0501 -0.1796
 5355TIP3    H137480   0.334   4.243   3.971  0.6909 -0.0831 -0.3176
 5355TIP3    H237481   0.379   4.170   4.097 -2.3623 -0.4227  0.6539
 5356TIP3   OH237482   4.146   1.092   5.551 -0.4585  0.1633  0.4281
 5356TIP3    H137483   4.068   1.146   5.564 -2.1793 -1.9457 -0.3793
 5356TIP3    H237484   4.161   1.051   5.636 -1.0742 -0.4030  0.2804
 5357TIP3   OH237485   3.733   0.441  12.773 -0.9179  0.0515 -0.8116
 5357TIP3    H137486   3.721   0.466  12.681 -0.4885 -1.2207 -1.2298
 5357TIP3    H237487   3.796   0.369  12.770 -1.1116 -0.1868  0.4583
 5358TIP3   OH237488   4.698   5.356   1.188  0.0464  0.6698 -0.0018
 5358TIP3    H137489   4.650   5.303   1.125 -0.8786  0.2036  1.0619
 5358TIP3    H237490   4.644   5.353   1.268  1.3716  0.9073  0.9319
 5359TIP3   OH237491   1.978   6.055  11.107 -0.0831  0.5315  0.2320
 5359TIP3    H137492   1.934   6.134  11.075 -0.8336 -0.2600 -0.7525
 5359TIP3    H237493   2.071   6.077  11.104 -0.2414  1.1437 -0.7030
 5360TIP3   OH237494   1.855   3.730   2.144 -0.2125  0.3338 -0.0262
 5360TIP3    H137495   1.817   3.756   2.228  1.4661  1.7547  0.3470
 5360TIP3    H237496   1.911   3.803   2.119  0.8333 -0.8874 -1.4350
 5361TIP3   OH237497   4.622   4.284  16.960 -0.1195  0.4618  0.0434
 5361TIP3    H137498   4.699   4.339  16.945 -1.3876  2.2368 -0.2435
 5361TIP3    H237499   4.565   4.337  17.016 -1.6741 -0.2803 -0.7836
 5362TIP3   OH237500   0.426   5.412   6.450 -0.0066  0.0389 -0.1032
 5362TIP3    H137501   0.449   5.468   6.524  1.7882 -0.7704  0.0024
 5362TIP3    H237502   0.410   5.472   6.378  1.9523  0.7529 -0.0111
 5363TIP3   OH237503   2.743   5.560  13.029  0.1328  0.0108 -0.1433
 5363TIP3    H137504   2.767   5.636  13.083  1.1716  0.0947 -0.6859
 5363TIP3    H237505   2.798   5.568  12.951 -0.9517 -0.4094 -0.9681
 5364TIP3   OH237506   3.301   2.096  15.973 -0.4045 -0.0301 -0.1914
 5364TIP3    H137507   3.246   2.045  15.914 -0.5628 -1.7039  1.3136
 5364TIP3    H237508   3.241   2.130  16.040 -0.0131  0.5117 -0.1083
 5365TIP3   OH237509   3.476   3.379   0.434 -0.3928  0.1692 -0.2412
 5365TIP3    H137510   3.400   3.433   0.455  0.5017  0.8967  1.2765
 5365TIP3    H237511   3.470   3.364   0.340 -0.0579  3.9602 -1.0047
 5366TIP3   OH237512   6.169   3.933  11.134  0.0548  0.0450 -0.5697
 5366TIP3    H137513   6.137   3.864  11.191 -2.6280  2.1444  0.6798
 5366TIP3    H237514   6.105   3.938  11.063  0.4180  0.9958 -0.8519
 5367TIP3   OH237515   1.335   4.368  15.162 -0.7203  0.3891  0.3185
 5367TIP3    H137516   1.420   4.344  15.123 -1.5653 -0.6097 -0.9842
 5367TIP3    H237517   1.327   4.310  15.238 -0.0568  0.7814  0.6997
 5368TIP3   OH237518   6.322   0.690  10.566 -0.1238  0.1899  0.3606
 5368TIP3    H137519   6.258   0.759  10.546  0.7214  0.4584 -1.5864
 5368TIP3    H237520   6.406   0.727  10.542  0.6407 -0.6504  1.6470
 5369TIP3   OH237521   2.895   2.802   5.670  0.0961  0.0575 -0.4187
 5369TIP3    H137522   2.965   2.804   5.605 -0.0584 -1.1161 -0.6500
 5369TIP3    H237523   2.816   2.824   5.621 -0.6037 -4.0401 -1.5154
 5370TIP3   OH237524   3.281   3.274  16.223 -0.0833 -0.0835  0.7766
 5370TIP3    H137525   3.256   3.332  16.294  2.0499  3.7803 -1.3405
 5370TIP3    H237526   3.262   3.323  16.143  0.9209 -2.7431 -1.2600
 5371TIP3   OH237527   0.041   4.587  15.725 -0.0329 -0.0109  0.1211
 5371TIP3    H137528  -0.004   4.502  15.725 -0.1716  0.0632 -0.0328
 5371TIP3    H237529   0.037   4.616  15.635  1.0880 -0.4109 -0.0780
 5372TIP3   OH237530   3.824   2.863  16.860  0.7705 -0.4710  0.6186
 5372TIP3    H137531   3.729   2.866  16.871  0.6715 -1.1066  0.0146
 5372TIP3    H237532   3.838   2.885  16.768  1.2443  0.0933  0.8196
 5373TIP3   OH237533   2.343   4.802   0.123  0.5396  0.0561  0.2118
 5373TIP3    H137534   2.374   4.831   0.209  1.0065  0.2195 -0.0050
 5373TIP3    H237535   2.396   4.852   0.061  0.0966  0.0572 -0.1724
 5374TIP3   OH237536   4.627   5.516  10.440  0.1016  0.0889  0.0003
 5374TIP3    H137537   4.603   5.456  10.510 -2.1431  2.8645  1.8448
 5374TIP3    H237538   4.704   5.562  10.472 -1.7574  2.3794  1.4965
 5375TIP3   OH237539   1.431   1.767   5.588 -0.3183 -0.1179  0.0553
 5375TIP3    H137540   1.479   1.819   5.653  1.3015 -1.1056 -0.2775
 5375TIP3    H237541   1.353   1.818   5.569 -0.4751  0.5613  2.2248
 5376TIP3   OH237542   5.487   6.240   4.020  0.0337  0.7178  0.4968
 5376TIP3    H137543   5.558   6.301   4.043 -0.0813  1.3895 -0.8640
 5376TIP3    H237544   5.421   6.295   3.979 -0.7483 -0.1070  0.6303
 5377TIP3   OH237545   0.113   5.379  11.771 -0.0586 -0.4765  0.1713
 5377TIP3    H137546   0.092   5.379  11.864  0.3894 -2.0177  0.2991
 5377TIP3    H237547   0.203   5.413  11.767 -0.3026  0.1977  0.2196
 5378TIP3   OH237548   5.051   6.022   2.649 -0.0500 -0.2921 -0.3585
 5378TIP3    H137549   5.034   5.928   2.654 -0.5772 -0.1964 -0.3033
 5378TIP3    H237550   4.991   6.054   2.582 -1.8119  0.4357  1.4623
 5379TIP3   OH237551   5.429   4.913   1.316  0.0561 -0.0862 -0.1876
 5379TIP3    H137552   5.479   4.977   1.368  1.3396 -0.7971 -0.5003
 5379TIP3    H237553   5.406   4.960   1.236  0.3426  0.2208 -0.0925
 5380TIP3   OH237554   1.221   0.548  15.359  0.0125  0.3048  0.5450
 5380TIP3    H137555   1.274   0.513  15.430  0.0568 -0.4217  0.1547
 5380TIP3    H237556   1.269   0.525  15.279  0.3240  1.7108  0.2892
 5381TIP3   OH237557   0.588   3.142   6.284 -0.2479 -0.3632  0.1482
 5381TIP3    H137558   0.556   3.100   6.204 -0.0607 -0.7912  0.3003
 5381TIP3    H237559   0.533   3.107   6.354 -1.0895  0.7686  0.0901
 5382TIP3   OH237560   4.010   4.642   4.084 -0.0063  0.3021  0.3091
 5382TIP3    H137561   4.052   4.707   4.140  0.8158 -1.3465  1.7292
 5382TIP3    H237562   4.082   4.596   4.042 -0.5871  0.6891 -1.1691
 5383TIP3   OH237563   2.806   1.375  16.125 -0.2198 -0.0289 -0.3688
 5383TIP3    H137564   2.878   1.437  16.115 -1.3516  1.0758 -2.5436
 5383TIP3    H237565   2.844   1.290  16.104  0.8097  0.2619  0.2519
 5384TIP3   OH237566   1.765   4.878   4.335 -0.5596  0.1936 -0.1398
 5384TIP3    H137567   1.700   4.948   4.331 -0.6995  0.0210 -2.4764
 5384TIP3    H237568   1.751   4.828   4.254  0.7709 -1.4096  0.5609
 5385TIP3   OH237569   1.001   0.742   5.639  0.2037 -0.2789 -0.3408
 5385TIP3    H137570   0.962   0.829   5.654  0.6566  0.1271 -1.4229
 5385TIP3    H237571   1.013   0.706   5.727  0.7962  1.1141  0.1766
 5386TIP3   OH237572   1.560   0.536  15.353 -0.6968  0.1990  0.4829
 5386TIP3    H137573   1.510   0.611  15.319  0.2028  0.1874 -0.9489
 5386TIP3    H237574   1.516   0.460  15.316  0.5701  0.2046 -1.1392
 5387TIP3   OH237575   2.969   3.447  15.519  0.4391  0.1494 -0.3556
 5387TIP3    H137576   2.920   3.471  15.597  0.4783 -0.3434 -0.1732
 5387TIP3    H237577   3.061   3.463  15.541  0.3944  0.7502 -0.5792
 5388TIP3   OH237578   1.714   2.937   0.417 -0.1344  0.6398  0.6832
 5388TIP3    H137579   1.639   2.996   0.406  0.1495  0.9290  0.2861
 5388TIP3    H237580   1.744   2.919   0.328 -1.3637 -1.6224  0.6576
 5389TIP3   OH237581   6.393   6.465   4.221 -0.9692 -0.7007  0.0293
 5389TIP3    H137582   6.468   6.406   4.218  1.6517  2.2273  1.8648
 5389TIP3    H237583   6.351   6.455   4.135  3.3419 -0.3631 -2.4117
 5390TIP3   OH237584   6.511   1.111  13.139 -0.3178 -0.1835 -0.1838
 5390TIP3    H137585   6.425   1.150  13.122 -0.0382  1.0004  1.0038
 5390TIP3    H237586   6.504   1.077  13.228  1.0430  1.7131  0.7008
 5391TIP3   OH237587   6.125   0.491  17.175 -0.0513 -0.4591 -0.1167
 5391TIP3    H137588   6.037   0.509  17.207  0.4345 -0.3963  1.2697
 5391TIP3    H237589   6.125   0.398  17.154 -0.4516 -0.4567 -0.1264
 5392TIP3   OH237590   3.996   6.682   1.111  0.2307  0.1931 -0.2404
 5392TIP3    H137591   3.959   6.709   1.195  2.3710 -2.5975  1.8063
 5392TIP3    H237592   4.074   6.738   1.100 -0.9628  1.7270 -1.3381
 5393TIP3   OH237593   0.308   2.457  10.735  0.1806 -0.0141 -0.5146
 5393TIP3    H137594   0.228   2.406  10.721 -0.7377  1.1644  0.2975
 5393TIP3    H237595   0.320   2.457  10.830  0.9984  0.0699 -0.6104
 5394TIP3   OH237596   5.090   4.292   5.124  0.7791  0.4890 -0.5649
 5394TIP3    H137597   5.067   4.377   5.162  2.0266  0.7527 -0.3461
 5394TIP3    H237598   5.008   4.243   5.123 -0.3347  2.2186 -2.1129
 5395TIP3   OH237599   2.149   4.015   4.699 -0.1325  0.8395  0.2086
 5395TIP3    H137600   2.178   3.989   4.612 -2.4458  2.1771 -1.0644
 5395TIP3    H237601   2.118   3.934   4.739 -0.3561  0.4202 -0.7854
 5396TIP3   OH237602   4.795   3.530  16.696 -0.2764 -0.5714  0.0663
 5396TIP3    H137603   4.830   3.450  16.736  0.0658  0.2754  1.5275
 5396TIP3    H237604   4.775   3.587  16.770  2.1162  1.7905 -0.9354
 5397TIP3   OH237605   0.943   5.324  16.832 -0.2291 -0.5194  0.2431
 5397TIP3    H137606   0.961   5.288  16.919  1.0322 -1.1621 -0.2575
 5397TIP3    H237607   0.954   5.418  16.842 -0.0066 -0.5981  0.7771
 5398TIP3   OH237608   0.338   4.916  11.143 -0.0967  0.3815 -0.2549
 5398TIP3    H137609   0.245   4.938  11.136 -0.3326 -0.2587  0.7159
 5398TIP3    H237610   0.382   4.982  11.089 -1.2508 -0.4881 -2.4024
 5399TIP3   OH237611   0.050   6.171  12.873  0.2007  0.1562  0.0595
 5399TIP3    H137612  -0.020   6.221  12.832 -2.0218 -2.2901  0.6007
 5399TIP3    H237613   0.120   6.170  12.807 -1.2483  0.5857 -1.5784
 5400TIP3   OH237614   3.172   6.019  14.405  0.1668  0.8562  0.2910
 5400TIP3    H137615   3.155   6.104  14.364 -0.2932  0.7855  0.3271
 5400TIP3    H237616   3.184   6.040  14.498 -0.3226  0.8416  0.3609
 5401TIP3   OH237617   0.804   5.302   5.013 -0.1523  0.2490  0.0090
 5401TIP3    H137618   0.857   5.382   5.021 -0.5956  0.4812  0.7004
 5401TIP3    H237619   0.714   5.331   5.029 -0.4677 -0.1844 -0.9217
 5402TIP3   OH237620   1.403   5.429   0.209 -0.1541 -0.5473 -0.3274
 5402TIP3    H137621   1.495   5.454   0.210 -0.2440  0.0713 -2.6008
 5402TIP3    H237622   1.385   5.400   0.298  2.1804 -0.5136  0.2085
 5403TIP3   OH237623   4.039   5.605  17.105  0.0453 -0.4350 -0.0361
 5403TIP3    H137624   3.966   5.652  17.146 -0.2209 -1.0049  0.1458
 5403TIP3    H237625   4.085   5.563  17.177  1.0143  0.5349 -0.0634
 5404TIP3   OH237626   0.709   2.580   5.678  0.1175  0.2153 -0.3369
 5404TIP3    H137627   0.689   2.630   5.758  1.2577  0.6176 -0.2909
 5404TIP3    H237628   0.642   2.512   5.676  0.1620  0.0902  1.0628
 5405TIP3   OH237629   5.029   4.428   2.545 -0.4423 -0.3085  0.0174
 5405TIP3    H137630   5.038   4.423   2.640  3.2572  0.1178 -0.1562
 5405TIP3    H237631   4.981   4.348   2.521  0.9131 -1.8441  2.0819
 5406TIP3   OH237632   2.166   5.450   3.085 -0.1605  0.0500 -0.5300
 5406TIP3    H137633   2.125   5.491   3.009  0.4620  0.3255 -0.7265
 5406TIP3    H237634   2.179   5.521   3.147 -0.0604 -0.0510 -0.4341
 5407TIP3   OH237635   3.997   1.942  11.753  0.2678  0.2049 -0.3654
 5407TIP3    H137636   4.017   1.915  11.842 -0.3944 -0.6590 -0.4685
 5407TIP3    H237637   4.011   2.037  11.753  1.1221  0.0940  0.4126
 5408TIP3   OH237638   3.274   1.970   5.548  0.2249  0.0569 -0.2445
 5408TIP3    H137639   3.201   2.029   5.567 -0.6338 -0.5173 -1.6024
 5408TIP3    H237640   3.244   1.917   5.474  2.4616  0.6519 -1.7024
 5409TIP3   OH237641   5.087   2.721  15.959  0.2426 -0.2945  0.3779
 5409TIP3    H137642   5.146   2.795  15.945 -1.1937  1.0527  1.1931
 5409TIP3    H237643   5.134   2.646  15.922  1.2237  1.2064 -1.5900
 5410TIP3   OH237644   1.532   0.583   4.487  0.0904  0.0984 -0.0190
 5410TIP3    H137645   1.531   0.658   4.546  0.3642 -0.0015  0.1163
 5410TIP3    H237646   1.501   0.510   4.540 -1.9731  0.4625 -0.6554
 5411TIP3   OH237647   5.110   0.931  14.193  0.0700 -0.2737  0.3078
 5411TIP3    H137648   5.029   0.881  14.182  0.7514 -1.2559 -0.4160
 5411TIP3    H237649   5.136   0.913  14.284 -1.0579  0.9148  0.8980
 5412TIP3   OH237650   4.492   1.895  12.292 -0.5474  0.2354  0.1178
 5412TIP3    H137651   4.436   1.868  12.219 -1.5449 -0.4207  1.0936
 5412TIP3    H237652   4.432   1.927  12.359  0.3143  0.4300  0.8297
 5413TIP3   OH237653   3.339   1.836   3.958  0.4940 -0.1121 -0.4780
 5413TIP3    H137654   3.293   1.782   4.022  0.2107  0.8295  0.1283
 5413TIP3    H237655   3.430   1.807   3.964  0.3916 -0.3429  0.0289
 5414TIP3   OH237656   2.954   0.441  14.375 -0.2534 -0.3801  0.4787
 5414TIP3    H137657   2.886   0.497  14.412 -0.1221 -0.5800  1.0229
 5414TIP3    H237658   2.931   0.352  14.403  0.8715 -0.3192  1.6690
 5415TIP3   OH237659   4.499   1.039   2.460 -0.0367 -0.1399 -0.2347
 5415TIP3    H137660   4.444   1.031   2.383 -2.6928  0.9843  1.4198
 5415TIP3    H237661   4.463   0.976   2.522  1.7830 -0.7277  0.3042
 5416TIP3   OH237662   4.385   5.309   5.970 -0.6848  0.0072 -0.0522
 5416TIP3    H137663   4.451   5.326   6.037 -0.8458 -0.3216  0.1901
 5416TIP3    H237664   4.428   5.335   5.888  0.6525 -2.4180 -0.2093
 5417TIP3   OH237665   6.173   6.156   4.089  0.4188 -0.0026 -0.5356
 5417TIP3    H137666   6.265   6.170   4.110 -0.0150  1.4729  0.6074
 5417TIP3    H237667   6.172   6.078   4.034  2.2818 -0.3914 -0.0899
 5418TIP3   OH237668   3.730   6.645   0.286  0.3311 -0.4313  1.1175
 5418TIP3    H137669   3.710   6.640   0.192 -1.2033 -0.0211  1.3825
 5418TIP3    H237670   3.746   6.555   0.312 -0.1177 -0.6682  0.6179
 5419TIP3   OH237671   2.325   3.710  16.405  0.6894  0.1458  0.0041
 5419TIP3    H137672   2.251   3.758  16.366  0.7731  0.0301 -0.2963
 5419TIP3    H237673   2.398   3.771  16.402  0.7826  0.0184 -0.3310
 5420TIP3   OH237674   1.754   4.581   0.754 -0.3033  0.2149  0.0504
 5420TIP3    H137675   1.742   4.505   0.696  0.7303  0.9692 -1.2210
 5420TIP3    H237676   1.792   4.648   0.697  0.0414  1.2516  1.4523
 5421TIP3   OH237677   5.295   3.746  17.185  0.7024 -0.5233  0.6237
 5421TIP3    H137678   5.259   3.686  17.119  1.6133 -0.0017 -0.3770
 5421TIP3    H237679   5.219   3.798  17.213  0.6552  0.8682 -1.7772
 5422TIP3   OH237680   1.923   6.310   4.526 -0.3461  0.3725 -0.2003
 5422TIP3    H137681   1.838   6.312   4.484 -0.1043 -0.2230 -0.7352
 5422TIP3    H237682   1.979   6.260   4.466  0.4850  1.1006 -0.0596
 5423TIP3   OH237683   2.049   0.247   5.238 -0.2511  0.3574  0.1209
 5423TIP3    H137684   2.079   0.225   5.327 -1.1515 -1.6463 -0.0178
 5423TIP3    H237685   1.968   0.197   5.227 -0.7847  1.4970 -1.4244
 5424TIP3   OH237686   6.235   4.961   3.900  0.0708  0.0072 -0.3788
 5424TIP3    H137687   6.248   5.039   3.846  1.9107  0.6250  0.8586
 5424TIP3    H237688   6.285   4.892   3.857  1.4440  0.4703  0.4319
 5425TIP3   OH237689   3.698   4.673  11.526 -0.0079 -0.0159 -0.2298
 5425TIP3    H137690   3.604   4.680  11.546 -0.1399 -1.8269 -0.0219
 5425TIP3    H237691   3.741   4.680  11.611 -0.1203 -1.1255 -0.0593
 5426TIP3   OH237692   3.384   3.543   2.666  0.0325 -0.1285 -0.5610
 5426TIP3    H137693   3.312   3.587   2.711 -0.2522 -0.5377 -0.6118
 5426TIP3    H237694   3.397   3.461   2.714  0.4902 -0.0374 -0.5268
 5427TIP3   OH237695   3.124   0.175   3.466 -0.0154  0.7101  0.7152
 5427TIP3    H137696   3.174   0.125   3.401  1.0869  2.0058  0.5097
 5427TIP3    H237697   3.039   0.189   3.424 -0.1649 -0.5052  0.5682
 5428TIP3   OH237698   5.409   5.979  16.128  0.2331  0.2642  0.8389
 5428TIP3    H137699   5.502   5.978  16.148  0.4232 -0.4916 -0.0470
 5428TIP3    H237700   5.367   5.956  16.211  0.9037 -0.8190  0.8907
 5429TIP3   OH237701   2.123   0.524  14.781 -0.1788 -0.3827 -0.0767
 5429TIP3    H137702   2.189   0.454  14.782  1.2567  0.9019  1.5331
 5429TIP3    H237703   2.146   0.577  14.705 -0.1517 -0.6646 -0.2655
 5430TIP3   OH237704   6.656   3.282   1.871 -0.1930 -0.1336 -0.3374
 5430TIP3    H137705   6.632   3.362   1.824  0.1373 -0.4624 -1.0814
 5430TIP3    H237706   6.724   3.242   1.817  1.0939  0.1064  1.0538
 5431TIP3   OH237707   2.225   6.446   1.915  0.0965 -0.4063 -0.1538
 5431TIP3    H137708   2.312   6.435   1.878  0.8755  0.1870  1.3783
 5431TIP3    H237709   2.188   6.521   1.868  0.3061 -0.8217 -0.9876
 5432TIP3   OH237710   2.362   1.235   1.766 -0.0212 -0.3718 -0.2494
 5432TIP3    H137711   2.365   1.254   1.860  1.9691 -2.0958  0.1249
 5432TIP3    H237712   2.377   1.319   1.724 -2.9465  0.8204  0.8466
 5433TIP3   OH237713   5.544   5.308  13.107  0.0875  0.3431  0.1700
 5433TIP3    H137714   5.456   5.346  13.099 -0.2565 -0.0690  1.7894
 5433TIP3    H237715   5.560   5.303  13.201  2.3042  1.4303 -0.0769
 5434TIP3   OH237716   1.154   2.571  13.036 -0.7911 -0.0004 -0.5804
 5434TIP3    H137717   1.167   2.665  13.046 -0.7747  0.1079 -1.5485
 5434TIP3    H237718   1.078   2.552  13.091 -1.2066  0.6962 -0.9009
 5435TIP3   OH237719   5.489   3.016  16.980 -0.0210  0.1322  0.1971
 5435TIP3    H137720   5.509   2.923  16.988  0.4547  0.3455  1.7267
 5435TIP3    H237721   5.402   3.026  17.020 -1.4643 -0.0843 -2.5968
 5436TIP3   OH237722   0.535   6.590   6.557 -0.7327  1.0312 -0.2124
 5436TIP3    H137723   0.604   6.544   6.509 -1.2458 -1.2171  1.0797
 5436TIP3    H237724   0.454   6.550   6.526 -1.1509  0.5104  1.4550
 5437TIP3   OH237725   0.530   4.313  15.573 -0.0109  0.0669 -0.1362
 5437TIP3    H137726   0.455   4.347  15.621  0.3868  0.2723  0.3477
 5437TIP3    H237727   0.527   4.218  15.587 -0.4713  0.0162 -0.5482
 5438TIP3   OH237728   6.262   3.371   0.285  0.0674  0.6939 -0.0984
 5438TIP3    H137729   6.179   3.383   0.239  0.6243 -0.5278 -1.5194
 5438TIP3    H237730   6.327   3.412   0.229  0.4994  1.2098  0.7619
 5439TIP3   OH237731   6.538   2.124  11.960 -0.2731 -0.4598 -0.1082
 5439TIP3    H137732   6.498   2.158  12.040  0.7833  0.1318  0.1844
 5439TIP3    H237733   6.617   2.079  11.990  0.5792  0.4774 -0.8668
 5440TIP3   OH237734   0.681   4.601   6.336  0.6420 -0.5433 -0.1565
 5440TIP3    H137735   0.692   4.506   6.337  1.9500 -0.4066  0.0452
 5440TIP3    H237736   0.682   4.626   6.429 -1.4403 -0.4948 -0.1186
 5441TIP3   OH237737   6.412   4.043   0.860 -0.0947 -0.3695  0.1793
 5441TIP3    H137738   6.403   3.974   0.926 -0.4305  0.9929  1.6260
 5441TIP3    H237739   6.506   4.063   0.859 -0.1981  0.1433  0.8117
 5442TIP3   OH237740   2.341   4.051   0.019  0.0760  0.3344  0.1741
 5442TIP3    H137741   2.372   3.961   0.015 -1.2727 -0.1761  0.6898
 5442TIP3    H237742   2.296   4.064  -0.065  0.5467  0.6554 -0.0379
 5443TIP3   OH237743   5.771   5.794  13.991  0.0504 -0.0881 -0.0367
 5443TIP3    H137744   5.808   5.733  14.055  0.0247  0.9221  0.9833
 5443TIP3    H237745   5.787   5.880  14.029 -2.0064  0.4543 -0.2678
 5444TIP3   OH237746   3.548   1.822   3.384 -0.4368  0.6064 -0.0908
 5444TIP3    H137747   3.529   1.871   3.304 -0.6478  1.9221  0.7334
 5444TIP3    H237748   3.496   1.866   3.451  0.6472  0.2674  0.9897
 5445TIP3   OH237749   2.473   0.426   0.139  0.4532  0.2431 -0.4524
 5445TIP3    H137750   2.413   0.495   0.111  1.0994  0.0918 -2.3585
 5445TIP3    H237751   2.529   0.410   0.063  0.5399 -2.1658  0.0403
 5446TIP3   OH237752   6.328   4.899  14.763  0.9277  0.2735 -0.1712
 5446TIP3    H137753   6.311   4.815  14.804  0.0538 -0.7791 -2.4924
 5446TIP3    H237754   6.393   4.879  14.695  0.9597  1.5377 -0.5359
 5447TIP3   OH237755   2.908   4.469  14.551  0.6570 -0.1141 -0.2200
 5447TIP3    H137756   2.884   4.562  14.555  0.7557 -0.1233  0.5992
 5447TIP3    H237757   2.962   4.462  14.472 -1.5816 -0.0067 -1.8399
 5448TIP3   OH237758   1.671   5.209   3.153  0.1223  0.1971  0.0009
 5448TIP3    H137759   1.716   5.171   3.229  1.5242 -2.0913 -1.8216
 5448TIP3    H237760   1.580   5.180   3.162  0.2795 -0.0778  0.7721
 5449TIP3   OH237761   3.603   4.073   5.886 -0.3561  1.7385  0.0406
 5449TIP3    H137762   3.696   4.074   5.863 -0.6760  0.8139 -1.4169
 5449TIP3    H237763   3.601   4.088   5.980  1.5783 -2.5371  1.0032
 5450TIP3   OH237764   1.571   3.293  14.162 -0.3607  0.4815  0.2188
 5450TIP3    H137765   1.652   3.272  14.208 -0.5036 -0.3675  0.0957
 5450TIP3    H237766   1.598   3.348  14.089  0.0805  0.3167  0.2562
 5451TIP3   OH237767   3.866   1.039  12.193  0.6055  0.0557  0.2451
 5451TIP3    H137768   3.815   1.001  12.122  3.9523 -0.6015 -2.0273
 5451TIP3    H237769   3.934   0.974  12.212  2.1206  1.8613  1.3684
 5452TIP3   OH237770   5.954   0.431  12.195 -0.1648 -0.3114 -0.3689
 5452TIP3    H137771   5.879   0.393  12.242  0.6390  0.2244  1.4562
 5452TIP3    H237772   5.917   0.507  12.150 -0.6302  0.3919  1.1161
 5453TIP3   OH237773   4.675   0.910  13.633 -0.1888 -0.1559  0.2355
 5453TIP3    H137774   4.618   0.914  13.557  0.0674 -0.3992  0.0298
 5453TIP3    H237775   4.737   0.840  13.614 -2.0536 -2.4877  2.0069
 5454TIP3   OH237776   3.885   2.805   5.143 -0.2659 -0.2216 -0.5085
 5454TIP3    H137777   3.883   2.896   5.116 -2.6224 -0.3041 -0.8112
 5454TIP3    H237778   3.813   2.796   5.206 -0.2616 -1.9264 -0.6860
 5455TIP3   OH237779   3.491   3.862  13.436 -0.2168  0.2387 -0.2362
 5455TIP3    H137780   3.488   3.798  13.364  0.4791  0.0129 -0.0686
 5455TIP3    H237781   3.511   3.810  13.514  1.6944  0.7827 -0.2977
 5456TIP3   OH237782   5.589   1.633  11.593 -0.1695  0.1455  0.5230
 5456TIP3    H137783   5.509   1.684  11.602 -0.6593 -0.5087  0.0542
 5456TIP3    H237784   5.587   1.573  11.668  1.2323  1.8491  2.0137
 5457TIP3   OH237785   4.594   0.357   0.395  0.0339  0.3420 -0.5877
 5457TIP3    H137786   4.555   0.313   0.320 -0.9386 -2.4115  1.3848
 5457TIP3    H237787   4.682   0.321   0.402 -1.0521 -2.2340  1.5427
 5458TIP3   OH237788   5.844   4.611  16.840  0.3172  0.2398 -0.2061
 5458TIP3    H137789   5.766   4.660  16.814 -0.6197 -0.4778  1.1117
 5458TIP3    H237790   5.868   4.561  16.762 -1.1145 -0.2464 -0.3534
 5459TIP3   OH237791   0.196   5.234  11.398  0.1353 -0.0795  0.1619
 5459TIP3    H137792   0.262   5.295  11.364  0.1717 -0.4072 -0.3652
 5459TIP3    H237793   0.229   5.209  11.484  1.7302 -1.7661 -0.8763
 5460TIP3   OH237794   4.872   0.873  14.016  0.3688  0.2748  0.4651
 5460TIP3    H137795   4.882   0.918  13.932  1.5204 -1.5453 -0.4306
 5460TIP3    H237796   4.786   0.900  14.047  0.3295  1.7705 -0.8173
 5461TIP3   OH237797   3.097   2.721   3.691  0.8723 -0.2555 -0.6687
 5461TIP3    H137798   3.083   2.805   3.646  2.4211  0.2386 -0.2849
 5461TIP3    H237799   3.157   2.742   3.763  0.5091 -1.5203  0.0350
 5462TIP3   OH237800   6.501   2.333   2.750  0.0658 -0.1054 -0.1247
 5462TIP3    H137801   6.411   2.309   2.726  0.4419 -1.2163 -0.5219
 5462TIP3    H237802   6.526   2.399   2.686 -0.2706 -0.2247 -0.3823
 5463TIP3   OH237803   0.956   4.904   5.837  0.7491  0.6598  0.0479
 5463TIP3    H137804   0.896   4.859   5.777 -0.3713  0.9982  0.8671
 5463TIP3    H237805   1.026   4.937   5.782 -0.3761  1.1761 -1.1153
 5464TIP3   OH237806   1.717   0.624   2.468 -0.3701  0.0301 -0.4276
 5464TIP3    H137807   1.748   0.670   2.546  0.1745 -1.0162 -0.0083
 5464TIP3    H237808   1.661   0.687   2.423 -0.9930  0.5267  0.9958
 5465TIP3   OH237809   4.218   4.385   5.651 -0.1358 -0.8536 -0.7499
 5465TIP3    H137810   4.124   4.372   5.664 -0.5328  2.1716  0.0680
 5465TIP3    H237811   4.259   4.335   5.721 -1.2869 -0.2985  0.3532
 5466TIP3   OH237812   5.357   2.486  12.828  0.0194 -0.4799 -0.1631
 5466TIP3    H137813   5.345   2.448  12.741 -1.0293 -0.9907  0.1900
 5466TIP3    H237814   5.269   2.505  12.859  0.4533  2.2719 -0.3009
 5467TIP3   OH237815   5.877   2.088  12.916 -0.5032  0.0233 -0.1117
 5467TIP3    H137816   5.839   2.099  13.003  0.2275 -0.0345  0.2235
 5467TIP3    H237817   5.818   2.028  12.872 -0.6066 -0.3553  0.5245
 5468TIP3   OH237818   3.708   5.418   1.697  0.3388  0.4864 -0.1481
 5468TIP3    H137819   3.694   5.513   1.691 -0.9955  0.3190  0.1563
 5468TIP3    H237820   3.735   5.404   1.788  1.6358  0.6842 -0.4760
 5469TIP3   OH237821   0.528   2.187   0.781  0.3039  0.0651 -0.4278
 5469TIP3    H137822   0.520   2.240   0.860  1.6036  0.0535 -0.2637
 5469TIP3    H237823   0.470   2.112   0.796 -0.9601  1.0290 -0.3432
 5470TIP3   OH237824   1.345   0.656   2.855 -0.6774  0.0106 -0.5316
 5470TIP3    H137825   1.413   0.602   2.814 -1.1527 -0.3478 -0.8498
 5470TIP3    H237826   1.394   0.714   2.914 -0.0718 -0.0937 -0.9165
 5471TIP3   OH237827   2.562   1.116   2.047  0.1433  0.0910 -0.1050
 5471TIP3    H137828   2.606   1.105   2.132  2.0011  1.0831 -0.8965
 5471TIP3    H237829   2.500   1.187   2.061 -0.4520 -0.5719  0.7328
 5472TIP3   OH237830   0.284   5.887   4.679  0.9570 -0.2260  0.0051
 5472TIP3    H137831   0.325   5.883   4.765  2.8674 -2.3083 -0.8990
 5472TIP3    H237832   0.239   5.971   4.678  3.4098  1.2715  1.9410
 5473TIP3   OH237833   0.594   1.392   3.050 -0.4737  0.3109  0.0231
 5473TIP3    H137834   0.593   1.335   3.127  0.1309  1.1692  0.6974
 5473TIP3    H237835   0.685   1.421   3.043 -0.8818  1.7034  0.1067
 5474TIP3   OH237836   0.673   3.821  14.390 -0.1642  0.4317  0.2720
 5474TIP3    H137837   0.748   3.804  14.333 -0.1386  1.7927 -0.1420
 5474TIP3    H237838   0.623   3.739  14.390  0.2512  0.1609 -1.0842
 5475TIP3   OH237839   0.074   6.785  12.538 -0.4509  0.3625 -0.2117
 5475TIP3    H137840   0.139   6.825  12.596 -0.3184 -1.3344  0.8806
 5475TIP3    H237841   0.099   6.816  12.450  0.8800  0.9942  0.3562
 5476TIP3   OH237842   2.863   4.535   4.180  0.0918  0.5320 -0.2827
 5476TIP3    H137843   2.886   4.492   4.097 -0.8235  0.2996 -0.4321
 5476TIP3    H237844   2.945   4.542   4.227  0.4193 -0.5302 -0.6681
 5477TIP3   OH237845   5.675   4.539  15.863  0.4247 -0.3909 -0.6426
 5477TIP3    H137846   5.615   4.466  15.845  0.6542 -0.6732 -0.2780
 5477TIP3    H237847   5.639   4.612  15.813 -1.4972  0.0566  1.2481
 5478TIP3   OH237848   5.767   3.991  15.585  0.2057 -0.2069 -0.6197
 5478TIP3    H137849   5.735   3.972  15.673  0.8446  0.7015 -0.1760
 5478TIP3    H237850   5.822   3.917  15.563  0.9006  0.0624  0.1865
 5479TIP3   OH237851   2.144   3.769   3.732  0.1972 -0.1408 -0.7409
 5479TIP3    H137852   2.145   3.754   3.826 -2.6804 -0.9000 -0.7444
 5479TIP3    H237853   2.118   3.685   3.694  0.3469  0.4187 -2.1486
 5480TIP3   OH237854   4.933   2.579   1.958  0.2044 -0.4075 -0.4426
 5480TIP3    H137855   4.891   2.612   1.879  0.9654 -1.0876 -1.1610
 5480TIP3    H237856   4.966   2.492   1.933 -0.4592 -1.0948  0.9367
 5481TIP3   OH237857   4.538   5.994  11.715 -0.1447 -0.4292  0.1245
 5481TIP3    H137858   4.596   6.070  11.721  0.8075 -1.1642  0.4552
 5481TIP3    H237859   4.477   6.004  11.788  0.0325 -0.0169  0.2160
 5482TIP3   OH237860   0.802   2.955  14.104  0.0729  0.8442  0.7477
 5482TIP3    H137861   0.731   3.015  14.127 -1.6035 -1.2754  1.5817
 5482TIP3    H237862   0.822   2.909  14.186 -0.9791 -1.8865 -0.4055
 5483TIP3   OH237863   6.005   0.327   5.768 -0.2135  0.2174 -0.9643
 5483TIP3    H137864   5.941   0.398   5.777 -1.0187 -0.6685  0.7622
 5483TIP3    H237865   6.063   0.336   5.843 -0.0766 -0.6863 -0.9442
 5484TIP3   OH237866   3.318   5.611  12.395  0.5090 -0.5140 -0.5211
 5484TIP3    H137867   3.269   5.639  12.317  0.8664 -0.7215 -0.8275
 5484TIP3    H237868   3.379   5.683  12.412  1.8433 -1.2949 -1.6656
 5485TIP3   OH237869   3.654   4.537   0.417  0.6058 -0.7109 -0.2904
 5485TIP3    H137870   3.739   4.574   0.394  0.4429 -0.0060  0.2307
 5485TIP3    H237871   3.669   4.491   0.500 -0.1536  1.9817  1.4494
 5486TIP3   OH237872   1.539   4.658  11.589  0.2704 -0.1921  0.1221
 5486TIP3    H137873   1.542   4.751  11.614  0.8620 -0.0418 -0.4491
 5486TIP3    H237874   1.607   4.617  11.642  0.3107 -0.2057  0.0614
 5487TIP3   OH237875   4.029   4.483  16.462 -0.3011  0.0589  0.2326
 5487TIP3    H137876   4.037   4.501  16.368 -0.6899  1.8890  0.4950
 5487TIP3    H237877   4.108   4.435  16.485  0.6837  1.1469 -0.7293
 5488TIP3   OH237878   5.075   6.410   5.217  0.0523  0.2064 -0.5721
 5488TIP3    H137879   5.169   6.424   5.226  0.1600  0.1701 -1.5612
 5488TIP3    H237880   5.067   6.323   5.178 -0.4015  0.1822 -0.4354
 5489TIP3   OH237881   0.959   5.581  16.760 -0.3795 -0.2211 -0.1512
 5489TIP3    H137882   0.988   5.672  16.755  1.5705 -0.8401 -1.1460
 5489TIP3    H237883   0.926   5.561  16.673 -1.2695 -0.3403  0.2038
 5490TIP3   OH237884   2.054   4.132  11.992 -0.0395  0.4764 -0.0908
 5490TIP3    H137885   2.081   4.104  11.904 -0.0134  1.0235 -0.2675
 5490TIP3    H237886   2.042   4.227  11.983  2.9113  1.0894  1.1976
 5491TIP3   OH237887   5.130   1.763   4.666  0.2808 -0.4150  0.5669
 5491TIP3    H137888   5.124   1.842   4.612 -1.0299 -0.2034  0.9849
 5491TIP3    H237889   5.208   1.718   4.635  1.3255  1.2724  0.6300
 5492TIP3   OH237890   0.394   6.610  14.324  0.1331 -0.0370 -0.0445
 5492TIP3    H137891   0.358   6.565  14.400  0.3686  0.5162  0.4069
 5492TIP3    H237892   0.319   6.657  14.286  0.1770  0.3320  0.3209
 5493TIP3   OH237893   3.548   1.689  14.693  0.0993  0.6910 -0.0879
 5493TIP3    H137894   3.589   1.756  14.747 -0.6030  0.2543  1.0344
 5493TIP3    H237895   3.577   1.708  14.604 -0.7309  2.9973  0.0704
 5494TIP3   OH237896   5.962   1.026  16.500  0.1149 -0.4044 -0.0249
 5494TIP3    H137897   5.923   0.939  16.495  0.0616 -0.3066 -1.6937
 5494TIP3    H237898   6.052   1.011  16.530  0.5553 -1.1784 -1.6641
 5495TIP3   OH237899   0.072   0.718   1.551 -0.3597  0.0689  0.0365
 5495TIP3    H137900  -0.019   0.710   1.581  0.3077 -1.1320  1.9066
 5495TIP3    H237901   0.119   0.650   1.599  1.4235  0.1981 -1.4211
 5496TIP3   OH237902   0.596   3.935  10.677  0.1201  0.8337 -0.2279
 5496TIP3    H137903   0.691   3.938  10.686 -0.0125  0.7411  1.4013
 5496TIP3    H237904   0.566   4.016  10.718 -0.4772  1.2890 -1.5024
 5497TIP3   OH237905   3.125   2.583  15.576 -0.1382  0.6600 -0.3994
 5497TIP3    H137906   3.036   2.600  15.547  0.0596 -0.4087 -1.7244
 5497TIP3    H237907   3.133   2.488  15.575  0.6182  0.6794  1.0045
 5498TIP3   OH237908   6.216   6.055  13.219 -0.5364  0.1395  0.4116
 5498TIP3    H137909   6.253   6.065  13.131  0.1943 -1.2521  0.5329
 5498TIP3    H237910   6.129   6.094  13.212 -0.4110  0.2577 -0.8665
 5499TIP3   OH237911   6.675   6.144   0.927  0.0544 -0.6436 -0.2766
 5499TIP3    H137912   6.590   6.179   0.954  0.6365  0.0674  0.6924
 5499TIP3    H237913   6.668   6.137   0.832 -0.3435  1.5503 -0.4810
 5500TIP3   OH237914   5.796   0.937   2.708  0.3274 -0.6581  0.1710
 5500TIP3    H137915   5.706   0.905   2.718 -0.4698  0.5626 -2.3370
 5500TIP3    H237916   5.850   0.870   2.751 -1.6736 -2.0051  0.7308
 5501TIP3   OH237917   1.129   0.989  14.424  0.7700  0.2694 -0.2771
 5501TIP3    H137918   1.106   1.076  14.457 -0.7280  0.4351 -1.6401
 5501TIP3    H237919   1.205   1.003  14.368 -1.1555  1.2900 -2.8457
 5502TIP3   OH237920   3.642   3.993   4.991  0.0682  0.2671 -0.2839
 5502TIP3    H137921   3.687   3.910   4.976 -0.1196  0.1212 -0.0499
 5502TIP3    H237922   3.557   3.968   5.028  0.7919  0.6207  1.7515
 5503TIP3   OH237923   2.125   0.775   1.355 -0.1991 -0.0580 -0.3862
 5503TIP3    H137924   2.075   0.728   1.421 -0.5649 -0.3730 -0.8820
 5503TIP3    H237925   2.073   0.768   1.275  1.5194 -2.0594 -1.4218
 5504TIP3   OH237926   4.492   3.219   1.090  0.5680  0.3256 -0.5171
 5504TIP3    H137927   4.530   3.134   1.071 -0.9929 -0.4824 -0.2012
 5504TIP3    H237928   4.503   3.229   1.185  1.1947  0.7278 -0.6219
 5505TIP3   OH237929   4.198   0.858  14.412 -0.0078 -0.0814  0.0490
 5505TIP3    H137930   4.205   0.829  14.503 -0.2441  0.4560  0.2427
 5505TIP3    H237931   4.111   0.829  14.384 -0.5763  1.1213  0.5002
 5506TIP3   OH237932   5.753   0.311   2.601 -0.5143 -0.4417  0.2597
 5506TIP3    H137933   5.811   0.375   2.561 -0.0563 -0.5415  0.7532
 5506TIP3    H237934   5.812   0.247   2.642 -0.9624 -1.1141 -0.1199
 5507TIP3   OH237935   4.436   6.384   5.101  0.8444  0.1849 -0.4580
 5507TIP3    H137936   4.519   6.353   5.066  0.9429  0.8141 -0.7891
 5507TIP3    H237937   4.414   6.321   5.170  1.4463 -0.1498 -0.5662
 5508TIP3   OH237938   1.470   0.315  11.303  0.9237  0.2081  0.4760
 5508TIP3    H137939   1.515   0.241  11.263  2.0411  1.0298  0.1820
 5508TIP3    H237940   1.534   0.386  11.304 -0.2100  1.2761  0.4724
 5509TIP3   OH237941   4.131   2.918   3.955 -0.1910  0.2425  0.0766
 5509TIP3    H137942   4.108   2.864   3.880  0.3601 -0.0526  0.1165
 5509TIP3    H237943   4.227   2.920   3.955 -0.1988  1.1456  0.1213
 5510TIP3   OH237944   3.121   4.552  12.205 -0.4747  0.4223 -0.2437
 5510TIP3    H137945   3.125   4.645  12.185  2.5925  0.4654  0.0034
 5510TIP3    H237946   3.067   4.514  12.135  0.5486  2.0428 -2.0083
 5511TIP3   OH237947   0.004   0.993  15.830 -0.2387 -0.4541  0.3977
 5511TIP3    H137948   0.029   1.084  15.839  0.2342 -0.1695 -2.7730
 5511TIP3    H237949  -0.083   0.996  15.789  0.2572 -1.3740 -0.7861
 5512TIP3   OH237950   3.169   0.479  17.136 -0.2035  0.3450  0.7446
 5512TIP3    H137951   3.165   0.549  17.202 -0.0018  0.3840  0.7154
 5512TIP3    H237952   3.228   0.414  17.174 -0.7459 -0.0244  0.9798
 5513TIP3   OH237953   0.465   0.244  15.672 -0.5093 -0.4246 -0.0180
 5513TIP3    H137954   0.535   0.178  15.663 -1.0281 -1.1913  1.3066
 5513TIP3    H237955   0.418   0.239  15.589 -2.1286 -3.6578  0.9276
 5514TIP3   OH237956   0.949   5.121  14.708  0.1262 -0.4584 -0.3077
 5514TIP3    H137957   0.881   5.067  14.668 -0.2830 -0.6579  0.6401
 5514TIP3    H237958   0.977   5.180  14.638 -2.3121  0.8583 -0.2646
 5515TIP3   OH237959   6.590   1.948  17.012 -0.0981 -0.3722 -0.1209
 5515TIP3    H137960   6.592   1.852  17.010 -0.3272 -0.4778  2.1059
 5515TIP3    H237961   6.580   1.973  16.921 -3.0428 -2.5678 -0.5680
 5516TIP3   OH237962   3.845   4.049  13.664  0.0759  0.1151 -0.2972
 5516TIP3    H137963   3.749   4.053  13.661 -0.0133 -0.4500  1.1035
 5516TIP3    H237964   3.874   4.113  13.599 -1.2492 -0.5323 -1.5572
 5517TIP3   OH237965   6.735   5.658  11.200  0.2663 -0.1377  0.5091
 5517TIP3    H137966   6.693   5.653  11.285 -0.9337 -2.9044 -0.1263
 5517TIP3    H237967   6.812   5.601  11.208 -0.1021 -0.7786 -0.3351
 5518TIP3   OH237968   2.051   4.652  11.929 -0.2317  0.0853  0.0735
 5518TIP3    H137969   2.018   4.715  11.865 -2.4094 -0.4838  0.5528
 5518TIP3    H237970   2.071   4.704  12.007  0.4375  0.5014 -0.3705
 5519TIP3   OH237971   2.208   0.346  10.556  0.1326 -0.2617  0.2531
 5519TIP3    H137972   2.160   0.279  10.604 -0.7022 -0.3024 -0.6017
 5519TIP3    H237973   2.266   0.297  10.497 -1.0464 -0.2678 -0.9353
 5520TIP3   OH237974   1.415   1.693   5.319  0.6035  0.1966  0.3484
 5520TIP3    H137975   1.509   1.683   5.330  0.7221  0.7993 -0.0625
 5520TIP3    H237976   1.392   1.768   5.375  0.0832 -0.9476  1.7394
 5521TIP3   OH237977   5.963   5.341  15.817  0.0948 -0.8740  0.7179
 5521TIP3    H137978   5.951   5.424  15.863 -0.8738 -2.3393  3.3029
 5521TIP3    H237979   6.056   5.321  15.828  0.2002 -0.4474  0.6165
 5522TIP3   OH237980   2.030   1.213  16.471  0.2902 -0.3866 -0.0013
 5522TIP3    H137981   1.953   1.266  16.450  0.5954  0.0860  0.0503
 5522TIP3    H237982   2.100   1.250  16.417  0.5799 -0.5383  0.2666
 5523TIP3   OH237983   3.391   0.943   0.284 -0.1041  0.1966  0.5356
 5523TIP3    H137984   3.438   0.872   0.240  0.0537  0.9217 -0.4933
 5523TIP3    H237985   3.304   0.907   0.301 -0.1278 -0.1382 -0.2522
 5524TIP3   OH237986   3.536   4.835   1.202  0.2752 -0.3794 -0.2198
 5524TIP3    H137987   3.573   4.891   1.270  0.8977  0.2131 -1.0481
 5524TIP3    H237988   3.482   4.893   1.149  1.3256 -0.4354 -1.3859
 5525TIP3   OH237989   2.626   0.166  14.758  0.3332 -0.6348  0.1803
 5525TIP3    H137990   2.539   0.151  14.795 -0.2875  1.4082 -0.3668
 5525TIP3    H237991   2.686   0.136  14.827 -0.7819 -1.3722  0.8655
 5526TIP3   OH237992   6.477   2.381   5.743  0.0980  0.4152 -0.2808
 5526TIP3    H137993   6.509   2.466   5.774  0.9141  0.1466 -0.3464
 5526TIP3    H237994   6.382   2.386   5.753 -0.0050  1.8559 -1.6317
 5527TIP3   OH237995   3.053   5.359   5.312 -0.5922  0.5909 -0.3397
 5527TIP3    H137996   3.053   5.434   5.253 -0.0454  1.5632  0.8428
 5527TIP3    H237997   3.047   5.397   5.400  2.9577 -0.4449  0.5473
 5528TIP3   OH237998   4.607   1.261   1.604  0.4248 -0.0455 -0.2481
 5528TIP3    H137999   4.547   1.191   1.627 -0.1951  0.8708  1.0662
 5528TIP3    H238000   4.576   1.337   1.654  2.3408  0.6049  0.0509
 5529TIP3   OH238001   5.098   3.126  11.805  0.1812 -0.2199  0.0840
 5529TIP3    H138002   5.025   3.064  11.795  0.4087 -0.7147  1.3399
 5529TIP3    H238003   5.126   3.145  11.715 -0.5430 -1.1659 -0.3563
 5530TIP3   OH238004   0.481   0.162   3.902 -0.2661  0.5040  0.3497
 5530TIP3    H138005   0.565   0.180   3.943  1.1557 -1.8605 -1.2456
 5530TIP3    H238006   0.441   0.248   3.888  0.8876  1.5714  2.9909
 5531TIP3   OH238007   1.552   6.456   1.368  0.2142  0.0685 -0.7023
 5531TIP3    H138008   1.573   6.374   1.323 -0.7291 -0.7664  0.3414
 5531TIP3    H238009   1.505   6.507   1.302  0.1443 -0.5328 -1.1309
 5532TIP3   OH238010   1.510   1.628   4.606 -0.2765 -0.0942 -0.0712
 5532TIP3    H138011   1.431   1.654   4.654  0.7537  1.8555  0.6922
 5532TIP3    H238012   1.496   1.536   4.585 -1.8108 -0.3994  1.9434
 5533TIP3   OH238013   1.589   4.222  12.244  0.3173  0.0731  0.3381
 5533TIP3    H138014   1.630   4.242  12.160  1.4345 -0.9972  0.5884
 5533TIP3    H238015   1.628   4.138  12.270  0.8434  0.9110  2.4428
 5534TIP3   OH238016   1.237   2.869  14.851 -0.6165 -0.4516 -0.3423
 5534TIP3    H138017   1.331   2.884  14.856 -0.5487 -1.1387  0.8760
 5534TIP3    H238018   1.202   2.945  14.806  0.5063 -0.1101 -0.6492
 5535TIP3   OH238019   6.453   2.092  15.543  0.2410 -0.3928  0.4963
 5535TIP3    H138020   6.428   2.156  15.610 -0.4311 -0.6026  0.4495
 5535TIP3    H238021   6.371   2.051  15.517  0.2656  0.7736 -1.5998
 5536TIP3   OH238022   1.958   6.543   4.897 -0.4654  0.1883 -0.0682
 5536TIP3    H138023   1.949   6.632   4.931 -0.3118 -0.6231  2.2213
 5536TIP3    H238024   1.991   6.556   4.807 -0.3537  2.4200  0.2287
 5537TIP3   OH238025   5.089   5.356   3.712  0.5035 -0.4195 -0.0095
 5537TIP3    H138026   5.021   5.315   3.658  0.6686 -0.9495  0.1765
 5537TIP3    H238027   5.166   5.359   3.655  0.6433 -0.8676  0.1493
 5538TIP3   OH238028   0.861   3.529  15.900 -0.1895 -0.2041 -0.2138
 5538TIP3    H138029   0.881   3.446  15.943  0.6488  0.5726  0.9691
 5538TIP3    H238030   0.940   3.552  15.853 -1.2162 -1.2191 -2.5880
 5539TIP3   OH238031   5.456   5.938  12.526  0.3650 -0.2829  0.0994
 5539TIP3    H138032   5.386   5.923  12.590  0.2021  0.0070 -0.0128
 5539TIP3    H238033   5.532   5.964  12.579 -0.3902  2.3052  0.0412
 5540TIP3   OH238034   4.423   4.345   4.352  0.4113 -0.3106 -0.2636
 5540TIP3    H138035   4.337   4.316   4.381 -0.1534  1.1538 -0.3776
 5540TIP3    H238036   4.424   4.326   4.259  0.0670 -0.0160 -0.3306
 5541TIP3   OH238037   2.065   6.399  12.450  0.0310  0.6994 -0.4708
 5541TIP3    H138038   2.004   6.458  12.493 -1.9404 -2.0972  0.9186
 5541TIP3    H238039   2.147   6.409  12.500 -0.4375  1.7572  0.1151
 5542TIP3   OH238040   5.449   2.567   0.354  0.1733  0.6863 -0.6449
 5542TIP3    H138041   5.454   2.534   0.443  0.9123  0.3219 -0.8180
 5542TIP3    H238042   5.516   2.519   0.306 -0.2513  0.8395 -1.4133
 5543TIP3   OH238043   2.128   1.605   6.308  0.2118  0.1335  0.6606
 5543TIP3    H138044   2.199   1.642   6.360  0.1496  0.8530  0.2448
 5543TIP3    H238045   2.157   1.614   6.217 -0.2644  0.1408  0.5032
 5544TIP3   OH238046   4.233   2.609   4.052 -0.6044 -0.2793  0.0259
 5544TIP3    H138047   4.277   2.652   3.979  0.6177  0.8901  1.3883
 5544TIP3    H238048   4.160   2.561   4.012 -1.2367  1.9807 -1.7288
 5545TIP3   OH238049   1.062   5.796   4.661 -0.3398  0.6309 -0.1487
 5545TIP3    H138050   1.143   5.840   4.688  0.0551 -0.3041  0.2340
 5545TIP3    H238051   1.003   5.808   4.735  0.6804 -1.7725  1.1689
 5546TIP3   OH238052   1.635   3.445   0.302 -0.1451 -0.4661 -0.1205
 5546TIP3    H138053   1.678   3.402   0.228 -1.2681 -1.7743 -0.0464
 5546TIP3    H238054   1.639   3.381   0.373 -0.2340  0.2658  0.5614
 5547TIP3   OH238055   0.220   0.738   5.059  0.3707  0.0527  0.0757
 5547TIP3    H138056   0.185   0.685   4.988  2.3614 -0.4618 -0.5949
 5547TIP3    H238057   0.286   0.794   5.018 -1.3252  2.8261  0.8418
 5548TIP3   OH238058   1.419   5.535   6.147  0.1304 -0.1111  0.0584
 5548TIP3    H138059   1.377   5.598   6.206  2.2538  2.5137 -1.0378
 5548TIP3    H238060   1.392   5.564   6.060 -0.0781 -1.7297 -0.4381
 5549TIP3   OH238061   0.532   0.365  11.848 -0.5173 -0.6438  0.4445
 5549TIP3    H138062   0.551   0.275  11.821 -2.4120 -0.7525 -0.7885
 5549TIP3    H238063   0.589   0.419  11.794 -0.6458 -1.0682 -0.1301
 5550TIP3   OH238064   1.013   4.989  15.221 -0.7712 -0.0259  0.1184
 5550TIP3    H138065   0.982   5.079  15.209 -1.0325 -0.0455  0.5925
 5550TIP3    H238066   0.933   4.936  15.222 -0.5987 -0.2998 -0.4328
 5551TIP3   OH238067   4.072   0.418   2.113 -0.1093  0.9252  0.7411
 5551TIP3    H138068   4.141   0.383   2.169  1.2310  1.0976 -0.7475
 5551TIP3    H238069   4.073   0.362   2.036 -1.0283  1.4801  0.3101
 5552TIP3   OH238070   0.999   0.474   3.199  0.0762 -0.2700 -0.2107
 5552TIP3    H138071   1.088   0.481   3.166  0.2663 -1.8276 -0.0739
 5552TIP3    H238072   0.944   0.486   3.121  0.3757  0.7574 -0.2830
 5553TIP3   OH238073   5.432   4.699  13.168  0.3471  0.1759  0.1664
 5553TIP3    H138074   5.439   4.792  13.190  2.5021 -0.5700  3.0675
 5553TIP3    H238075   5.501   4.684  13.104  0.6972  0.3489  0.5041
 5554TIP3   OH238076   1.662   3.791   0.235 -0.3613  0.2956  0.4733
 5554TIP3    H138077   1.686   3.710   0.190 -0.8636  0.1042  0.5326
 5554TIP3    H238078   1.681   3.773   0.328 -0.4858  0.2374  0.4883
 5555TIP3   OH238079   3.193   2.293  16.453  0.1914  0.2855 -0.2373
 5555TIP3    H138080   3.174   2.323  16.365 -0.3814 -0.4827 -0.3860
 5555TIP3    H238081   3.274   2.338  16.477  1.0712 -0.4647 -1.6423
 5556TIP3   OH238082   6.765   0.840  13.961  0.5666 -0.0966 -0.2053
 5556TIP3    H138083   6.682   0.886  13.970  0.9224  0.8328 -1.4267
 5556TIP3    H238084   6.827   0.892  14.012  0.8024  0.3630 -0.9402
 5557TIP3   OH238085   3.871   1.763   5.982  0.2709  0.1181 -0.2307
 5557TIP3    H138086   3.790   1.795   5.941  0.9324  0.4043 -1.3491
 5557TIP3    H238087   3.892   1.683   5.934 -0.2072 -0.8740  1.1382
 5558TIP3   OH238088   6.540   3.933  16.768 -0.1901  0.3694 -0.3228
 5558TIP3    H138089   6.589   3.951  16.848 -0.7902 -0.0631  0.1509
 5558TIP3    H238090   6.489   4.012  16.752  0.0383  0.5099 -0.3561
 5559TIP3   OH238091   4.186   6.770   4.078 -0.2500 -0.1914  0.7722
 5559TIP3    H138092   4.254   6.713   4.114  1.2520  0.5802 -0.7268
 5559TIP3    H238093   4.160   6.825   4.152  0.3563 -0.8672  1.5125
 5560TIP3   OH238094   5.531   0.002   1.066  0.3863 -0.2312 -0.6180
 5560TIP3    H138095   5.595   0.048   1.012 -1.1451  3.5925  0.4594
 5560TIP3    H238096   5.525   0.055   1.146 -2.4692 -1.6866  0.2785
 5561TIP3   OH238097   1.379   5.899   4.133 -0.1041 -0.6982  0.0287
 5561TIP3    H138098   1.375   5.870   4.041 -0.8140 -1.5568  0.3054
 5561TIP3    H238099   1.419   5.986   4.129  0.3479 -0.9298 -1.0432
 5562TIP3   OH238100   5.761   4.583  13.546 -0.3016  0.0895  0.2945
 5562TIP3    H138101   5.702   4.656  13.563  0.4801  0.6144  0.7844
 5562TIP3    H238102   5.848   4.623  13.539  0.1138 -0.7728  0.4091
 5563TIP3   OH238103   0.726   2.153   5.802  0.7390  0.8045  0.3776
 5563TIP3    H138104   0.644   2.180   5.761  0.6726  1.4038  0.8913
 5563TIP3    H238105   0.723   2.190   5.890  0.9740 -0.2771  0.8666
 5564TIP3   OH238106   0.114   6.787   0.401  0.5433  0.2269  0.6967
 5564TIP3    H138107   0.032   6.821   0.437  0.0273 -1.2554  1.0119
 5564TIP3    H238108   0.182   6.827   0.454  0.1233  2.2445 -0.1799
 5565TIP3   OH238109   2.577   6.062   3.081 -0.3091  0.5387  0.8076
 5565TIP3    H138110   2.544   6.151   3.093 -0.1414  0.3909  2.7676
 5565TIP3    H238111   2.500   6.006   3.090 -0.8269  0.4814 -2.5802
 5566TIP3   OH238112   6.249   0.912  12.992 -0.8021  0.3305  0.1153
 5566TIP3    H138113   6.280   0.833  12.948 -1.4886 -1.3017  2.3241
 5566TIP3    H238114   6.288   0.907  13.080 -1.0061  2.3878  0.3667
 5567TIP3   OH238115   1.345   1.053   4.753 -0.2713  0.2349 -0.0396
 5567TIP3    H138116   1.261   1.007   4.750 -1.1700  1.7170  1.3937
 5567TIP3    H238117   1.323   1.145   4.746  1.3997  0.5953 -1.3738
 5568TIP3   OH238118   5.553   4.848   6.523 -0.2999 -0.6205  0.2180
 5568TIP3    H138119   5.586   4.759   6.540 -0.2654 -0.3463  1.7696
 5568TIP3    H238120   5.629   4.904   6.533 -0.6034 -0.2844  0.6978
 5569TIP3   OH238121   0.006   3.571  16.172 -0.7116 -0.2022  0.2938
 5569TIP3    H138122  -0.088   3.567  16.151 -0.7118  3.2035 -0.8417
 5569TIP3    H238123   0.049   3.578  16.087  0.3107  1.3556  0.9123
 5570TIP3   OH238124   6.786   0.314  11.094  0.3116  0.3613 -0.0219
 5570TIP3    H138125   6.769   0.249  11.026  0.4347  0.0067  0.2808
 5570TIP3    H238126   6.858   0.366  11.061 -1.1948  1.7573 -1.2454
 5571TIP3   OH238127   3.243   6.281  10.989  0.1204  0.1090 -0.4220
 5571TIP3    H138128   3.162   6.320  11.023  0.1786  0.4681 -0.6954
 5571TIP3    H238129   3.305   6.354  10.983  0.7232 -0.3038  0.5347
 5572TIP3   OH238130   3.410   1.337  13.596  0.2478  0.4671  0.2102
 5572TIP3    H138131   3.405   1.405  13.664 -1.9173  1.0902 -0.5006
 5572TIP3    H238132   3.363   1.375  13.521  3.6508  0.3531 -2.1976
 5573TIP3   OH238133   5.188   0.100   5.174  0.1882  0.6722  0.2655
 5573TIP3    H138134   5.178   0.195   5.183 -1.1514  0.5554  0.2165
 5573TIP3    H238135   5.123   0.075   5.108  1.4635 -0.1179 -0.7450
 5574TIP3   OH238136   5.212   3.027   0.675  0.3208  0.4103  0.1780
 5574TIP3    H138137   5.182   2.955   0.730 -0.2251 -0.4047 -1.1373
 5574TIP3    H238138   5.261   2.985   0.604 -1.1317  1.1689 -1.3545
 5575TIP3   OH238139   3.745   5.356   3.517  0.1167 -0.5318 -0.2866
 5575TIP3    H138140   3.835   5.383   3.501 -0.2687  0.6716 -0.4782
 5575TIP3    H238141   3.692   5.433   3.498 -0.6450  0.3193  4.1717
 5576TIP3   OH238142   6.780   6.438  15.559  0.4447  0.1711  0.4482
 5576TIP3    H138143   6.692   6.415  15.587 -0.3233  1.4686 -0.7700
 5576TIP3    H238144   6.812   6.360  15.513  0.0335 -0.3870  1.1069
 5577TIP3   OH238145   4.288   3.858  13.479 -0.5480 -0.0541 -0.4069
 5577TIP3    H138146   4.329   3.813  13.553 -0.0556  1.3874  0.2483
 5577TIP3    H238147   4.350   3.928  13.456 -1.2205  0.2271 -1.4422
 5578TIP3   OH238148   5.592   1.318   1.835 -0.5648 -0.2895 -0.0930
 5578TIP3    H138149   5.540   1.295   1.912 -1.5789 -1.2004 -1.0100
 5578TIP3    H238150   5.539   1.383   1.789  0.8239  1.5617  0.8243
 5579TIP3   OH238151   4.799   6.771  14.804 -0.0329  0.4004 -0.3256
 5579TIP3    H138152   4.764   6.685  14.827  1.2727 -0.0055  0.1875
 5579TIP3    H238153   4.894   6.763  14.815  0.2511  1.4753 -1.6819
 5580TIP3   OH238154   6.210   6.580  16.685 -0.2458 -0.0577 -0.2984
 5580TIP3    H138155   6.170   6.493  16.677 -0.5273  0.0854 -0.4686
 5580TIP3    H238156   6.304   6.563  16.685 -0.3020 -0.4502  0.7151
 5581TIP3   OH238157   3.725   1.721  14.430  0.3352  0.2939 -0.0951
 5581TIP3    H138158   3.695   1.658  14.365 -0.4144  1.9775 -1.4819
 5581TIP3    H238159   3.789   1.775  14.384 -0.3723  1.6689  0.4433
 5582TIP3   OH238160   1.320   1.319  15.900 -0.8675 -0.6491  0.1453
 5582TIP3    H138161   1.283   1.339  15.986 -0.9899 -0.1706 -0.0151
 5582TIP3    H238162   1.247   1.281  15.850 -1.6637  1.8172 -0.7237
 5583TIP3   OH238163   2.386   3.776   4.971  0.0183 -0.2826  0.5807
 5583TIP3    H138164   2.380   3.869   4.951 -1.5916  0.1186  2.6275
 5583TIP3    H238165   2.349   3.733   4.894 -0.2014  0.8204  0.0504
 5584TIP3   OH238166   2.076   3.260   0.944 -0.0371  0.6101 -0.0893
 5584TIP3    H138167   2.151   3.319   0.932  1.3073 -0.8820  0.5198
 5584TIP3    H238168   2.096   3.212   1.024  0.6885 -3.0196 -2.1992
 5585TIP3   OH238169   3.484   1.627   2.465 -0.1979 -0.2792  0.0202
 5585TIP3    H138170   3.479   1.655   2.374 -0.6183 -0.6444 -0.0692
 5585TIP3    H238171   3.430   1.548   2.470  0.2792 -0.5926  0.4592
 5586TIP3   OH238172   1.740   0.727  13.003 -0.4802  0.1607  1.0404
 5586TIP3    H138173   1.803   0.799  13.007 -0.7938  0.7231 -2.0379
 5586TIP3    H238174   1.662   0.765  12.962 -0.4882 -1.9607 -1.1315
 5587TIP3   OH238175   1.166   1.975  10.322 -0.0416 -0.3800  0.5667
 5587TIP3    H138176   1.186   1.921  10.398  0.7802  2.0313  2.1715
 5587TIP3    H238177   1.252   2.000  10.287 -0.3759  0.6828  0.4807
 5588TIP3   OH238178   4.205   2.860   5.251 -0.4814  0.0284  0.3956
 5588TIP3    H138179   4.142   2.794   5.222  0.3602 -0.3091 -0.7308
 5588TIP3    H238180   4.283   2.809   5.275  0.9096  0.6392 -2.3673
 5589TIP3   OH238181   1.667   5.659   4.384  0.2489 -0.2676 -0.4462
 5589TIP3    H138182   1.654   5.751   4.365 -1.7474 -0.7041 -1.4892
 5589TIP3    H238183   1.670   5.617   4.298 -0.6855 -1.3567  0.0266
 5590TIP3   OH238184   6.395   4.530   2.884  0.0391 -0.4370  0.5359
 5590TIP3    H138185   6.491   4.528   2.889  0.1538  1.0027 -0.5444
 5590TIP3    H238186   6.374   4.482   2.804  0.0024  0.8264 -0.2407
 5591TIP3   OH238187   4.311   6.429  13.312  0.1077 -0.4409 -0.1671
 5591TIP3    H138188   4.266   6.442  13.229 -0.7523 -0.0250  0.3406
 5591TIP3    H238189   4.241   6.404  13.373  0.8681 -1.8251  0.1939
 5592TIP3   OH238190   6.789   6.708   4.332  0.2877 -0.2917  0.8952
 5592TIP3    H138191   6.698   6.722   4.356  0.0729 -2.3234  1.4848
 5592TIP3    H238192   6.833   6.689   4.416  1.4639  1.4392  0.7409
 5593TIP3   OH238193   0.299   0.358   2.847  0.3392  0.1796  0.3393
 5593TIP3    H138194   0.359   0.367   2.773 -0.1693 -0.8854 -0.2172
 5593TIP3    H238195   0.299   0.444   2.888  0.5712  0.8187 -0.9490
 5594TIP3   OH238196   3.467   4.987   2.296  0.1460 -0.1622 -0.7546
 5594TIP3    H138197   3.540   4.926   2.287  0.4340  0.4462 -2.8897
 5594TIP3    H238198   3.402   4.956   2.233 -0.7740  0.2624 -0.0342
 5595TIP3   OH238199   2.550   5.542   4.421 -0.1557  0.1677  0.4572
 5595TIP3    H138200   2.557   5.473   4.356 -2.4622 -0.6888  1.0184
 5595TIP3    H238201   2.640   5.562   4.446  0.6853 -0.6145 -1.7751
 5596TIP3   OH238202   4.432   3.402  11.463  0.2851  0.2920  0.4549
 5596TIP3    H138203   4.446   3.323  11.515  0.4801  0.2549  0.3446
 5596TIP3    H238204   4.384   3.371  11.386 -0.7960  0.4828  1.0347
 5597TIP3   OH238205   1.463   6.075  15.962  0.0180 -0.2688  0.4043
 5597TIP3    H138206   1.462   6.013  15.889  1.3738  0.9046 -0.6673
 5597TIP3    H238207   1.452   6.160  15.920  4.2217  0.8200  1.0594
 5598TIP3   OH238208   2.836   2.816  16.484  0.1111 -0.2395 -0.1611
 5598TIP3    H138209   2.849   2.791  16.575 -2.2085 -0.6771  0.1158
 5598TIP3    H238210   2.754   2.865  16.484  0.9168  1.2247 -1.7950
 5599TIP3   OH238211   2.580   3.235  17.057 -0.2063 -0.2696  0.1882
 5599TIP3    H138212   2.660   3.184  17.061  0.5552  0.8877  0.0522
 5599TIP3    H238213   2.577   3.269  16.968 -0.1689  0.7505  0.5690
 5600TIP3   OH238214   0.901   2.441  14.476 -0.2784  0.0057  0.6077
 5600TIP3    H138215   0.972   2.456  14.414 -1.7977 -0.5791 -1.3736
 5600TIP3    H238216   0.903   2.517  14.534 -0.6375  2.1838 -2.0260
 5601TIP3   OH238217   6.734   5.069  15.959  0.1510  0.2389 -0.0556
 5601TIP3    H138218   6.700   5.096  15.874  0.8251 -0.9276 -0.7121
 5601TIP3    H238219   6.774   4.984  15.944  1.0041  0.3684  1.2627
 5602TIP3   OH238220   2.179   0.595   2.415  0.3379 -0.4009  0.5703
 5602TIP3    H138221   2.231   0.670   2.384 -0.5152  0.2059  0.5505
 5602TIP3    H238222   2.104   0.592   2.355  0.1639 -1.0329  0.8144
 5603TIP3   OH238223   4.794   4.100  13.697  0.2285  0.2638  0.0862
 5603TIP3    H138224   4.845   4.064  13.770  0.4191  1.9995  0.8738
 5603TIP3    H238225   4.851   4.168  13.660 -0.6082  0.6572 -0.5083
 5604TIP3   OH238226   1.988   5.856  11.551 -0.1440  0.5204  0.2880
 5604TIP3    H138227   1.971   5.838  11.458 -1.1987 -0.8657  0.7048
 5604TIP3    H238228   2.043   5.783  11.579 -0.0397  0.7952  0.8009
 5605TIP3   OH238229   0.862   5.474   3.643 -1.1106  0.4715  0.2592
 5605TIP3    H138230   0.837   5.489   3.552  1.8032  0.1647 -0.6644
 5605TIP3    H238231   0.779   5.480   3.691 -2.7024  0.8778 -2.3396
 5606TIP3   OH238232   0.339   0.984   5.566 -0.2388 -0.0293  0.1607
 5606TIP3    H138233   0.271   0.923   5.595  0.7348 -0.8751  0.7257
 5606TIP3    H238234   0.330   0.985   5.471 -2.0729  1.1245  0.2930
 5607TIP3   OH238235   1.659   6.332  17.015 -0.2661 -0.2769  0.6543
 5607TIP3    H138236   1.693   6.243  17.025 -1.0058 -0.7812 -1.0219
 5607TIP3    H238237   1.591   6.340  17.082 -0.9601 -1.3714  0.0937
 5608TIP3   OH238238   2.563   0.664   0.959 -0.2169 -0.1880 -0.2503
 5608TIP3    H138239   2.524   0.588   1.001 -0.5284 -0.4095 -0.9169
 5608TIP3    H238240   2.597   0.631   0.876 -1.6699  0.6506 -1.2356
 5609TIP3   OH238241   3.834   4.772  14.319 -0.0772 -1.0034  0.5588
 5609TIP3    H138242   3.923   4.738  14.316 -0.3527 -1.7079 -1.4309
 5609TIP3    H238243   3.804   4.753  14.407  1.6608 -0.9294  1.2024
 5610TIP3   OH238244   2.447   2.779  11.471 -0.0031 -0.9475  0.3110
 5610TIP3    H138245   2.376   2.831  11.508  0.6667  0.7755 -0.6794
 5610TIP3    H238246   2.426   2.689  11.494 -2.1465 -0.4182  0.6194
 5611TIP3   OH238247   4.615   2.140  16.018 -0.5321  0.6797  0.0359
 5611TIP3    H138248   4.699   2.113  15.980 -0.5153 -0.0118  0.5325
 5611TIP3    H238249   4.625   2.123  16.112 -0.9077  1.4592  0.2206
 5612TIP3   OH238250   3.161   1.348   5.549 -0.9975  0.5068 -0.2421
 5612TIP3    H138251   3.141   1.330   5.458 -2.4821 -0.3533  0.2317
 5612TIP3    H238252   3.081   1.328   5.597  0.2654 -0.8390  1.4761
 5613TIP3   OH238253   2.426   2.688  16.321 -0.0250 -0.0513  0.2369
 5613TIP3    H138254   2.463   2.606  16.289  0.9759 -0.1809  1.6214
 5613TIP3    H238255   2.350   2.704  16.265  0.0066 -1.7032 -0.3331
 5614TIP3   OH238256   3.032   4.817  11.359  0.3871  0.2451 -0.1791
 5614TIP3    H138257   2.949   4.860  11.378 -0.3095 -1.4461  0.9116
 5614TIP3    H238258   3.078   4.877  11.301 -2.0279  0.7891 -1.6603
 5615TIP3   OH238259   3.241   2.900   3.050  0.0389  0.3842 -0.3541
 5615TIP3    H138260   3.323   2.853   3.068 -0.5414 -0.7378 -0.5595
 5615TIP3    H238261   3.187   2.883   3.127 -0.3361  0.3636 -0.6225
 5616TIP3   OH238262   4.625   2.188   4.869 -0.2455 -0.1034 -0.3848
 5616TIP3    H138263   4.577   2.263   4.903  0.4111  0.1902 -0.0752
 5616TIP3    H238264   4.692   2.171   4.935  1.0782  0.4923 -1.4979
 5617TIP3   OH238265   6.067   6.501   6.872  0.5957  0.0535 -0.0542
 5617TIP3    H138266   6.049   6.578   6.817  0.8992  0.0956 -0.0969
 5617TIP3    H238267   6.138   6.455   6.826  1.7129  0.7417  0.9127
 5618TIP3   OH238268   4.998   4.586  16.327 -0.3761  0.2058  0.1963
 5618TIP3    H138269   4.923   4.611  16.273 -1.3695  0.9861  1.8652
 5618TIP3    H238270   5.033   4.669  16.359  0.8071 -0.1877 -0.0126
 5619TIP3   OH238271   6.470   0.024  15.188 -0.0962  0.3883 -0.3301
 5619TIP3    H138272   6.557   0.024  15.149  0.4487  1.0102  0.8453
 5619TIP3    H238273   6.414   0.065  15.122  0.1317 -1.5491 -1.8182
 5620TIP3   OH238274   1.891   0.090   5.802 -0.9355  0.2386 -0.7670
 5620TIP3    H138275   1.869   0.000   5.776  0.2135 -0.7979  1.4741
 5620TIP3    H238276   1.824   0.113   5.866 -0.4442  0.4016 -0.3022
 5621TIP3   OH238277   3.165   2.642  12.695 -0.3585 -0.1265 -0.4712
 5621TIP3    H138278   3.239   2.691  12.661 -0.0517 -0.8408 -0.8638
 5621TIP3    H238279   3.089   2.675  12.647 -0.4420  1.2152  0.5403
 5622TIP3   OH238280   4.900   2.876   3.423 -0.1043 -0.2061  0.1140
 5622TIP3    H138281   4.952   2.813   3.472 -2.3537 -0.0125  3.0461
 5622TIP3    H238282   4.940   2.961   3.442 -1.8428  0.0616  3.1918
 5623TIP3   OH238283   5.185   5.137  15.669  0.2794 -0.1335 -0.0799
 5623TIP3    H138284   5.234   5.085  15.733  0.8464  1.5909  0.9325
 5623TIP3    H238285   5.104   5.161  15.714  0.9018  1.5097  0.2228
 5624TIP3   OH238286   6.040   2.856   1.650  0.5641  0.0622 -0.3385
 5624TIP3    H138287   6.023   2.765   1.625  0.5192 -0.0139 -0.0370
 5624TIP3    H238288   6.121   2.878   1.604  2.1194 -1.0274  1.6886
 5625TIP3   OH238289   4.310   6.659   1.843  0.1505  0.1100  0.0482
 5625TIP3    H138290   4.355   6.693   1.766  0.9978 -3.1473 -1.0565
 5625TIP3    H238291   4.377   6.658   1.911  0.2766  0.0605 -0.0768
 5626TIP3   OH238292   4.683   0.038   4.420  0.0073  0.2551 -0.6856
 5626TIP3    H138293   4.672   0.088   4.339  0.7318  0.7482 -0.4917
 5626TIP3    H238294   4.608   0.064   4.474  0.0954  0.7375 -0.7919
 5627TIP3   OH238295   5.220   2.152  15.453 -0.1462 -0.0986  0.3900
 5627TIP3    H138296   5.185   2.065  15.470 -1.5353  0.3197 -0.1906
 5627TIP3    H238297   5.206   2.167  15.359 -2.3137  1.7155  0.9209
 5628TIP3   OH238298   6.048   5.534   5.078 -0.5501  0.7343 -0.2201
 5628TIP3    H138299   5.970   5.588   5.066 -3.5790 -2.8877  1.0605
 5628TIP3    H238300   6.085   5.524   4.991 -1.9358  1.9719 -0.9847
 5629TIP3   OH238301   5.373   0.970  13.672  0.3302  0.0395  0.2931
 5629TIP3    H138302   5.390   0.970  13.578  1.0787  0.5482  0.4176
 5629TIP3    H238303   5.301   0.908  13.684 -0.3907  0.6490 -0.7226
 5630TIP3   OH238304   4.534   5.406  15.429 -0.4347  0.0210 -0.1466
 5630TIP3    H138305   4.562   5.497  15.430 -1.4067  0.3987 -2.3550
 5630TIP3    H238306   4.440   5.409  15.447 -0.3196 -0.6321  0.6256
 5631TIP3   OH238307   5.218   2.536  11.444 -0.1617  0.7165  0.1524
 5631TIP3    H138308   5.212   2.575  11.357 -0.0546  0.6999  0.1381
 5631TIP3    H238309   5.286   2.469  11.437  0.7231  1.5508  0.5684
 5632TIP3   OH238310   5.830   5.775  16.456  0.3914 -0.0431 -0.1060
 5632TIP3    H138311   5.847   5.869  16.448 -0.8128  0.1939 -0.0815
 5632TIP3    H238312   5.749   5.760  16.406 -0.0567 -0.8535  0.8077
 5633TIP3   OH238313   2.881   0.314   0.106 -0.2025  0.1843 -0.1484
 5633TIP3    H138314   2.827   0.352   0.037 -1.9468  0.6943  1.4074
 5633TIP3    H238315   2.917   0.389   0.153  0.1122 -0.1358  0.1253
 5634TIP3   OH238316   5.031   6.259  17.202  0.4185  0.7006  0.2379
 5634TIP3    H138317   5.098   6.245  17.269 -0.5431  2.1269  1.5910
 5634TIP3    H238318   4.956   6.294  17.251 -0.8695  0.3634 -1.3940
 5635TIP3   OH238319   6.323   5.932   3.822  0.1479 -0.2996  0.0840
 5635TIP3    H138320   6.286   5.871   3.759 -0.2741  0.3942 -0.3514
 5635TIP3    H238321   6.380   5.878   3.877  0.9793 -0.8091 -1.2461
 5636TIP3   OH238322   3.936   5.357  13.262 -0.1759  0.9629  0.1549
 5636TIP3    H138323   3.857   5.347  13.315  0.0713 -0.9965  0.2195
 5636TIP3    H238324   3.988   5.422  13.308 -0.5814  0.3051  1.5848
 5637TIP3   OH238325   0.981   3.815  17.165  0.4883  0.6214  0.8179
 5637TIP3    H138326   0.972   3.904  17.130  1.3635  0.3643 -0.0892
 5637TIP3    H238327   0.913   3.765  17.122  1.0154  0.4989  0.1199
 5638TIP3   OH238328   5.337   6.425   5.225 -0.5897  0.1142 -0.2898
 5638TIP3    H138329   5.370   6.487   5.160 -1.1085  1.4378  0.6592
 5638TIP3    H238330   5.394   6.437   5.301 -0.2489 -1.1136 -0.3268
 5639TIP3   OH238331   3.449   3.114   3.021  0.9084 -0.4640  0.2008
 5639TIP3    H138332   3.365   3.070   3.006  0.3716  0.1388  1.3736
 5639TIP3    H238333   3.454   3.126   3.116  1.4145  1.2657 -0.0139
 5640TIP3   OH238334   4.868   3.835  17.087 -0.3046 -0.0039 -0.0328
 5640TIP3    H138335   4.804   3.856  17.155 -0.6362 -0.1711 -0.2889
 5640TIP3    H238336   4.834   3.877  17.008  1.0091  1.7549  0.2691
 5641TIP3   OH238337   5.833   0.480   2.380 -0.3184  0.2788 -1.2216
 5641TIP3    H138338   5.749   0.523   2.395 -0.7657 -0.8039 -0.4423
 5641TIP3    H238339   5.847   0.485   2.286 -1.2934  0.4239 -1.3641
 5642TIP3   OH238340   2.506   0.487   4.376  1.0569 -0.0113  0.5370
 5642TIP3    H138341   2.581   0.438   4.410  0.6654 -0.3355  0.9449
 5642TIP3    H238342   2.443   0.487   4.447  0.9682  0.9338  0.4734
 5643TIP3   OH238343   3.684   1.171   2.332  0.0178 -0.2446  0.2761
 5643TIP3    H138344   3.656   1.254   2.292  0.3207 -0.2457  0.0525
 5643TIP3    H238345   3.715   1.195   2.419  1.1411  0.0552 -0.1838
 5644TIP3   OH238346   3.215   0.015  12.188  0.1761  0.3404 -0.2011
 5644TIP3    H138347   3.202  -0.048  12.117  1.0004 -0.8649  0.6775
 5644TIP3    H238348   3.127   0.047  12.208 -0.4527 -1.4545  0.1297
 5645TIP3   OH238349   4.419   6.725   0.425 -0.7100  0.1691  0.0854
 5645TIP3    H138350   4.371   6.764   0.353  0.0860  3.9257  1.3705
 5645TIP3    H238351   4.484   6.669   0.383 -1.6240  0.5643 -1.9597
 5646TIP3   OH238352   0.642   1.601  14.154  0.0858  0.8606  0.0676
 5646TIP3    H138353   0.554   1.599  14.192 -0.0389 -0.0537 -0.2406
 5646TIP3    H238354   0.633   1.653  14.074 -0.1639  0.8082  0.0627
 5647TIP3   OH238355   0.946   2.390  10.990  0.1278  0.2029 -0.4229
 5647TIP3    H138356   1.037   2.407  10.964  0.3345 -0.0704  0.0949
 5647TIP3    H238357   0.898   2.468  10.964  0.4275  0.1611 -1.1101
 5648TIP3   OH238358   4.133   0.984   5.826  0.3119 -0.2998  0.2995
 5648TIP3    H138359   4.070   0.913   5.838 -0.8749  0.3390 -1.7177
 5648TIP3    H238360   4.215   0.949   5.860 -0.9441 -1.4095  2.4020
 5649TIP3   OH238361   3.019   6.776   0.851  0.1934 -0.4879  0.4040
 5649TIP3    H138362   3.051   6.799   0.938 -0.7196 -0.3486  0.7089
 5649TIP3    H238363   3.086   6.811   0.792  0.3349  0.3074  1.0063
 5650TIP3   OH238364   2.654   6.045   5.992 -0.4647 -0.4143 -0.3297
 5650TIP3    H138365   2.746   6.069   6.008 -0.2142 -2.1203  1.1049
 5650TIP3    H238366   2.652   5.950   5.999 -2.2630 -0.4652 -0.9401
 5651TIP3   OH238367   6.287   2.478  13.857 -0.6818 -0.5774  0.5840
 5651TIP3    H138368   6.294   2.404  13.918  0.9481 -0.1857  0.9318
 5651TIP3    H238369   6.373   2.519  13.860 -0.5560 -0.5140 -1.9772
 5652TIP3   OH238370   5.767   1.119  15.042  0.1518  0.0366 -0.2401
 5652TIP3    H138371   5.689   1.096  15.093  0.5000 -0.8987 -0.1021
 5652TIP3    H238372   5.825   1.043  15.051  1.4236  1.0323  0.3048
 5653TIP3   OH238373   0.268   5.063  14.269 -0.0425 -0.1492 -0.1248
 5653TIP3    H138374   0.262   4.971  14.242  1.6319  0.3482 -2.5364
 5653TIP3    H238375   0.214   5.110  14.205  2.5536  0.8965 -1.7251
 5654TIP3   OH238376   3.178   0.612   5.408  1.0107  0.2991  0.2441
 5654TIP3    H138377   3.145   0.587   5.322  1.7242 -0.8250  0.2697
 5654TIP3    H238378   3.180   0.707   5.407  0.1113  0.3156 -0.6360
 5655TIP3   OH238379   3.177   0.701   5.783  0.1917  0.2664 -0.4275
 5655TIP3    H138380   3.193   0.755   5.860 -1.4679 -0.6002  0.5838
 5655TIP3    H238381   3.100   0.739   5.742 -1.4610 -1.6444  0.7155
 5656TIP3   OH238382   6.548   1.590   0.846 -0.2842  0.3586 -0.5240
 5656TIP3    H138383   6.505   1.674   0.859  1.0265  0.8937  0.5826
 5656TIP3    H238384   6.639   1.604   0.873  0.1491 -1.2216 -0.9953
 5657TIP3   OH238385   0.372   2.936   2.952  0.5265  0.3884  1.1930
 5657TIP3    H138386   0.311   2.976   3.013 -0.3945 -0.9042  1.1505
 5657TIP3    H238387   0.430   3.008   2.925  0.4106  1.1536  2.9036
 5658TIP3   OH238388   6.259   5.474  13.672  0.7865 -0.2273  0.3292
 5658TIP3    H138389   6.340   5.476  13.723  1.6752 -1.8369 -0.9406
 5658TIP3    H238390   6.281   5.521  13.591  1.0338 -2.1536 -0.7683
 5659TIP3   OH238391   5.429   5.659  11.961 -0.0743  0.2959 -0.1228
 5659TIP3    H138392   5.457   5.628  11.875  0.1435 -2.0753  0.7194
 5659TIP3    H238393   5.481   5.607  12.023 -1.4782  0.6925  1.4512
 5660TIP3   OH238394   1.943   2.770   1.312  0.1872  0.4637 -0.5452
 5660TIP3    H138395   1.903   2.812   1.388 -0.9134 -1.0149 -0.2560
 5660TIP3    H238396   2.037   2.776   1.328 -0.0196  0.4512  0.7903
 5661TIP3   OH238397   3.560   5.653  12.046 -0.2925  0.2138  0.3703
 5661TIP3    H138398   3.616   5.579  12.069  0.9170  0.8160 -0.5124
 5661TIP3    H238399   3.582   5.720  12.109  0.0062  0.4605  0.0070
 5662TIP3   OH238400   2.494   6.163   1.507  0.0921  0.1283  0.3144
 5662TIP3    H138401   2.574   6.113   1.523 -0.0604  0.1747  1.3424
 5662TIP3    H238402   2.487   6.168   1.412  0.6891 -0.8624  0.2029
 5663TIP3   OH238403   2.119   5.004  13.626  0.0053 -0.2640  0.0118
 5663TIP3    H138404   2.169   5.074  13.669  0.2184  0.1465 -0.8941
 5663TIP3    H238405   2.059   4.972  13.695  1.3128 -0.5920  1.0352
 5664TIP3   OH238406   2.382   1.264  15.325  0.2759 -0.8546 -0.5989
 5664TIP3    H138407   2.424   1.341  15.286  0.3135 -0.5828 -0.0303
 5664TIP3    H238408   2.390   1.196  15.257 -0.0491 -0.2752 -1.2340
 5665TIP3   OH238409   5.590   3.077  13.749  0.1179 -0.1089 -0.2320
 5665TIP3    H138410   5.685   3.072  13.735  0.2022  0.1370  0.2465
 5665TIP3    H238411   5.563   3.156  13.703 -0.1346 -1.1048 -1.8603
 5666TIP3   OH238412   4.789   5.527  13.308  0.0171 -0.5113  0.0341
 5666TIP3    H138413   4.726   5.466  13.345 -0.5833 -0.2594 -0.5538
 5666TIP3    H238414   4.736   5.592  13.262  0.6160  0.6565  0.9224
 5667TIP3   OH238415   4.108   4.083  13.382 -0.3016 -0.0768  0.3078
 5667TIP3    H138416   4.188   4.135  13.379 -0.6443  0.6285  2.0444
 5667TIP3    H238417   4.101   4.044  13.295  1.0631  1.1342 -0.3853
 5668TIP3   OH238418   3.756   4.154  16.947  0.3321  0.1929 -0.2593
 5668TIP3    H138419   3.760   4.154  16.851  0.9862  0.3155 -0.2341
 5668TIP3    H238420   3.841   4.187  16.975  1.0096 -1.9333  0.3971
 5669TIP3   OH238421   0.013   5.506  12.565  0.4155  0.0481 -0.3903
 5669TIP3    H138422   0.109   5.510  12.567  0.4967 -1.4890 -0.1523
 5669TIP3    H238423  -0.007   5.437  12.502 -0.5680  0.7749 -0.8982
 5670TIP3   OH238424   1.649   4.234   3.772 -0.1988 -0.6690 -0.0398
 5670TIP3    H138425   1.675   4.168   3.708 -1.2314 -0.2777 -0.8872
 5670TIP3    H238426   1.725   4.292   3.778  1.3455 -2.7039  1.8534
 5671TIP3   OH238427   4.481   1.546   5.088 -0.3107 -0.2172 -0.0316
 5671TIP3    H138428   4.558   1.602   5.095 -0.2126 -0.4014  0.4294
 5671TIP3    H238429   4.516   1.456   5.090 -0.6091 -0.3167  1.2812
 5672TIP3   OH238430   5.889   2.697   6.384 -0.0198  0.0567 -0.1191
 5672TIP3    H138431   5.820   2.745   6.338  0.2989  1.8379  1.1631
 5672TIP3    H238432   5.849   2.613   6.407 -1.7190  0.9624  0.4061
 5673TIP3   OH238433   0.880   6.115   4.439  0.1029 -0.2529  0.5874
 5673TIP3    H138434   0.801   6.138   4.391  0.7789 -0.5574 -0.7153
 5673TIP3    H238435   0.852   6.050   4.503 -0.7888  0.0480  0.5132
 5674TIP3   OH238436   4.042   3.643  14.664 -0.0495  0.1430 -0.7544
 5674TIP3    H138437   3.994   3.650  14.747  0.6671 -1.6078 -0.1415
 5674TIP3    H238438   4.100   3.719  14.663 -1.3270  1.1592 -0.5301
 5675TIP3   OH238439   4.814   3.192   4.182  0.5302  0.2109 -0.3038
 5675TIP3    H138440   4.806   3.245   4.261  2.7669 -1.9769  1.5735
 5675TIP3    H238441   4.885   3.233   4.133  1.0390 -0.0105  0.2396
 5676TIP3   OH238442   0.893   6.674  13.875 -0.3387 -0.2919  0.2688
 5676TIP3    H138443   0.844   6.756  13.865  0.7380  0.5718  1.6891
 5676TIP3    H238444   0.984   6.702  13.885  0.2624 -1.7671 -0.6983
 5677TIP3   OH238445   3.388   1.825   5.737  0.1424 -0.2258 -0.5432
 5677TIP3    H138446   3.376   1.732   5.715 -0.4336 -0.0853 -0.8492
 5677TIP3    H238447   3.335   1.872   5.673 -2.7826  0.1473  1.9424
 5678TIP3   OH238448   3.638   4.680  13.216 -0.2745  0.1516 -0.1794
 5678TIP3    H138449   3.705   4.616  13.196 -0.3589 -0.3402  1.0546
 5678TIP3    H238450   3.572   4.668  13.147  0.2301 -0.3203 -0.5878
 5679TIP3   OH238451   3.943   2.133  16.807  0.7714  0.3652  0.5016
 5679TIP3    H138452   3.983   2.180  16.734  0.6947  2.4870  1.7589
 5679TIP3    H238453   3.996   2.157  16.883 -1.1435  0.9341  1.7212
 5680TIP3   OH238454   0.348   1.197  10.426 -0.1978 -0.3705 -0.1338
 5680TIP3    H138455   0.265   1.234  10.395 -0.8071 -0.4817  1.2650
 5680TIP3    H238456   0.385   1.152  10.350 -2.5043 -2.2012 -0.2993
 5681TIP3   OH238457   4.803   6.707  15.575  0.2962  0.0737 -0.0881
 5681TIP3    H138458   4.763   6.757  15.645 -0.7522  0.1736 -0.7340
 5681TIP3    H238459   4.824   6.622  15.615  2.7201  1.1847  1.1994
 5682TIP3   OH238460   2.159   2.181  11.163 -0.1403 -0.4229 -0.7646
 5682TIP3    H138461   2.225   2.220  11.105  0.4941 -0.8386 -0.3336
 5682TIP3    H238462   2.208   2.120  11.218 -0.6878  0.1113  0.3614
 5683TIP3   OH238463   3.864   2.284   2.843 -0.3818 -0.4499  0.0770
 5683TIP3    H138464   3.850   2.275   2.749 -0.1809 -0.7236  0.0715
 5683TIP3    H238465   3.932   2.352   2.851 -0.1326 -0.6873  0.0056
 5684TIP3   OH238466   1.394   2.613   3.803  0.0597 -0.0349  0.0401
 5684TIP3    H138467   1.473   2.584   3.757  0.0560 -0.4281  0.2836
 5684TIP3    H238468   1.329   2.545   3.785 -0.6725  0.9887 -1.3646
 5685TIP3   OH238469   3.729   6.152  13.338 -0.1088 -0.6833  0.5221
 5685TIP3    H138470   3.710   6.178  13.248  0.3754  0.2356  0.6661
 5685TIP3    H238471   3.821   6.125  13.336  0.3276  0.7028  1.0053
 5686TIP3   OH238472   0.071   1.782   3.430  0.0638  0.6670  0.3578
 5686TIP3    H138473   0.001   1.786   3.496  0.9046  0.9334  1.2576
 5686TIP3    H238474   0.072   1.691   3.402 -1.3241  0.8662 -0.4400
 5687TIP3   OH238475   2.670   4.805   2.039  0.6287 -0.2585 -0.1566
 5687TIP3    H138476   2.612   4.834   2.109  0.2914 -0.3507 -0.3943
 5687TIP3    H238477   2.746   4.767   2.084  0.7660  0.3763  0.1554
 5688TIP3   OH238478   4.976   2.122  16.707 -0.2370 -0.0841 -0.1136
 5688TIP3    H138479   5.065   2.094  16.685 -0.2882  0.8349 -1.6518
 5688TIP3    H238480   4.964   2.204  16.658 -1.6358  0.2527  0.7383
 5689TIP3   OH238481   1.691   1.475  13.570  0.0936 -0.2406 -0.7682
 5689TIP3    H138482   1.653   1.402  13.521 -0.1644 -0.0541 -0.8479
 5689TIP3    H238483   1.634   1.485  13.646 -1.7582  1.8681 -2.3031
 5690TIP3   OH238484   3.938   1.333   2.016 -0.0341  0.8118  0.1276
 5690TIP3    H138485   3.897   1.319   1.930  0.7478  1.9633 -0.4558
 5690TIP3    H238486   3.952   1.428   2.021 -1.0180  0.9048  1.9864
 5691TIP3   OH238487   6.083   1.150   5.008 -0.1575  0.1599  0.6977
 5691TIP3    H138488   6.173   1.116   5.009 -0.6603 -1.3333 -0.7526
 5691TIP3    H238489   6.078   1.206   5.085  1.7535 -0.4328  1.3111
 5692TIP3   OH238490   5.822   0.985  11.776 -0.2247  0.6941  0.5719
 5692TIP3    H138491   5.894   1.012  11.833 -0.2205  0.5347  0.6441
 5692TIP3    H238492   5.798   1.064  11.728  0.5146  0.5754 -0.0186
 5693TIP3   OH238493   0.827   0.507  13.673 -0.4819  0.2226 -0.2349
 5693TIP3    H138494   0.919   0.534  13.685 -0.2953  0.6051 -2.1983
 5693TIP3    H238495   0.832   0.414  13.651 -0.3904  0.5442 -1.7363
 5694TIP3   OH238496   3.514   4.820   0.347 -0.2704  0.1390 -0.5702
 5694TIP3    H138497   3.495   4.730   0.321 -1.7212  0.0908  0.5446
 5694TIP3    H238498   3.470   4.874   0.281 -0.2396  0.0320 -0.6781
 5695TIP3   OH238499   2.671   6.615   1.393 -0.0839 -0.5703 -0.0009
 5695TIP3    H138500   2.633   6.652   1.473  1.4214  1.5377 -0.1703
 5695TIP3    H238501   2.753   6.574   1.422  0.9111  0.9720 -0.5268
 5696TIP3   OH238502   6.575   3.247  13.121  0.1257 -0.0362 -0.0990
 5696TIP3    H138503   6.575   3.306  13.045  1.5928  0.7718  0.4871
 5696TIP3    H238504   6.594   3.304  13.195  0.1751 -1.0482  0.6805
 5697TIP3   OH238505   5.851   3.938  11.368 -0.4399 -0.1736 -0.3389
 5697TIP3    H138506   5.826   3.892  11.448 -1.3821  0.9381  0.0385
 5697TIP3    H238507   5.892   3.871  11.313 -0.7117 -1.1799  0.6516
 5698TIP3   OH238508   1.747   4.075  13.155 -0.6750 -0.0404 -0.1907
 5698TIP3    H138509   1.806   4.001  13.168 -1.9373 -1.2596 -1.0363
 5698TIP3    H238510   1.800   4.152  13.173  1.3740 -1.0353 -1.5792
 5699TIP3   OH238511   6.255   5.211   3.374 -0.0910 -0.3539 -0.1144
 5699TIP3    H138512   6.253   5.242   3.464  4.4769  0.6924 -0.1583
 5699TIP3    H238513   6.281   5.119   3.380 -1.9681 -0.9555 -0.4079
 5700TIP3   OH238514   6.781   1.843  14.250  0.2186  0.5339 -0.3168
 5700TIP3    H138515   6.783   1.774  14.184 -1.7848  0.0180  0.0978
 5700TIP3    H238516   6.690   1.872  14.252  0.3116  0.8799  1.8536
 5701TIP3   OH238517   3.630   2.554   4.351  0.6114  0.0533 -0.2830
 5701TIP3    H138518   3.674   2.483   4.399  0.6326 -1.2042 -2.0563
 5701TIP3    H238519   3.629   2.627   4.412  2.5078 -0.8118  0.8839
 5702TIP3   OH238520   5.129   5.280   5.039  0.3466 -0.0835 -0.2718
 5702TIP3    H138521   5.046   5.320   5.011  0.5844  0.9001  0.3788
 5702TIP3    H238522   5.155   5.225   4.965  0.1615  1.2234 -1.3430
 5703TIP3   OH238523   3.276   6.481   0.507 -0.2964 -0.0816 -0.0630
 5703TIP3    H138524   3.356   6.514   0.466  0.9421 -0.9261  1.5710
 5703TIP3    H238525   3.208   6.491   0.440  1.2420  0.3512 -1.6010
 5704TIP3   OH238526   2.590   6.022  15.782 -0.0330  0.2834  0.5226
 5704TIP3    H138527   2.664   6.083  15.790 -0.0749  0.7998 -2.0594
 5704TIP3    H238528   2.541   6.055  15.707 -1.8043 -1.1962  0.9772
 5705TIP3   OH238529   0.272   6.204   1.373  0.0580 -0.2098 -0.8358
 5705TIP3    H138530   0.232   6.129   1.419  0.7155  0.7712  1.4909
 5705TIP3    H238531   0.199   6.248   1.330 -0.6749 -0.9398 -0.3658
 5706TIP3   OH238532   5.622   2.765  13.739  0.1910 -0.6724  0.3721
 5706TIP3    H138533   5.557   2.709  13.782 -0.5873 -0.8658 -0.9814
 5706TIP3    H238534   5.598   2.854  13.764  0.6211 -0.8517  1.4637
 5707TIP3   OH238535   1.550   3.883  12.143 -0.2241  0.5974 -0.4153
 5707TIP3    H138536   1.643   3.904  12.134 -0.4549  1.8489 -0.0033
 5707TIP3    H238537   1.538   3.869  12.236 -0.2970 -0.4027 -0.5614
 5708TIP3   OH238538   4.490   0.025  13.847  0.5583 -0.0606 -0.3887
 5708TIP3    H138539   4.534  -0.032  13.910 -0.0604 -0.0812  0.0292
 5708TIP3    H238540   4.472   0.105  13.895 -0.5116 -0.3204 -0.3229
 5709TIP3   OH238541   5.286   4.577   4.680 -0.3397  0.0290 -0.4498
 5709TIP3    H138542   5.324   4.496   4.714 -0.9946 -0.2426 -0.3589
 5709TIP3    H238543   5.215   4.548   4.623 -0.5905  0.5453 -0.3997
 5710TIP3   OH238544   4.092   1.578  14.122  0.2618 -0.2294 -0.3348
 5710TIP3    H138545   4.093   1.515  14.050 -0.3656 -1.2285  0.4930
 5710TIP3    H238546   4.011   1.627  14.110 -0.2372 -0.9209  0.0972
 5711TIP3   OH238547   6.242   5.134  17.021  0.0420 -0.3158 -0.0287
 5711TIP3    H138548   6.242   5.207  17.082  0.4373  1.3468 -1.9342
 5711TIP3    H238549   6.154   5.132  16.985 -0.4015 -1.7358  1.0399
 5712TIP3   OH238550   1.279   0.709  11.873  0.6041  0.0156 -0.1098
 5712TIP3    H138551   1.219   0.743  11.808 -0.6852  1.3824  1.6982
 5712TIP3    H238552   1.234   0.722  11.957  2.5603 -0.8065  1.1430
 5713TIP3   OH238553   0.935   6.549  16.846 -0.5161 -0.4925 -0.1543
 5713TIP3    H138554   0.863   6.492  16.872 -0.6144 -0.0620  0.5560
 5713TIP3    H238555   1.009   6.520  16.898 -0.1303 -1.0142 -0.9745
 5714TIP3   OH238556   3.383   5.147   4.546  0.3673  0.4714  0.0496
 5714TIP3    H138557   3.460   5.094   4.526  0.3892  0.2892  0.6079
 5714TIP3    H238558   3.367   5.133   4.639 -1.1055 -0.5057 -0.3099
 5715TIP3   OH238559   6.017   1.354  11.687 -0.2328  0.0557  0.3411
 5715TIP3    H138560   6.005   1.423  11.621 -0.0096  0.2768  0.5303
 5715TIP3    H238561   6.107   1.324  11.675 -0.9035 -1.5424 -1.0126
 5716TIP3   OH238562   4.250   6.159   0.388 -0.3741 -0.1488  0.8228
 5716TIP3    H138563   4.265   6.104   0.311  0.2670  1.6622 -0.4247
 5716TIP3    H238564   4.156   6.171   0.391 -0.5742 -1.6653  1.4019
 5717TIP3   OH238565   4.719   4.693   0.630 -0.5789  0.1244  0.4176
 5717TIP3    H138566   4.775   4.699   0.708 -0.2237  1.4040  0.1016
 5717TIP3    H238567   4.749   4.765   0.574 -1.7337  0.0754 -0.2986
 5718TIP3   OH238568   3.805   1.290  12.252  0.2336 -0.1063 -1.1308
 5718TIP3    H138569   3.836   1.205  12.219  0.1862 -0.3396 -0.5957
 5718TIP3    H238570   3.731   1.312  12.197 -0.2589 -0.8107 -0.7650
 5719TIP3   OH238571   2.940   0.494   3.011 -0.2555 -0.0292 -0.2371
 5719TIP3    H138572   2.900   0.508   3.097 -0.7528  0.8979 -0.6024
 5719TIP3    H238573   3.018   0.548   3.011 -0.4169  0.2082 -0.4710
 5720TIP3   OH238574   2.393   1.090   3.006  0.2683 -0.4768 -0.0891
 5720TIP3    H138575   2.458   1.121   3.069  1.9593 -1.7401 -1.1384
 5720TIP3    H238576   2.368   1.003   3.037  0.5890 -0.8167 -0.7460
 5721TIP3   OH238577   3.771   1.069  16.146  0.1117 -0.0540 -0.3958
 5721TIP3    H138578   3.753   1.031  16.232 -0.9218 -0.5653 -0.8165
 5721TIP3    H238579   3.816   1.000  16.097 -2.0370 -0.9463 -1.2637
 5722TIP3   OH238580   5.502   3.547   2.922  0.3555 -0.0257  0.4133
 5722TIP3    H138581   5.422   3.599   2.934 -0.9505 -2.0447  1.0942
 5722TIP3    H238582   5.544   3.548   3.008  1.0217  0.9247  0.0902
 5723TIP3   OH238583   6.467   4.741   4.307 -0.6420  0.4556 -0.6223
 5723TIP3    H138584   6.395   4.720   4.367  0.1365 -1.2204 -0.2275
 5723TIP3    H238585   6.423   4.768   4.226 -1.7036  2.3678  0.5226
 5724TIP3   OH238586   3.415   5.608   6.574 -0.1352  0.6303  0.2492
 5724TIP3    H138587   3.486   5.561   6.618  1.4632 -0.9366 -3.6033
 5724TIP3    H238588   3.336   5.581   6.622  1.3456 -1.4373  1.7364
 5725TIP3   OH238589   1.008   6.279  16.356  0.9061 -0.2201  0.2587
 5725TIP3    H138590   1.007   6.185  16.339  0.1339 -0.4012  1.2080
 5725TIP3    H238591   0.943   6.292  16.425  0.4273  1.1132 -0.3960
 5726TIP3   OH238592   3.173   1.431  12.535 -0.1785 -0.2746 -0.4969
 5726TIP3    H138593   3.123   1.384  12.468  0.9536  0.6280 -2.0230
 5726TIP3    H238594   3.259   1.390  12.533 -0.4225 -0.9709  1.2266
 5727TIP3   OH238595   3.023   4.461   3.315  0.0642  0.0287 -0.4934
 5727TIP3    H138596   2.988   4.391   3.260 -1.0285  0.7302 -0.7209
 5727TIP3    H238597   3.092   4.502   3.262 -0.0586 -0.1603 -0.7995
 5728TIP3   OH238598   3.304   4.245  12.434 -0.0843  0.2751  0.5185
 5728TIP3    H138599   3.395   4.215  12.435  0.5411  1.8087 -1.7570
 5728TIP3    H238600   3.277   4.243  12.525  2.2297 -0.2630  1.2650
 5729TIP3   OH238601   2.614   0.883   3.310 -0.2149 -0.1131  0.4004
 5729TIP3    H138602   2.691   0.854   3.261  0.5046 -2.1318  2.5475
 5729TIP3    H238603   2.649   0.909   3.396 -1.5417  2.4039  0.2660
 5730TIP3   OH238604   1.807   0.282   1.316 -0.0343 -0.0482 -0.3633
 5730TIP3    H138605   1.728   0.245   1.354  0.1907  0.2849  0.4379
 5730TIP3    H238606   1.876   0.263   1.379  0.2736  0.8278 -0.4218
 5731TIP3   OH238607   4.236   2.956  17.018 -0.3545 -0.2842  0.4421
 5731TIP3    H138608   4.153   3.004  17.012 -1.1338 -1.6308 -0.0915
 5731TIP3    H238609   4.278   2.970  16.933 -0.1695  0.1612  0.6066
 5732TIP3   OH238610   0.583   2.661  12.868  0.0349  0.8002  0.2359
 5732TIP3    H138611   0.489   2.640  12.874 -0.4503  1.8926 -2.3514
 5732TIP3    H238612   0.613   2.613  12.791  1.2170  1.7316  0.1029
 5733TIP3   OH238613   1.222   3.282   6.428 -0.4038  0.0852 -0.3472
 5733TIP3    H138614   1.278   3.344   6.380 -2.0176  1.3515 -0.6703
 5733TIP3    H238615   1.214   3.207   6.368 -0.5399  0.6848 -1.1036
 5734TIP3   OH238616   6.724   2.542   4.082  0.2027  0.5706 -0.2450
 5734TIP3    H138617   6.743   2.542   4.176  0.5312  1.0000 -0.3088
 5734TIP3    H238618   6.775   2.615   4.048 -0.1761  0.6173 -0.7067
 5735TIP3   OH238619   0.556   1.405  15.520 -0.3727 -0.1130  0.6877
 5735TIP3    H138620   0.460   1.404  15.523 -0.4174 -2.0285 -0.0475
 5735TIP3    H238621   0.582   1.445  15.603 -1.7985  0.3781  0.9325
 5736TIP3   OH238622   3.661   4.599   1.236 -0.1281 -0.0223  0.0021
 5736TIP3    H138623   3.671   4.626   1.327  3.1160 -0.8801  0.0251
 5736TIP3    H238624   3.636   4.679   1.190  0.6382  1.0088  1.2968
 5737TIP3   OH238625   2.064   4.611  16.852  0.0384 -0.3069 -0.9533
 5737TIP3    H138626   2.054   4.546  16.921  0.9948 -1.1577 -1.6102
 5737TIP3    H238627   2.145   4.588  16.807 -1.4344 -0.9106 -3.5524
 5738TIP3   OH238628   4.487   5.914   5.264  0.1773  0.1470  0.3883
 5738TIP3    H138629   4.408   5.930   5.315  0.2216 -0.0515  0.5196
 5738TIP3    H238630   4.478   5.971   5.188  1.1002  2.0244  1.6346
 5739TIP3   OH238631   5.212   3.722   0.446 -0.1804  0.1675  0.0835
 5739TIP3    H138632   5.128   3.680   0.429 -0.1337  0.6086 -1.4425
 5739TIP3    H238633   5.213   3.738   0.540 -1.2673 -0.9515  0.3170
 5740TIP3   OH238634   6.276   1.799  12.115 -0.2545 -0.5764 -0.1310
 5740TIP3    H138635   6.325   1.765  12.190 -2.1649 -0.7409  1.1136
 5740TIP3    H238636   6.205   1.736  12.102 -1.0173  0.4169 -0.9083
 5741TIP3   OH238637   2.652   6.759   2.735 -0.3740 -0.6193 -0.4373
 5741TIP3    H138638   2.687   6.697   2.670  0.6008 -0.2300 -0.2943
 5741TIP3    H238639   2.577   6.799   2.692  0.8734  0.3921 -1.7460
 5742TIP3   OH238640   5.072   3.329   2.775 -0.0049  0.2510  0.5156
 5742TIP3    H138641   5.068   3.350   2.868 -0.9865  3.6405 -0.1484
 5742TIP3    H238642   5.040   3.239   2.769 -1.2231  0.4090  3.3119
 5743TIP3   OH238643   4.296   2.303   3.458 -0.2458 -0.2084 -1.2370
 5743TIP3    H138644   4.284   2.398   3.448 -1.5679 -0.4326 -2.0815
 5743TIP3    H238645   4.209   2.267   3.442  0.1879 -1.5572 -0.6531
 5744TIP3   OH238646   4.471   3.374  16.236 -0.1216 -0.3552 -0.3434
 5744TIP3    H138647   4.489   3.373  16.330 -2.7866 -0.2052  0.2365
 5744TIP3    H238648   4.549   3.413  16.197  0.5773  0.6531  1.9058
 5745TIP3   OH238649   1.860   4.680  10.503  0.0062  0.1059 -0.0489
 5745TIP3    H138650   1.783   4.703  10.452 -2.2295 -0.2031  2.9185
 5745TIP3    H238651   1.886   4.761  10.547  0.5476 -0.0798 -0.0127
 5746TIP3   OH238652   0.345   5.852   3.620 -0.3675  0.2050 -0.4145
 5746TIP3    H138653   0.332   5.802   3.700  4.5793 -0.1070  0.5258
 5746TIP3    H238654   0.329   5.943   3.645  1.2850  0.1291  1.0727
 5747TIP3   OH238655   0.789   0.977  13.821  0.5251  0.4124 -0.3389
 5747TIP3    H138656   0.702   0.936  13.818  1.0431 -0.6474 -2.1617
 5747TIP3    H238657   0.787   1.030  13.901 -1.3651 -0.5369  0.3171
 5748TIP3   OH238658   4.019   0.922   2.381  0.2515 -0.1227 -0.2067
 5748TIP3    H138659   4.103   0.903   2.339 -0.5294 -0.5834 -1.6415
 5748TIP3    H238660   3.966   0.958   2.311 -1.7036 -2.5790 -0.1395
 5749TIP3   OH238661   2.800   2.416   3.603 -0.3848 -0.1373 -0.2122
 5749TIP3    H138662   2.725   2.400   3.661 -0.6645  0.1921 -0.4754
 5749TIP3    H238663   2.780   2.364   3.525  0.1172 -0.7892  0.0811
 5750TIP3   OH238664   4.045   5.620  16.175 -0.0798  0.5623  0.6985
 5750TIP3    H138665   4.010   5.686  16.235  0.1379  1.4822 -0.1776
 5750TIP3    H238666   4.077   5.669  16.100  1.0466 -0.4506  0.4816
 5751TIP3   OH238667   2.013   3.701  16.390  0.2311  0.5690 -0.0312
 5751TIP3    H138668   1.928   3.659  16.406 -0.0778  1.2342  0.1563
 5751TIP3    H238669   2.028   3.690  16.296 -1.4772  2.8912 -0.6835
 5752TIP3   OH238670   2.067   3.847  13.703  0.3338 -0.0213  0.8097
 5752TIP3    H138671   2.015   3.921  13.735 -1.1832 -1.0132  0.7533
 5752TIP3    H238672   2.010   3.771  13.714  0.6698 -0.7854 -1.9125
 5753TIP3   OH238673   2.107   1.022  14.414  0.3444 -0.0944  0.1880
 5753TIP3    H138674   2.179   1.053  14.469  0.7417  1.0174 -0.9052
 5753TIP3    H238675   2.149   0.970  14.346  0.0483 -0.0015 -0.0701
 5754TIP3   OH238676   6.689   6.057  14.566  0.0023  0.3771 -0.4237
 5754TIP3    H138677   6.752   5.994  14.531  1.1635  1.5910 -0.5893
 5754TIP3    H238678   6.699   6.051  14.661  0.7343  0.9261 -0.4643
 5755TIP3   OH238679   1.397   6.441  13.245 -0.0676  0.3267  0.4446
 5755TIP3    H138680   1.393   6.375  13.314 -0.1458  0.6512  0.7543
 5755TIP3    H238681   1.411   6.523  13.292  0.0820  0.5235  0.0591
 5756TIP3   OH238682   0.220   4.517  14.641 -0.3246 -0.0899 -0.5252
 5756TIP3    H138683   0.177   4.601  14.629  0.0773  0.0439 -1.1080
 5756TIP3    H238684   0.179   4.460  14.576  0.5727  0.1286 -1.3208
 5757TIP3   OH238685   6.502   5.817   0.917 -0.0848 -0.6894  0.0951
 5757TIP3    H138686   6.469   5.902   0.946  0.1323 -0.8750  0.9160
 5757TIP3    H238687   6.562   5.838   0.845 -1.5311 -0.3058 -1.0493
 5758TIP3   OH238688   1.141   1.702  15.287  0.2195 -0.0661  0.5926
 5758TIP3    H138689   1.046   1.706  15.273  0.2951  0.8687  0.2254
 5758TIP3    H238690   1.167   1.618  15.251 -0.4389 -0.2133  0.4390
 5759TIP3   OH238691   4.148   3.783  15.988 -0.0894 -0.3602  0.0929
 5759TIP3    H138692   4.120   3.767  16.078 -0.4513 -0.4974 -0.0418
 5759TIP3    H238693   4.224   3.840  15.996  0.2480 -0.8696  0.5096
 5760TIP3   OH238694   6.006   3.643  11.992  0.1504  0.4543  0.3085
 5760TIP3    H138695   5.979   3.561  12.032 -3.0237 -0.0252 -2.3628
 5760TIP3    H238696   6.088   3.623  11.947  0.0901 -0.9076  0.7756
 5761TIP3   OH238697   1.445   5.880   5.118 -0.0123 -0.6737  0.7860
 5761TIP3    H138698   1.387   5.954   5.104 -0.5440 -1.0686  0.8792
 5761TIP3    H238699   1.455   5.874   5.213 -0.0654 -0.7880  0.7857
 5762TIP3   OH238700   1.019   0.919   3.545  0.2019 -0.0851 -0.0861
 5762TIP3    H138701   0.988   0.990   3.489  0.9475 -0.0619 -0.4866
 5762TIP3    H238702   1.060   0.963   3.619 -0.2432 -0.1078  0.1714
 5763TIP3   OH238703   3.859   4.723  15.152 -0.3514  0.3396 -0.3136
 5763TIP3    H138704   3.925   4.654  15.142 -0.7620  0.0007 -0.6994
 5763TIP3    H238705   3.805   4.717  15.074 -0.5701  0.9123 -0.2130
 5764TIP3   OH238706   3.149   2.607  13.557  0.5320  0.2973 -0.1162
 5764TIP3    H138707   3.090   2.549  13.509  1.3016  0.6139 -1.4924
 5764TIP3    H238708   3.216   2.549  13.593  1.1950  0.2710 -1.3339
 5765TIP3   OH238709   3.719   6.311   2.220 -0.0342  0.1195  0.2790
 5765TIP3    H138710   3.644   6.333   2.165  0.5633 -1.1008 -1.0875
 5765TIP3    H238711   3.738   6.220   2.199  1.0408  0.0240  1.5608
 5766TIP3   OH238712   1.299   5.799   0.733 -0.1981 -0.1722 -0.0785
 5766TIP3    H138713   1.304   5.754   0.818  0.9253  0.6471  0.3149
 5766TIP3    H238714   1.367   5.866   0.738 -1.7897  1.5863 -0.6347
 5767TIP3   OH238715   4.303   0.354  11.426  0.1419 -0.0621  1.0074
 5767TIP3    H138716   4.232   0.295  11.453  0.7900 -1.3731 -0.0096
 5767TIP3    H238717   4.263   0.410  11.359  0.8303 -3.3986 -2.5940
 5768TIP3   OH238718   6.305   1.239  12.416 -0.6892 -0.1163 -0.3232
 5768TIP3    H138719   6.351   1.266  12.495 -2.0303  0.9603  0.1437
 5768TIP3    H238720   6.263   1.156  12.439  1.0879 -1.1874 -0.8078
 5769TIP3   OH238721   3.268   3.993  12.115 -0.8416 -0.5783  0.0208
 5769TIP3    H138722   3.173   4.006  12.120 -0.6958  0.6265 -0.1330
 5769TIP3    H238723   3.296   3.981  12.206 -1.3794 -2.9655 -0.0667
 5770TIP3   OH238724   0.423   4.138   6.161 -0.2383  0.1837  0.2960
 5770TIP3    H138725   0.381   4.098   6.237  0.4262  2.0732  1.7430
 5770TIP3    H238726   0.514   4.108   6.166  0.0812  1.2012  0.9540
 5771TIP3   OH238727   3.056   1.772  15.985  0.5098 -0.2066 -0.3698
 5771TIP3    H138728   3.059   1.857  15.941  0.9232 -0.1106 -0.1617
 5771TIP3    H238729   3.125   1.777  16.051  0.7923 -0.8442 -0.6089
 5772TIP3   OH238730   4.263   0.907  16.627  0.3019  0.2358 -0.8107
 5772TIP3    H138731   4.302   0.840  16.571 -0.5483  0.3659 -1.5748
 5772TIP3    H238732   4.285   0.880  16.716  1.1354 -0.3095 -1.1792
 5773TIP3   OH238733   6.192   2.672   4.832  0.0782  0.1127  0.1530
 5773TIP3    H138734   6.249   2.673   4.755 -0.4878 -0.0078 -0.2724
 5773TIP3    H238735   6.105   2.651   4.798  0.0119 -1.0462  0.9609
 5774TIP3   OH238736   3.797   1.678   1.936  0.1933 -0.3661  0.6577
 5774TIP3    H138737   3.780   1.770   1.914  0.9163 -0.1919  0.7788
 5774TIP3    H238738   3.812   1.636   1.851 -0.4898 -0.4495  0.5769
 5775TIP3   OH238739   1.891   2.951  15.125  0.0842 -0.1289  0.0147
 5775TIP3    H138740   1.802   2.919  15.136  0.9857 -2.1647  2.5146
 5775TIP3    H238741   1.882   3.045  15.112 -2.4437 -0.4289 -0.9199
 5776TIP3   OH238742   1.081   1.262   4.759 -0.1856  0.2052  0.2858
 5776TIP3    H138743   1.028   1.327   4.806 -1.7282 -0.5818 -0.2816
 5776TIP3    H238744   1.027   1.183   4.760 -0.2895  0.1135 -2.7019
 5777TIP3   OH238745   1.230   5.118   2.981 -0.4754  0.4836 -0.0416
 5777TIP3    H138746   1.185   5.169   3.048 -2.2407 -0.9415 -0.0596
 5777TIP3    H238747   1.312   5.091   3.022 -0.7613  1.0508  0.9334
 5778TIP3   OH238748   2.229   5.707  14.786 -0.1264 -0.0358  0.0254
 5778TIP3    H138749   2.195   5.646  14.721  0.9418  0.2978 -0.8905
 5778TIP3    H238750   2.165   5.777  14.789 -1.5685 -1.3564  1.3783
 5779TIP3   OH238751   5.460   0.069   3.590  0.4432  0.0365  0.8223
 5779TIP3    H138752   5.395   0.081   3.521  0.3387  0.2267  0.9518
 5779TIP3    H238753   5.408   0.057   3.669  0.5617 -0.2622  0.8540
 5780TIP3   OH238754   4.486   3.162   5.055 -0.3177  0.5470 -0.0558
 5780TIP3    H138755   4.400   3.122   5.049  0.0457 -0.4813  1.1426
 5780TIP3    H238756   4.537   3.103   5.111  0.8114  1.7207  0.2255
 5781TIP3   OH238757   0.484   5.253   1.384 -0.0283  0.2428  0.0282
 5781TIP3    H138758   0.434   5.172   1.374 -1.5435  1.0103  0.9840
 5781TIP3    H238759   0.573   5.225   1.405 -0.5487 -1.1642  0.4264
 5782TIP3   OH238760   0.826   2.198  16.123 -0.1425 -0.0781 -0.3568
 5782TIP3    H138761   0.866   2.247  16.051  0.8242 -1.3759 -0.7391
 5782TIP3    H238762   0.874   2.227  16.201 -0.9102  1.0203 -0.2747
 5783TIP3   OH238763   0.113   0.047  11.235 -0.2332 -0.0855  0.3111
 5783TIP3    H138764   0.170   0.103  11.288  0.2393  0.0767 -0.3546
 5783TIP3    H238765   0.069   0.108  11.175 -3.3674  0.2476  2.6784
 5784TIP3   OH238766   5.747   6.686  15.608 -0.1912  0.3782  0.2999
 5784TIP3    H138767   5.788   6.662  15.691 -0.6978 -0.0913  0.4230
 5784TIP3    H238768   5.658   6.651  15.614  0.0727 -0.5556 -0.8546
 5785TIP3   OH238769   1.910   3.416   5.162  0.1702  0.4669 -0.1236
 5785TIP3    H138770   1.920   3.457   5.076  1.4574  0.6349  0.0909
 5785TIP3    H238771   1.948   3.329   5.152 -0.2663  0.2440  0.1069
 5786TIP3   OH238772   1.349   1.292  14.132 -0.0988  0.1982 -0.2279
 5786TIP3    H138773   1.266   1.330  14.104 -0.0540  0.3184 -0.1967
 5786TIP3    H238774   1.378   1.347  14.204  0.1915  0.3769 -0.4782
 5787TIP3   OH238775   0.961   4.712  16.762  0.2809  0.3739 -0.1779
 5787TIP3    H138776   0.932   4.742  16.848  0.8331 -0.1238  0.1947
 5787TIP3    H238777   0.881   4.701  16.712 -0.0481  0.6556  0.2811
 5788TIP3   OH238778   2.768   2.747  15.209  0.2915  0.0197 -0.5159
 5788TIP3    H138779   2.827   2.735  15.284 -0.3688 -1.4159 -0.1816
 5788TIP3    H238780   2.754   2.841  15.204  2.3888  0.3883 -0.4434
 5789TIP3   OH238781   3.627   1.170   5.693  0.0365 -0.3973  1.0145
 5789TIP3    H138782   3.535   1.187   5.670  0.3764 -0.2136 -0.2922
 5789TIP3    H238783   3.641   1.079   5.666 -0.1681 -0.9526  2.6524
 5790TIP3   OH238784   0.905   1.213   6.491  0.2496 -0.1075  0.5788
 5790TIP3    H138785   0.952   1.183   6.414 -1.4056  2.4673 -1.6134
 5790TIP3    H238786   0.962   1.279   6.531 -0.1233  0.7300 -0.2399
 5791TIP3   OH238787   3.593   4.363  11.333  0.2485  0.0540 -0.2468
 5791TIP3    H138788   3.595   4.295  11.266 -1.0059  0.4965 -0.7469
 5791TIP3    H238789   3.607   4.445  11.286  1.3957  0.2114  0.3103
 5792TIP3   OH238790   4.146   6.367  12.220 -0.3498  0.4082 -0.5676
 5792TIP3    H138791   4.066   6.419  12.233  0.1857  1.1495 -0.1752
 5792TIP3    H238792   4.217   6.426  12.244  0.2057 -1.0311  1.5574
 5793TIP3   OH238793   5.248   4.583  16.220 -0.0102 -0.0048 -0.0114
 5793TIP3    H138794   5.157   4.574  16.247  0.2545 -0.6221  0.7450
 5793TIP3    H238795   5.290   4.627  16.294  0.2907  0.3504 -0.3904
 5794TIP3   OH238796   2.581   4.189   1.853  0.7482 -0.5052  0.8444
 5794TIP3    H138797   2.626   4.273   1.847  0.8727 -0.6379 -0.7897
 5794TIP3    H238798   2.504   4.207   1.906  0.4898  0.7892  0.0829
 5795TIP3   OH238799   1.857   2.317   1.069  0.2258 -0.6232  0.7237
 5795TIP3    H138800   1.807   2.324   1.150 -1.4507  1.3782 -0.3968
 5795TIP3    H238801   1.926   2.383   1.077  1.7362 -2.2206  1.5500
 5796TIP3   OH238802   3.329   2.411   3.229 -0.3516  0.3853  0.1759
 5796TIP3    H138803   3.395   2.357   3.272 -0.3418 -0.1585 -0.4872
 5796TIP3    H238804   3.286   2.350   3.168  0.8046  1.5092 -1.8480
 5797TIP3   OH238805   2.789   2.298   3.353 -0.1492 -0.8281 -0.3964
 5797TIP3    H138806   2.710   2.317   3.302  1.0368 -1.0125 -2.3947
 5797TIP3    H238807   2.858   2.347   3.310  1.2500 -2.4161 -0.0555
 5798TIP3   OH238808   3.373   2.892  14.428 -0.1167  0.2935  0.8147
 5798TIP3    H138809   3.433   2.897  14.502  0.6619  0.8264  0.1759
 5798TIP3    H238810   3.366   2.798  14.410  0.0416  0.1877  1.2889
 5799TIP3   OH238811   0.499   1.282  11.469  0.3414  0.7691  0.3496
 5799TIP3    H138812   0.410   1.319  11.474  0.5083  1.3671 -0.8592
 5799TIP3    H238813   0.554   1.347  11.513  0.2002  0.4348  1.0319
 5800TIP3   OH238814   4.079   1.061  16.463 -0.4636 -0.2159 -0.0198
 5800TIP3    H138815   3.999   1.010  16.477 -0.1454 -0.4537  0.9847
 5800TIP3    H238816   4.149   1.009  16.503  0.3252 -0.3493 -1.4893
 5801TIP3   OH238817   6.691   1.008  13.519 -0.4881  0.2776  0.5451
 5801TIP3    H138818   6.734   1.016  13.604  0.6107 -2.3825  0.3158
 5801TIP3    H238819   6.635   0.931  13.527 -1.2746  0.6715 -0.7986
 5802TIP3   OH238820   2.127   1.352  11.021  0.2000  0.3664 -0.8659
 5802TIP3    H138821   2.130   1.392  10.934 -2.8505  1.8431 -0.4220
 5802TIP3    H238822   2.050   1.295  11.019  2.5297 -3.0873 -0.3832
 5803TIP3   OH238823   0.764   1.756   3.460 -0.1208 -0.3380  0.2506
 5803TIP3    H138824   0.788   1.843   3.428 -1.0705 -1.0121 -2.5225
 5803TIP3    H238825   0.728   1.710   3.384  1.6158 -3.6731  1.2148
 5804TIP3   OH238826   3.848   4.660  11.303 -0.1041 -0.2828 -0.0301
 5804TIP3    H138827   3.802   4.637  11.384 -0.3128 -1.1341 -0.3774
 5804TIP3    H238828   3.835   4.584  11.246  2.0752 -0.7433 -0.0081
 5805TIP3   OH238829   6.061   0.309   2.829  0.4717 -0.1776  0.0882
 5805TIP3    H138830   6.029   0.355   2.752  0.5196  0.1855  0.2808
 5805TIP3    H238831   6.093   0.379   2.886  2.1399 -0.5572 -0.3382
 5806TIP3   OH238832   3.577   4.827  15.054  0.6451  0.0159  0.3639
 5806TIP3    H138833   3.551   4.870  15.136 -0.4598 -1.5818  0.8917
 5806TIP3    H238834   3.495   4.817  15.006  1.2199  0.5159 -0.7635
 5807TIP3   OH238835   2.360   4.527   6.362  0.4374 -0.4990  0.0718
 5807TIP3    H138836   2.431   4.512   6.423  1.5874  0.0918 -1.0811
 5807TIP3    H238837   2.400   4.573   6.288 -1.7856  3.0434  0.8655
 5808TIP3   OH238838   2.251   0.615   0.059  0.7838  0.7859  0.0779
 5808TIP3    H138839   2.179   0.552   0.052  2.0458 -0.6670 -0.1433
 5808TIP3    H238840   2.209   0.700   0.043 -0.8153 -0.0526 -0.4290
 5809TIP3   OH238841   1.196   2.899  11.419 -0.0764 -0.1543 -0.0787
 5809TIP3    H138842   1.226   2.842  11.348 -0.3940 -0.5337  0.0926
 5809TIP3    H238843   1.277   2.921  11.467  0.1173 -0.0217 -0.4591
 5810TIP3   OH238844   0.451   4.696  11.312  0.0111  0.6464 -0.2723
 5810TIP3    H138845   0.390   4.763  11.279 -0.4670  0.7459  0.7615
 5810TIP3    H238846   0.475   4.727  11.399  1.4646  0.5359 -0.6203
 5811TIP3   OH238847   1.372   4.622  12.355 -0.4685  0.4095 -0.0337
 5811TIP3    H138848   1.317   4.646  12.429  1.1151 -0.0394  1.3460
 5811TIP3    H238849   1.311   4.618  12.281 -2.0820  0.9895  1.1886
 5812TIP3   OH238850   0.676   4.398   1.430  0.5678  0.3390 -0.3255
 5812TIP3    H138851   0.748   4.358   1.380 -1.5526 -2.1288 -1.6250
 5812TIP3    H238852   0.686   4.363   1.518  1.5765  0.9266 -0.1904
 5813TIP3   OH238853   5.205   5.317  17.154  0.5745  0.5818  0.2250
 5813TIP3    H138854   5.113   5.320  17.180  0.2869  0.3312 -0.7323
 5813TIP3    H238855   5.240   5.240  17.199 -0.4405 -1.1007 -1.6822
 5814TIP3   OH238856   1.688   4.549   0.098 -0.1591 -0.4321  0.2599
 5814TIP3    H138857   1.639   4.473   0.131 -1.5920  0.9815  1.5865
 5814TIP3    H238858   1.706   4.529   0.006 -2.9865 -1.1753 -0.2115
 5815TIP3   OH238859   4.941   0.525   6.037  0.3145 -0.0114 -0.3281
 5815TIP3    H138860   4.875   0.461   6.062 -0.7390  0.0494 -2.6887
 5815TIP3    H238861   4.924   0.600   6.094 -2.6209  0.5246 -1.7179
 5816TIP3   OH238862   4.830   0.947  15.733 -0.4454  0.2909  0.0973
 5816TIP3    H138863   4.787   0.909  15.809 -2.8274 -0.1937 -1.3882
 5816TIP3    H238864   4.898   0.884  15.709 -1.3875 -0.8448  0.3248
 5817TIP3   OH238865   2.962   3.507   1.450  0.0216  0.1873 -0.0278
 5817TIP3    H138866   2.933   3.523   1.360  0.3792  1.5386  0.0653
 5817TIP3    H238867   2.881   3.494   1.500 -0.2430  0.4941 -0.3718
 5818TIP3   OH238868   3.351   0.111  14.338 -0.9825  0.0789 -0.5273
 5818TIP3    H138869   3.413   0.148  14.401 -2.4016  2.8502 -0.5950
 5818TIP3    H238870   3.328   0.026  14.375 -0.1133  0.6742  1.5545
 5819TIP3   OH238871   4.208   3.863   5.929 -0.1654 -0.6533 -0.4930
 5819TIP3    H138872   4.301   3.870   5.910 -0.2837 -2.0095 -1.6996
 5819TIP3    H238873   4.168   3.831   5.848 -1.7250  0.0950 -0.0736
 5820TIP3   OH238874   2.029   0.165   1.184 -0.0805  0.1121 -0.2657
 5820TIP3    H138875   1.948   0.192   1.227  0.3816 -0.0174  0.7210
 5820TIP3    H238876   2.092   0.155   1.255  0.6060 -0.5226 -0.9382
 5821TIP3   OH238877   4.605   5.787  11.932 -0.3545 -0.3203 -0.3948
 5821TIP3    H138878   4.693   5.797  11.896 -0.8165  1.4971 -1.1331
 5821TIP3    H238879   4.559   5.868  11.907 -1.9525 -0.8091  0.7772
 5822TIP3   OH238880   2.217   0.075   1.408 -0.2305 -0.0458 -0.3079
 5822TIP3    H138881   2.190  -0.016   1.421  1.6541 -0.9137 -1.9405
 5822TIP3    H238882   2.304   0.081   1.446 -0.3477  1.1224 -0.1689
 5823TIP3   OH238883   5.253   1.395  15.999  0.0044  0.5706 -0.3699
 5823TIP3    H138884   5.163   1.405  16.030 -0.0810 -0.3332 -0.3175
 5823TIP3    H238885   5.278   1.484  15.972 -0.4995  1.0502  0.6669
 5824TIP3   OH238886   3.438   6.754  13.470  0.2008  0.0768 -0.5007
 5824TIP3    H138887   3.507   6.794  13.523 -0.2626  0.9792 -0.5489
 5824TIP3    H238888   3.451   6.660  13.480  1.5979  0.2185 -0.7200
 5825TIP3   OH238889   4.553   2.879   4.791  0.0941 -0.0291 -0.0609
 5825TIP3    H138890   4.567   2.837   4.706  1.1460  3.5002 -1.8194
 5825TIP3    H238891   4.629   2.853   4.843  0.1275 -1.1535 -0.6393
 5826TIP3   OH238892   5.390   6.710  12.444 -0.0453 -0.0123 -0.3812
 5826TIP3    H138893   5.438   6.644  12.394  0.6148  0.4063 -0.3160
 5826TIP3    H238894   5.298   6.685  12.434  0.2678 -2.2606  1.5033
 5827TIP3   OH238895   0.342   5.550  11.814  0.9157  0.0900  0.1208
 5827TIP3    H138896   0.335   5.598  11.732 -1.3057  1.0812  0.8398
 5827TIP3    H238897   0.265   5.576  11.865  0.3957 -3.0756  1.1763
 5828TIP3   OH238898   0.536   1.023  11.101 -0.5245 -0.1379 -0.1610
 5828TIP3    H138899   0.507   0.990  11.015  0.3105 -1.7060  0.1185
 5828TIP3    H238900   0.456   1.054  11.143 -1.1387 -0.4884 -1.0395
 5829TIP3   OH238901   3.438   5.290  11.393  0.3266  0.0582  0.6660
 5829TIP3    H138902   3.434   5.199  11.424 -0.8643 -0.2142 -0.2029
 5829TIP3    H238903   3.423   5.284  11.299 -1.0519  1.2309  0.7664
 5830TIP3   OH238904   5.044   1.586  12.449  0.3130  0.1472 -0.3811
 5830TIP3    H138905   5.117   1.626  12.498  0.0318 -1.2857  1.3326
 5830TIP3    H238906   5.074   1.496  12.431 -1.0096 -0.4756  0.3925
 5831TIP3   OH238907   6.215   2.253  16.245 -0.2030 -0.5856  0.1468
 5831TIP3    H138908   6.243   2.272  16.335  0.6678 -1.3246  0.0535
 5831TIP3    H238909   6.296   2.224  16.201 -0.5728 -0.0334 -0.9294
 5832TIP3   OH238910   5.622   1.678   2.008  0.5081 -0.1131  0.0675
 5832TIP3    H138911   5.693   1.680   1.944 -1.7653 -3.2187 -2.9126
 5832TIP3    H238912   5.579   1.764   1.999  1.1369  0.0689 -1.5500
 5833TIP3   OH238913   0.386   0.681  16.786  0.2098 -0.2935  0.2987
 5833TIP3    H138914   0.421   0.656  16.701  1.0574 -1.0594  0.8517
 5833TIP3    H238915   0.339   0.763  16.770  0.7601 -0.1768 -0.8027
 5834TIP3   OH238916   5.665   0.830   0.753  0.3562  0.3354 -0.3007
 5834TIP3    H138917   5.574   0.845   0.778  0.2219  1.7002 -1.4948
 5834TIP3    H238918   5.676   0.878   0.671  1.4285 -1.9915 -1.6262
 5835TIP3   OH238919   2.822   3.988  13.961  0.2612 -0.4064  0.6200
 5835TIP3    H138920   2.767   4.062  13.935 -0.1763 -0.0971  2.3351
 5835TIP3    H238921   2.822   3.931  13.884  0.2063  1.1202 -0.5737
 5836TIP3   OH238922   1.809   2.516  15.321 -0.0948  0.1750  0.5451
 5836TIP3    H138923   1.806   2.564  15.239  2.2467  1.8919  1.3420
 5836TIP3    H238924   1.739   2.553  15.374 -0.2909  0.5155  0.0476
 5837TIP3   OH238925   3.144   3.279  11.557 -0.7649  0.1366  0.0445
 5837TIP3    H138926   3.235   3.310  11.554 -1.1675  1.2954 -1.3454
 5837TIP3    H238927   3.142   3.218  11.631  1.4163 -0.7961 -0.5723
 5838TIP3   OH238928   4.034   2.243  13.890 -0.1179 -0.2970  0.3580
 5838TIP3    H138929   4.106   2.190  13.854 -0.3804 -1.0278  0.8826
 5838TIP3    H238930   3.957   2.187  13.882 -0.4181  0.0432  0.8378
 5839TIP3   OH238931   6.559   5.558  11.968  0.2639 -0.1571  0.3922
 5839TIP3    H138932   6.481   5.505  11.950 -0.9549  2.0021 -1.0203
 5839TIP3    H238933   6.615   5.543  11.892 -0.8755  1.8599 -0.9291
 5840TIP3   OH238934   3.357   1.823  13.016 -0.2332  0.2316 -0.4776
 5840TIP3    H138935   3.376   1.915  12.994 -0.0370  0.5130  0.7957
 5840TIP3    H238936   3.378   1.816  13.109 -1.7843 -0.7081 -0.1658
 5841TIP3   OH238937   4.315   6.352  15.268 -0.1246  0.4158  0.2551
 5841TIP3    H138938   4.366   6.323  15.344  0.9482 -0.1363 -0.6376
 5841TIP3    H238939   4.362   6.428  15.235  2.1741 -1.9585 -2.5029
 5842TIP3   OH238940   0.865   3.376   3.911 -0.0722  0.1467 -0.0785
 5842TIP3    H138941   0.938   3.380   3.849 -1.6659 -0.8712 -2.1455
 5842TIP3    H238942   0.859   3.464   3.947  1.7383  0.4198 -0.3553
 5843TIP3   OH238943   6.523   1.872   3.915  0.1376 -0.0235 -0.1912
 5843TIP3    H138944   6.488   1.849   3.829  1.7109 -1.4742 -0.4855
 5843TIP3    H238945   6.601   1.818   3.925  0.8697  1.2470  1.5088
 5844TIP3   OH238946   2.001   1.430   6.056 -0.1392  0.1136  0.0337
 5844TIP3    H138947   1.996   1.454   6.148  0.0378 -0.2695  0.1471
 5844TIP3    H238948   1.962   1.504   6.009 -2.4933 -0.7344  0.5441
 5845TIP3   OH238949   1.150   2.724   2.628  0.0692 -0.3489 -0.4367
 5845TIP3    H138950   1.242   2.700   2.617  0.1929 -0.6976  1.1864
 5845TIP3    H238951   1.104   2.671   2.563  1.0560  0.3975 -1.8216
 5846TIP3   OH238952   3.283   2.533  12.139  0.0804 -0.5486  0.5428
 5846TIP3    H138953   3.244   2.608  12.093  0.8713 -0.6508 -0.3316
 5846TIP3    H238954   3.363   2.515  12.090 -0.0445 -1.9052  0.8101
 5847TIP3   OH238955   2.850   0.231   1.202  0.0510 -0.2815  0.3638
 5847TIP3    H138956   2.785   0.301   1.194  2.1535  1.7797  0.3827
 5847TIP3    H238957   2.806   0.164   1.255 -2.3488  0.5580 -0.3927
 5848TIP3   OH238958   5.651   6.004  12.721  0.3629  0.1854 -0.6179
 5848TIP3    H138959   5.620   5.968  12.804  0.3778  2.2684  0.3291
 5848TIP3    H238960   5.747   5.995  12.726  0.3308 -0.2856 -0.7255
 5849TIP3   OH238961   3.236   2.141  14.442  0.5342  0.1784 -0.5496
 5849TIP3    H138962   3.328   2.165  14.429  0.5580  1.5658  1.6886
 5849TIP3    H238963   3.186   2.216  14.410  0.1781 -0.3356 -1.2303
 5850TIP3   OH238964   4.829   0.236   5.462  0.7241 -0.1557 -0.4175
 5850TIP3    H138965   4.746   0.260   5.421 -0.2794 -0.9375  1.0756
 5850TIP3    H238966   4.895   0.282   5.410 -0.7303  1.6956 -0.7455
 5851TIP3   OH238967   6.473   2.264   5.222  0.1197  0.6793  0.0137
 5851TIP3    H138968   6.510   2.346   5.255 -1.2739  1.4591 -0.2764
 5851TIP3    H238969   6.545   2.223   5.174  0.2475  2.9049 -1.8759
 5852TIP3   OH238970   2.681   1.469   0.283  0.3925 -0.3928  0.0771
 5852TIP3    H138971   2.768   1.450   0.318  0.4843  0.4445  0.3205
 5852TIP3    H238972   2.650   1.543   0.335 -0.2373 -0.3312 -0.3769
 5853TIP3   OH238973   0.135   6.201  14.114 -0.0536 -0.3193 -0.0057
 5853TIP3    H138974   0.210   6.253  14.087 -0.5843  1.6205  1.9913
 5853TIP3    H238975   0.145   6.191  14.209 -2.8413  1.0079  0.5333
 5854TIP3   OH238976   2.212   6.686   1.767  1.1000  0.1263 -0.4031
 5854TIP3    H138977   2.194   6.780   1.773  1.0294  0.0522  0.8075
 5854TIP3    H238978   2.201   6.665   1.674 -1.9549  0.7309 -0.2989
 5855TIP3   OH238979   3.627   2.995   0.043  0.4610  0.6081 -0.0568
 5855TIP3    H138980   3.617   3.029  -0.046 -2.1672 -0.9641 -0.4595
 5855TIP3    H238981   3.720   2.973   0.049  0.4069 -1.1316 -3.2195
 5856TIP3   OH238982   4.546   4.701   5.128  0.5985 -0.2239 -0.2296
 5856TIP3    H138983   4.494   4.632   5.086 -1.4027 -0.0190  1.6906
 5856TIP3    H238984   4.594   4.742   5.056 -0.1932 -1.8923 -1.8108
 5857TIP3   OH238985   3.069   1.340   2.677  0.1946 -0.1141 -0.6602
 5857TIP3    H138986   3.150   1.376   2.641  1.7953 -2.5175  0.2344
 5857TIP3    H238987   3.076   1.355   2.771 -1.3387  1.2921 -0.7325
 5858TIP3   OH238988   5.907   0.860  13.792  0.3692  0.7807  0.4371
 5858TIP3    H138989   5.996   0.851  13.758 -0.1942 -1.3374 -0.6599
 5858TIP3    H238990   5.868   0.929  13.739  0.3438 -0.6321 -1.4790
 5859TIP3   OH238991   4.544   1.952   0.874  0.5410 -0.1333 -0.4689
 5859TIP3    H138992   4.510   1.869   0.842 -0.5356  0.1628 -0.1481
 5859TIP3    H238993   4.466   2.003   0.895  1.1674  1.2103 -1.2848
 5860TIP3   OH238994   1.282   1.786  11.912 -0.5939  0.9754  0.0025
 5860TIP3    H138995   1.361   1.750  11.954 -0.7136  0.4388 -0.2124
 5860TIP3    H238996   1.316   1.849  11.848 -0.2255 -0.2696 -1.0916
 5861TIP3   OH238997   5.685   6.539  12.143 -0.3964 -0.7496 -0.1843
 5861TIP3    H138998   5.638   6.538  12.060 -0.4493 -0.4532 -0.1607
 5861TIP3    H238999   5.725   6.453  12.149  2.1196  0.1630 -1.9658
 5862TIP3   OH239000   0.442   0.880  13.569 -0.0433  0.2237 -0.7395
 5862TIP3    H139001   0.484   0.966  13.575  0.5848 -0.1200  0.0327
 5862TIP3    H239002   0.511   0.822  13.536  0.5593 -0.6078  1.7570
 5863TIP3   OH239003   5.139   2.214  12.376  0.0944 -0.7839  0.0295
 5863TIP3    H139004   5.133   2.281  12.307  1.5073 -1.4667 -0.8162
 5863TIP3    H239005   5.049   2.202  12.405 -0.2616  1.1246 -0.1327
 5864TIP3   OH239006   4.942   3.952   3.843 -0.1646 -0.5164  0.7112
 5864TIP3    H139007   4.917   3.989   3.927 -0.7656  2.3694 -0.6020
 5864TIP3    H239008   4.936   4.025   3.782  0.2339 -2.4789 -1.8708
 5865TIP3   OH239009   0.914   1.952   6.369  0.2311 -0.2264  0.1046
 5865TIP3    H139010   0.962   2.025   6.407 -0.0176  0.3836 -0.7274
 5865TIP3    H239011   0.847   1.993   6.314 -1.4684 -1.0310  1.4464
 5866TIP3   OH239012   5.935   6.653   5.838 -0.2922 -0.3894  0.2604
 5866TIP3    H139013   5.959   6.686   5.925  1.1404  1.8789 -0.8993
 5866TIP3    H239014   5.886   6.573   5.856  1.5115 -1.0307  3.1153
 5867TIP3   OH239015   4.264   5.413   4.114  0.0662 -0.0279 -0.3960
 5867TIP3    H139016   4.277   5.428   4.208  0.6331 -0.0260 -0.4715
 5867TIP3    H239017   4.243   5.500   4.079  1.6529  0.3302 -0.5533
 5868TIP3   OH239018   1.076   4.011  12.888  0.5315 -0.3718 -0.5520
 5868TIP3    H139019   1.007   3.975  12.945 -0.8825  0.2120 -1.8249
 5868TIP3    H239020   1.095   3.940  12.826  1.6943 -0.8201  0.2858
 5869TIP3   OH239021   6.719   3.355   1.052 -0.3907  0.2074 -0.7588
 5869TIP3    H139022   6.752   3.339   0.964 -0.5115 -0.4381 -0.6886
 5869TIP3    H239023   6.796   3.346   1.108  0.0286  2.1786 -0.9318
 5870TIP3   OH239024   5.997   5.589  11.150  0.0822 -0.2182  0.6256
 5870TIP3    H139025   6.038   5.627  11.228  1.3246  0.4109 -0.2814
 5870TIP3    H239026   6.014   5.654  11.081 -1.8094 -0.3076  0.0230
 5871TIP3   OH239027   3.534   5.382   6.722  0.1472 -0.2846  0.4625
 5871TIP3    H139028   3.549   5.309   6.782 -2.2728 -0.1360  1.3466
 5871TIP3    H239029   3.439   5.395   6.724 -0.3659 -1.2875 -4.6004
 5872TIP3   OH239030   2.005   1.394   0.908 -0.1447  0.2874  0.1284
 5872TIP3    H139031   1.934   1.411   0.969 -0.1953 -1.5477  0.6313
 5872TIP3    H239032   2.063   1.333   0.955 -0.1142 -1.0606 -1.5921
 5873TIP3   OH239033   5.610   1.013   6.094  0.3269  0.1154  0.1455
 5873TIP3    H139034   5.590   0.970   6.010  2.9362  0.5705 -0.7866
 5873TIP3    H239035   5.526   1.014   6.140 -0.6205 -2.7513 -1.2409
 5874TIP3   OH239036   5.623   3.073   4.641 -0.1121 -0.3162  0.1123
 5874TIP3    H139037   5.532   3.100   4.635 -0.8729 -2.2681  2.0134
 5874TIP3    H239038   5.624   3.002   4.704  3.1578  1.5683  2.4910
 5875TIP3   OH239039   1.419   6.602  11.160  0.3016 -0.0052 -0.4720
 5875TIP3    H139040   1.378   6.522  11.193  2.1214  0.2948  2.8807
 5875TIP3    H239041   1.513   6.581  11.157  0.7874  1.8931  0.2433
 5876TIP3   OH239042   3.274   2.906   1.758  1.2571  0.0732  0.2597
 5876TIP3    H139043   3.231   2.991   1.768  1.2509 -0.0040  0.9646
 5876TIP3    H239044   3.223   2.847   1.813  0.1699 -0.8078 -1.5861
 5877TIP3   OH239045   5.501   4.241  16.283 -0.4047 -0.3493  0.1101
 5877TIP3    H139046   5.412   4.271  16.263 -0.0302  0.1091 -0.9215
 5877TIP3    H239047   5.520   4.279  16.369 -0.3614  1.5153 -0.6648
 5878TIP3   OH239048   3.785   0.564   3.546 -0.4946 -0.4912 -0.1174
 5878TIP3    H139049   3.811   0.598   3.631 -0.7888 -0.2473 -0.1239
 5878TIP3    H239050   3.846   0.492   3.529 -1.7051 -1.9069  1.2316
 5879TIP3   OH239051   3.307   6.743   0.061 -0.1098  0.2244 -0.1231
 5879TIP3    H139052   3.217   6.740   0.028  0.2144  0.4703 -1.0677
 5879TIP3    H239053   3.297   6.746   0.156 -1.0877 -0.1474 -0.1981
 5880TIP3   OH239054   3.595   2.433   6.225  0.0001 -0.5653  0.4636
 5880TIP3    H139055   3.619   2.341   6.236  1.7175  0.0510  2.8008
 5880TIP3    H239056   3.533   2.449   6.297 -2.8592 -0.5726 -1.8073
 5881TIP3   OH239057   1.094   0.735  14.978  0.2015  0.3636 -0.0270
 5881TIP3    H139058   1.109   0.778  14.894  1.0685 -1.2010 -0.7140
 5881TIP3    H239059   1.002   0.753  14.997 -0.5468 -0.7279 -2.2289
 5882TIP3   OH239060   6.000   1.014  13.021  0.0046 -0.4412 -0.0449
 5882TIP3    H139061   6.094   1.015  13.006 -0.0901 -1.1947 -0.7493
 5882TIP3    H239062   5.983   0.931  13.065 -0.5519 -1.1098 -1.4928
 5883TIP3   OH239063   3.730   0.980  15.573 -0.1540 -0.2912 -0.4405
 5883TIP3    H139064   3.661   1.041  15.551 -0.7005  0.5500  2.9915
 5883TIP3    H239065   3.811   1.030  15.567 -0.1461 -0.4269 -1.5644
 5884TIP3   OH239066   2.363   3.684  16.084 -1.1436 -0.0770 -0.2364
 5884TIP3    H139067   2.421   3.716  16.153 -1.3211 -2.3052  1.0406
 5884TIP3    H239068   2.284   3.738  16.091 -1.5034 -0.7828  1.9222
 5885TIP3   OH239069   3.207   3.166   5.482  0.0399 -0.2023 -0.3351
 5885TIP3    H139070   3.272   3.215   5.533 -0.7404 -0.5001  1.0209
 5885TIP3    H239071   3.126   3.216   5.494 -0.1559 -0.2602 -1.3555
 5886TIP3   OH239072   0.402   3.046  11.038 -0.0293 -0.2191 -0.0497
 5886TIP3    H139073   0.497   3.060  11.030  0.0876 -0.6561  0.5020
 5886TIP3    H239074   0.363   3.126  11.003  0.5403 -0.1142 -0.4618
 5887TIP3   OH239075   2.617   6.715   2.321 -0.6083  0.0951  0.1005
 5887TIP3    H139076   2.660   6.794   2.352  1.1293 -1.3326  1.5261
 5887TIP3    H239077   2.663   6.693   2.240 -0.3322 -0.0657  0.3006
 5888TIP3   OH239078   6.354   2.954  15.584  0.0930 -0.2356  0.1363
 5888TIP3    H139079   6.285   2.966  15.649 -0.4871 -1.1408 -0.2850
 5888TIP3    H239080   6.308   2.919  15.507  0.7536  0.8718 -0.7927
 5889TIP3   OH239081   5.337   5.356  16.525 -0.5423  0.2213  0.2321
 5889TIP3    H139082   5.310   5.342  16.434 -0.7635 -0.0271  0.3377
 5889TIP3    H239083   5.411   5.417  16.518  1.4017 -2.0751 -0.3401
 5890TIP3   OH239084   2.593   4.760  14.863 -0.0403 -0.1662  0.1360
 5890TIP3    H139085   2.623   4.846  14.833  0.3308 -0.8817 -1.6483
 5890TIP3    H239086   2.630   4.752  14.951  0.0678  1.4091  0.2740
 5891TIP3   OH239087   1.138   5.450  13.600 -0.6757 -0.6659  0.1781
 5891TIP3    H139088   1.204   5.465  13.667 -0.0225 -1.0005 -0.3736
 5891TIP3    H239089   1.056   5.439  13.648 -0.0137 -2.2017  1.0179
 5892TIP3   OH239090   5.318   4.122   1.941  0.1404  0.2452 -0.1637
 5892TIP3    H139091   5.290   4.196   1.995 -0.2244  1.2478 -1.6510
 5892TIP3    H239092   5.357   4.061   2.002 -2.6247  0.1084  1.6394
 5893TIP3   OH239093   0.250   1.886   3.678  0.5676  0.2119 -0.1323
 5893TIP3    H139094   0.259   1.934   3.595 -0.0392  2.5457  1.0891
 5893TIP3    H239095   0.242   1.795   3.651  0.1363  0.9167 -2.6702
 5894TIP3   OH239096   3.352   2.125  13.870 -0.2686  0.0669  0.1437
 5894TIP3    H139097   3.290   2.194  13.895  0.0145  0.0818  0.8264
 5894TIP3    H239098   3.431   2.145  13.920  1.1305  1.4017 -2.4228
 5895TIP3   OH239099   1.392   1.933  10.625 -0.8353 -0.0578  0.0090
 5895TIP3    H139100   1.314   1.882  10.602 -0.7713  0.2007 -0.7752
 5895TIP3    H239101   1.358   2.009  10.672 -1.0411 -0.0690 -0.1192
 5896TIP3   OH239102   5.266   2.011  13.493  0.4560  0.4644 -0.4754
 5896TIP3    H139103   5.265   1.921  13.460 -1.7141  0.7541 -1.4005
 5896TIP3    H239104   5.278   2.065  13.415 -0.0869  1.0277 -0.1799
 5897TIP3   OH239105   2.159   1.489  16.856  0.5096  0.1997  0.1554
 5897TIP3    H139106   2.166   1.576  16.817  1.0275  0.1150  0.0488
 5897TIP3    H239107   2.092   1.499  16.924 -0.4491  0.3282 -0.7883
 5898TIP3   OH239108   2.329   4.566   3.320  0.6636 -0.2539 -0.3466
 5898TIP3    H139109   2.250   4.616   3.335  0.3548 -0.4838 -1.1647
 5898TIP3    H239110   2.382   4.581   3.398  0.0149  0.2684  0.0021
 5899TIP3   OH239111   6.314   1.894  10.601  0.0078 -0.6602 -0.5757
 5899TIP3    H139112   6.298   1.916  10.693 -1.8702 -2.1719 -0.4945
 5899TIP3    H239113   6.353   1.807  10.604  1.1217 -0.2121 -1.2104
 5900TIP3   OH239114   0.135   5.057   5.692  0.2045 -0.3783 -0.3193
 5900TIP3    H139115   0.160   4.978   5.741  3.0163 -0.2595 -1.3562
 5900TIP3    H239116   0.161   5.129   5.750 -2.3482 -0.1206  0.6230
 5901TIP3   OH239117   2.481   0.016   1.863 -0.4259 -0.1603  0.1514
 5901TIP3    H139118   2.442   0.103   1.877 -0.9631 -0.4678  0.5961
 5901TIP3    H239119   2.407  -0.045   1.869 -0.6248 -0.4541 -3.2204
 5902TIP3   OH239120   5.652   2.956  11.742 -0.0877 -0.5400 -0.1467
 5902TIP3    H139121   5.584   2.957  11.810  1.5680 -1.0923  1.6069
 5902TIP3    H239122   5.733   2.938  11.790  1.3302  0.2324 -2.1487
 5903TIP3   OH239123   0.432   5.102   6.627  0.2261  0.0335 -0.6109
 5903TIP3    H139124   0.409   5.024   6.577 -0.0206 -2.4714  3.0201
 5903TIP3    H239125   0.349   5.143   6.649  0.2189  0.1025 -0.7703
 5904TIP3   OH239126   4.799   1.269  14.708  0.1467 -0.6251 -0.3364
 5904TIP3    H139127   4.826   1.333  14.773  2.7612 -0.7647 -1.1568
 5904TIP3    H239128   4.819   1.184  14.747  1.1377 -0.7298 -1.0291
 5905TIP3   OH239129   6.339   5.271  16.137  0.4943  0.2243  0.1880
 5905TIP3    H139130   6.375   5.339  16.195  1.1399 -0.3300  0.4500
 5905TIP3    H239131   6.393   5.194  16.155 -0.9254 -0.6829  0.7016
 5906TIP3   OH239132   3.624   5.830   1.262  0.0749 -0.2699 -0.0596
 5906TIP3    H139133   3.592   5.755   1.212 -1.5491  1.8535 -2.4516
 5906TIP3    H239134   3.685   5.874   1.203  1.7345 -0.1439  1.6542
 5907TIP3   OH239135   2.517   5.007   0.104  0.0921 -0.0700 -0.6062
 5907TIP3    H139136   2.454   5.046   0.166  3.0222 -0.5007  2.9933
 5907TIP3    H239137   2.598   4.999   0.154  2.2187 -2.4033 -4.0000
 5908TIP3   OH239138   3.556   5.019  14.312  0.3921 -0.2743 -0.3491
 5908TIP3    H139139   3.571   5.005  14.406 -0.3583  1.2689  0.0456
 5908TIP3    H239140   3.591   4.941  14.270 -1.9196 -2.4470  1.4480
 5909TIP3   OH239141   3.521   5.445  15.654 -0.3674 -0.1832  0.3631
 5909TIP3    H139142   3.430   5.441  15.623 -0.1971  2.0001 -0.5664
 5909TIP3    H239143   3.541   5.538  15.657  1.0265 -0.4684  3.1038
 5910TIP3   OH239144   2.643   6.554  11.657 -0.6086 -0.0910  0.6311
 5910TIP3    H139145   2.669   6.463  11.640  0.9054  0.1440  1.5585
 5910TIP3    H239146   2.725   6.602  11.662 -1.3483  1.1668  1.1558
 5911TIP3   OH239147   6.338   2.236  14.018  0.1822  0.1084  0.0463
 5911TIP3    H139148   6.321   2.185  14.098  0.5746 -0.2678 -0.1078
 5911TIP3    H239149   6.425   2.208  13.990  0.3674  0.8094 -0.0873
 5912TIP3   OH239150   0.824   5.227   0.778 -0.0823 -0.0946 -0.0799
 5912TIP3    H139151   0.818   5.239   0.683 -1.1038 -1.4777 -0.2277
 5912TIP3    H239152   0.894   5.161   0.788  0.3521  0.4016  0.1684
 5913TIP3   OH239153   0.776   4.892  15.144  0.4781  0.2561 -0.5482
 5913TIP3    H139154   0.710   4.961  15.153 -0.0587  0.0899 -2.6666
 5913TIP3    H239155   0.781   4.876  15.050  1.4062 -1.8116 -0.2023
 5914TIP3   OH239156   3.338   0.809  14.758 -0.3981 -0.2607 -0.3782
 5914TIP3    H139157   3.389   0.732  14.732  0.4915  0.8859 -2.2704
 5914TIP3    H239158   3.404   0.871  14.789 -0.9146  0.3384 -0.4585
 5915TIP3   OH239159   4.869   5.677   6.719 -0.4859 -0.3934  0.3084
 5915TIP3    H139160   4.822   5.732   6.656 -0.4698  0.1236  0.7427
 5915TIP3    H239161   4.955   5.664   6.679 -0.0547  0.9204  0.7519
 5916TIP3   OH239162   5.182   1.374   2.555  0.8966 -0.3682 -0.2006
 5916TIP3    H139163   5.201   1.372   2.649 -0.4550 -0.7870  0.0838
 5916TIP3    H239164   5.088   1.393   2.550  0.5276 -2.2530 -1.3997
 5917TIP3   OH239165   0.304   3.919  15.540  0.0668 -0.5088 -0.4959
 5917TIP3    H139166   0.275   3.841  15.494 -0.4798 -1.0362  0.7118
 5917TIP3    H239167   0.226   3.951  15.586  0.8506 -0.6825  1.0196
 5918TIP3   OH239168   1.916   4.977   6.642 -0.3144  0.1105 -0.1765
 5918TIP3    H139169   1.947   4.898   6.687 -2.2240 -0.8424 -0.4015
 5918TIP3    H239170   1.826   4.989   6.675 -0.7427  1.0399 -1.6059
 5919TIP3   OH239171   6.192   2.028   4.963 -0.3790  0.1148 -0.3329
 5919TIP3    H139172   6.103   2.064   4.953  0.0491  0.8276 -1.7835
 5919TIP3    H239173   6.211   2.039   5.056 -1.0590  1.7882 -0.3525
 5920TIP3   OH239174   2.978   1.820   5.708 -0.3943  0.1082 -0.5684
 5920TIP3    H139175   3.011   1.731   5.725  0.4481  0.1508 -1.8204
 5920TIP3    H239176   2.893   1.806   5.666 -0.5759 -0.0873 -0.1393
 5921TIP3   OH239177   2.996   2.011   2.692  0.6242  0.4421  0.3508
 5921TIP3    H139178   3.034   2.020   2.780  0.3472  3.0346  0.2728
 5921TIP3    H239179   3.069   2.026   2.632  0.5345  0.0838  0.1510
 5922TIP3   OH239180   1.077   4.402   2.208 -0.1594  0.0239  0.2282
 5922TIP3    H139181   1.112   4.365   2.127 -0.1162 -0.2370  0.3614
 5922TIP3    H239182   1.153   4.410   2.265 -0.3509 -0.8392  0.6283
 5923TIP3   OH239183   3.933   2.484  14.620  0.2077 -0.3177  0.4187
 5923TIP3    H139184   4.002   2.487  14.687  1.2230 -1.1454 -0.5481
 5923TIP3    H239185   3.946   2.564  14.569 -0.4297  0.2051  1.0535
 5924TIP3   OH239186   3.160   5.312  15.090 -0.3427 -0.0406  0.1860
 5924TIP3    H139187   3.196   5.400  15.076  0.0799 -0.3511 -0.7975
 5924TIP3    H239188   3.132   5.312  15.181  0.6528  0.7644  0.5233
 5925TIP3   OH239189   6.518   0.434  12.061  0.6405  0.5447  0.1156
 5925TIP3    H139190   6.489   0.525  12.070 -0.8912 -0.0816  2.3846
 5925TIP3    H239191   6.560   0.431  11.975 -0.4673  3.0691 -0.6177
 5926TIP3   OH239192   6.043   6.043  14.893  0.5341 -0.2397 -0.3674
 5926TIP3    H139193   5.987   6.087  14.957  0.4280  0.2543 -0.7826
 5926TIP3    H239194   5.999   5.960  14.874  0.4748 -0.3060  0.0655
 5927TIP3   OH239195   2.637   4.290   3.566  0.2535 -0.1005 -0.6613
 5927TIP3    H139196   2.559   4.333   3.530  0.8819  0.3901 -1.4731
 5927TIP3    H239197   2.670   4.235   3.495  1.2951  0.5908 -0.7460
 5928TIP3   OH239198   4.672   0.808   0.169 -0.2377  0.5153 -0.0893
 5928TIP3    H139199   4.717   0.890   0.151 -1.5777  1.3994  0.4095
 5928TIP3    H239200   4.656   0.810   0.264 -3.2465  1.3613 -0.4908
 5929TIP3   OH239201   0.589   4.198   0.448 -0.6564 -0.1184 -0.1495
 5929TIP3    H139202   0.596   4.108   0.479  0.3626  0.0967  0.2809
 5929TIP3    H239203   0.539   4.191   0.366 -1.4999 -0.9367  0.4192
 5930TIP3   OH239204   5.469   6.768   1.803 -0.0396  0.1791  0.1203
 5930TIP3    H139205   5.500   6.700   1.743 -3.3103 -0.7693 -0.6917
 5930TIP3    H239206   5.414   6.825   1.748  0.0525  1.6075  1.4531
 5931TIP3   OH239207   1.270   3.107  15.900 -0.1203  0.2832  0.2009
 5931TIP3    H139208   1.356   3.085  15.936  0.9473  2.6391 -0.6776
 5931TIP3    H239209   1.286   3.117  15.806 -2.2439 -3.0103 -0.6503
 5932TIP3   OH239210   6.285   5.118  12.776 -0.0602  0.1236  0.2380
 5932TIP3    H139211   6.209   5.134  12.833 -0.6615 -1.1814 -0.1590
 5932TIP3    H239212   6.329   5.043  12.816 -0.1455 -0.4195 -0.6548
 5933TIP3   OH239213   0.371   5.109   2.896  0.3512 -0.0353 -0.0050
 5933TIP3    H139214   0.395   5.064   2.977 -1.9738  0.1011  0.8265
 5933TIP3    H239215   0.404   5.052   2.827  0.9272 -0.9947  1.0255
 5934TIP3   OH239216   0.566   1.398   6.233  0.1054 -0.1318  0.4418
 5934TIP3    H139217   0.549   1.478   6.181  2.1548  0.7776  1.0811
 5934TIP3    H239218   0.635   1.423   6.294  0.9114 -2.4587  0.5784
 5935TIP3   OH239219   3.277   4.930  12.423 -0.2588  0.0740  0.7849
 5935TIP3    H139220   3.222   4.872  12.370  0.0910 -0.8472  1.4123
 5935TIP3    H239221   3.366   4.913  12.392 -0.1456  0.2242  1.0299
 5936TIP3   OH239222   5.136   6.008  13.515  0.3543 -0.6540  0.3734
 5936TIP3    H139223   5.155   6.073  13.582  1.2642  0.5691 -1.0115
 5936TIP3    H239224   5.070   6.050  13.459 -0.3122 -1.6096  0.4077
 5937TIP3   OH239225   6.644   5.237   5.573 -0.6955  0.3200  0.0453
 5937TIP3    H139226   6.568   5.249   5.517 -0.1941  0.9533 -0.5023
 5937TIP3    H239227   6.660   5.142   5.571 -0.2738  0.4050 -1.4233
 5938TIP3   OH239228   3.587   0.902   0.814 -0.1784  0.0750  0.0950
 5938TIP3    H139229   3.564   0.941   0.729  1.1861  2.4848  0.7634
 5938TIP3    H239230   3.653   0.836   0.792  0.1663  0.6709 -0.7221
 5939TIP3   OH239231   6.616   2.664  12.892 -0.0949  0.3664 -0.2553
 5939TIP3    H139232   6.595   2.605  12.964  1.8847 -0.6234 -0.4141
 5939TIP3    H239233   6.558   2.637  12.821  0.2806 -0.9239 -0.0861
 5940TIP3   OH239234   0.981   3.503   0.403 -0.0672  0.0311 -0.1191
 5940TIP3    H139235   0.967   3.471   0.492 -1.0562  0.4918 -0.0994
 5940TIP3    H239236   1.068   3.470   0.379 -0.9207 -2.4816 -0.0312
 5941TIP3   OH239237   1.973   1.366   3.996 -0.0032 -0.1525  0.5812
 5941TIP3    H139238   2.047   1.426   3.989 -0.9516  0.9592 -0.1954
 5941TIP3    H239239   1.955   1.360   4.090  1.0494 -0.4317  0.7757
 5942TIP3   OH239240   2.764   4.167  16.734 -0.3160 -0.2809  0.1367
 5942TIP3    H139241   2.822   4.228  16.688  0.0951 -0.4116  0.4719
 5942TIP3    H239242   2.719   4.120  16.664  0.0793 -0.2668 -0.1337
 5943TIP3   OH239243   0.236   1.462   3.874  0.5848 -0.6856  0.6113
 5943TIP3    H139244   0.267   1.436   3.960 -1.3770 -3.5344  0.5844
 5943TIP3    H239245   0.221   1.380   3.827 -1.6932  0.6343 -1.1962
 5944TIP3   OH239246   3.165   0.903   3.036 -0.3691 -0.2797 -0.6808
 5944TIP3    H139247   3.198   0.921   3.124 -0.2519 -0.8317 -0.6078
 5944TIP3    H239248   3.168   0.807   3.028 -0.7288 -0.2555 -1.1490
 5945TIP3   OH239249   5.643   5.652  12.168  0.7224  0.6985 -0.0095
 5945TIP3    H139250   5.563   5.704  12.181 -0.6603 -1.4958  0.8161
 5945TIP3    H239251   5.706   5.714  12.132 -0.1823  3.4395  2.7133
 5946TIP3   OH239252   1.979   1.522   3.755 -0.0447  0.1545  0.2775
 5946TIP3    H139253   2.056   1.465   3.758  0.2069  0.4107 -0.8594
 5946TIP3    H239254   1.960   1.541   3.847 -0.4625 -2.1780  0.7436
 5947TIP3   OH239255   2.878   5.632  15.243 -0.1178  0.3545 -0.0547
 5947TIP3    H139256   2.955   5.680  15.215 -0.6935  0.9591 -0.6511
 5947TIP3    H239257   2.808   5.663  15.185  0.0472 -3.4688 -2.6170
 5948TIP3   OH239258   3.657   6.743   5.101  0.1038  0.8458 -0.1739
 5948TIP3    H139259   3.672   6.758   5.007  0.5851 -1.1015 -0.4619
 5948TIP3    H239260   3.564   6.760   5.114 -0.4208 -0.7548 -1.4597
 5949TIP3   OH239261   6.298   6.491  11.517  0.0062 -0.1192  0.6017
 5949TIP3    H139262   6.342   6.412  11.547  0.3851 -0.2072 -0.1463
 5949TIP3    H239263   6.235   6.512  11.586 -0.5369 -1.4305  0.5335
 5950TIP3   OH239264   0.143   3.741  15.436  0.4276 -0.0623 -0.2428
 5950TIP3    H139265   0.055   3.779  15.442  0.5515  0.0535  1.0882
 5950TIP3    H239266   0.147   3.705  15.348 -0.5816  0.8564 -0.6969
 5951TIP3   OH239267   2.855   0.762   1.779 -0.0279 -0.4344  0.3116
 5951TIP3    H139268   2.797   0.752   1.854  0.3044 -1.3657  0.4617
 5951TIP3    H239269   2.939   0.729   1.810  0.2618 -0.2791 -0.2945
 5952TIP3   OH239270   2.755   4.281  17.026 -0.1574  0.4461  0.3635
 5952TIP3    H139271   2.728   4.276  16.934 -0.8638 -0.2581  0.6018
 5952TIP3    H239272   2.782   4.373  17.038  1.1368  0.2643 -0.8610
 5953TIP3   OH239273   1.458   2.816  16.705 -0.1556 -0.2111  0.2190
 5953TIP3    H139274   1.552   2.831  16.704  0.0127 -1.0006 -2.1781
 5953TIP3    H239275   1.446   2.735  16.754  0.3303  0.1865  1.0131
 5954TIP3   OH239276   1.861   5.647   3.883  0.4420  0.2517  0.4380
 5954TIP3    H139277   1.896   5.602   3.805 -0.8778  1.8548 -1.1741
 5954TIP3    H239278   1.784   5.597   3.907  0.3870  0.2132  0.1893
 5955TIP3   OH239279   0.004   4.090  13.421 -0.2617  0.0531  0.1878
 5955TIP3    H139280   0.004   4.148  13.497  1.1680  0.0498  0.2106
 5955TIP3    H239281  -0.055   4.019  13.445 -1.6718  1.2258  0.3438
 5956TIP3   OH239282   2.714   5.070  13.473  0.2587  0.2190 -0.5213
 5956TIP3    H139283   2.663   5.008  13.420 -0.9700 -0.2750  1.1378
 5956TIP3    H239284   2.793   5.021  13.497 -0.7252 -0.8112  0.8189
 5957TIP3   OH239285   6.225   3.161   5.979  0.1660  0.5649 -0.1427
 5957TIP3    H139286   6.248   3.069   5.966 -0.1319  0.6486 -1.4025
 5957TIP3    H239287   6.140   3.171   5.936 -0.6023  1.0731  1.4159
 5958TIP3   OH239288   5.571   2.007  12.089  0.3111  0.2852 -0.2542
 5958TIP3    H139289   5.510   1.934  12.080 -1.2436  1.4527  0.3786
 5958TIP3    H239290   5.643   1.986  12.030 -1.0198 -0.8349 -1.5450
 5959TIP3   OH239291   4.260   1.243   3.533 -0.1493  0.2207 -0.5181
 5959TIP3    H139292   4.310   1.214   3.610  0.1153  1.5098 -0.1815
 5959TIP3    H239293   4.228   1.330   3.557  1.3154  1.3799 -2.4637
 5960TIP3   OH239294   3.592   0.315   6.240 -0.1882 -0.8614 -0.1052
 5960TIP3    H139295   3.578   0.357   6.325  0.4203 -1.2425  0.1936
 5960TIP3    H239296   3.512   0.332   6.191  0.3283  1.3329 -0.2857
 5961TIP3   OH239297   2.364   3.521  15.230 -0.4903 -0.0556 -0.0959
 5961TIP3    H139298   2.403   3.539  15.144 -2.1192  1.9277 -0.4851
 5961TIP3    H239299   2.269   3.523  15.214 -0.8097 -0.6602  1.5762
 5962TIP3   OH239300   1.312   5.000  15.488 -0.1817 -0.1350 -0.4452
 5962TIP3    H139301   1.405   4.995  15.510  0.1248  2.0213 -0.9560
 5962TIP3    H239302   1.272   5.045  15.562 -0.6021 -0.0010 -0.7501
 5963TIP3   OH239303   6.129   2.633   5.080  1.1055  0.0280 -0.0033
 5963TIP3    H139304   6.142   2.644   4.986  1.4441  1.3235  0.1823
 5963TIP3    H239305   6.184   2.700   5.120 -2.7429  2.8997  0.9854
 5964TIP3   OH239306   4.818   6.233   4.021 -0.2056  0.1625 -0.1428
 5964TIP3    H139307   4.880   6.182   3.969 -1.2116 -0.2451 -0.9890
 5964TIP3    H239308   4.733   6.216   3.980 -0.5915  2.4341 -0.3610
 5965TIP3   OH239309   4.737   3.494   4.881  0.2956 -0.0443  0.0192
 5965TIP3    H139310   4.677   3.420   4.891 -0.7748  0.9750  1.5444
 5965TIP3    H239311   4.824   3.455   4.894 -0.1787 -1.1581  0.0150
 5966TIP3   OH239312   2.561   4.159  11.784 -0.1637  0.3635 -0.2437
 5966TIP3    H139313   2.597   4.095  11.846 -4.6216 -0.8270  1.4906
 5966TIP3    H239314   2.530   4.106  11.711  0.4838  1.1854 -1.1350
 5967TIP3   OH239315   6.321   2.906  16.551 -0.0317 -0.2786 -0.3944
 5967TIP3    H139316   6.358   2.869  16.631  0.4196 -0.3346 -0.6205
 5967TIP3    H239317   6.380   2.978  16.528 -0.0794 -0.3475 -0.7449
 5968TIP3   OH239318   5.578   2.401   2.007 -0.5430  0.2484  0.2387
 5968TIP3    H139319   5.510   2.454   2.048  0.0696  1.9211 -0.8428
 5968TIP3    H239320   5.553   2.397   1.915  0.3065  0.0456  0.0140
 5969TIP3   OH239321   4.227   1.695  10.965 -0.4625 -0.6786  0.4585
 5969TIP3    H139322   4.250   1.787  10.976  2.5143 -1.4592  1.9281
 5969TIP3    H239323   4.223   1.682  10.871  3.2280  0.1798  0.0486
 5970TIP3   OH239324   4.459   1.483  14.630 -0.2928 -0.2068  0.0836
 5970TIP3    H139325   4.432   1.570  14.600 -3.6568 -0.9236  0.6072
 5970TIP3    H239326   4.500   1.498  14.715  0.1361  0.9414 -0.3113
 5971TIP3   OH239327   0.148   2.510  11.849 -0.6264  0.0917  0.1087
 5971TIP3    H139328   0.101   2.544  11.773 -0.7799  1.0080  0.5905
 5971TIP3    H239329   0.237   2.544  11.839 -0.5158 -0.2114  0.0720
 5972TIP3   OH239330   0.251   3.268   5.351  0.2047 -0.0525 -0.7879
 5972TIP3    H139331   0.277   3.359   5.336  0.2467  0.2491  0.8317
 5972TIP3    H239332   0.331   3.224   5.378 -0.0847 -0.2144 -0.1721
 5973TIP3   OH239333   6.342   4.119  13.902  0.3602 -0.5421  0.1683
 5973TIP3    H139334   6.328   4.046  13.963  1.2675  1.7608  3.3412
 5973TIP3    H239335   6.419   4.093  13.852  0.6915 -1.7568  1.2425
 5974TIP3   OH239336   2.790   0.960  13.259 -0.0964  0.1131 -0.3170
 5974TIP3    H139337   2.793   0.960  13.354 -2.5940  0.4535 -0.1726
 5974TIP3    H239338   2.795   0.867  13.235 -2.7917 -0.3197  0.4138
 5975TIP3   OH239339   0.155   3.052  13.612 -0.5009  0.1344 -0.2039
 5975TIP3    H139340   0.171   3.022  13.701  2.8890  0.7123 -0.4604
 5975TIP3    H239341   0.190   2.982  13.556  1.2326  1.4584 -0.8990
 5976TIP3   OH239342   6.647   3.849   0.867  0.0514  0.1303  0.4204
 5976TIP3    H139343   6.675   3.900   0.943  0.0229  0.3316  0.2960
 5976TIP3    H239344   6.710   3.871   0.799  0.3593 -0.4086  0.5166
 5977TIP3   OH239345   6.669   4.728  16.837 -0.1614 -0.5683  0.1246
 5977TIP3    H139346   6.639   4.639  16.821  0.2976 -0.5022 -1.3084
 5977TIP3    H239347   6.670   4.738  16.932 -2.9999 -1.1120  0.2761
 5978TIP3   OH239348   1.841   6.485   2.665  0.2317  0.2965 -0.4027
 5978TIP3    H139349   1.749   6.463   2.651 -0.0273  1.0303  0.1215
 5978TIP3    H239350   1.885   6.456   2.585 -0.2015 -1.4221 -0.0643
 5979TIP3   OH239351   3.728   1.789  12.182 -0.5345 -0.2207  0.1041
 5979TIP3    H139352   3.756   1.720  12.123 -2.7100 -0.0835 -1.1945
 5979TIP3    H239353   3.692   1.743  12.258  0.5771 -0.4241  0.5302
 5980TIP3   OH239354   5.403   3.059   4.013  0.1771 -0.0936 -0.6492
 5980TIP3    H139355   5.492   3.092   4.001  0.1033  0.4298  0.1632
 5980TIP3    H239356   5.366   3.114   4.082 -0.2466 -1.3349  0.1402
 5981TIP3   OH239357   5.297   1.638  15.130 -0.1212 -0.0867  0.1632
 5981TIP3    H139358   5.285   1.558  15.081  1.1337 -0.6477  0.7244
 5981TIP3    H239359   5.385   1.667  15.108 -0.7720  1.5153 -0.5350
 5982TIP3   OH239360   1.510   2.275   4.665 -0.2601 -0.5736  0.5946
 5982TIP3    H139361   1.432   2.300   4.714 -1.4078 -2.0523 -0.4094
 5982TIP3    H239362   1.575   2.254   4.732 -1.7547 -2.4416  1.5492
 5983TIP3   OH239363   2.347   2.234   3.029  0.2065  0.2768  0.3031
 5983TIP3    H139364   2.413   2.168   3.049  0.6055  0.8463  0.9270
 5983TIP3    H239365   2.300   2.199   2.953  0.9938 -0.2981  0.0677
 5984TIP3   OH239366   1.481   6.170  11.688  0.4860 -0.3807 -0.5274
 5984TIP3    H139367   1.403   6.212  11.724  1.1816  1.7459 -1.3867
 5984TIP3    H239368   1.448   6.116  11.616 -0.0708  1.9855 -2.1408
 5985TIP3   OH239369   2.327   5.223   2.108 -0.3683  0.3945 -0.1226
 5985TIP3    H139370   2.391   5.265   2.050 -0.2028  1.0830  0.5566
 5985TIP3    H239371   2.250   5.212   2.052  0.1515  0.0309 -0.7975
 5986TIP3   OH239372   3.788   4.429   5.870 -0.2840  0.0786 -0.0051
 5986TIP3    H139373   3.805   4.403   5.961  0.1531  3.3484  0.9718
 5986TIP3    H239374   3.721   4.496   5.877 -0.5215  0.1208 -2.1653
 5987TIP3   OH239375   2.937   2.059  14.106 -0.9939  0.2137 -0.2539
 5987TIP3    H139376   2.927   2.139  14.158 -2.5696  0.6260 -1.1251
 5987TIP3    H239377   2.848   2.036  14.080 -0.3683 -0.6312 -1.7924
 5988TIP3   OH239378   1.574   4.473   5.718  0.6311  0.2370 -0.2145
 5988TIP3    H139379   1.604   4.383   5.726 -0.9707 -0.2920  0.2108
 5988TIP3    H239380   1.478   4.467   5.716  0.5048  1.8334 -1.4658
 5989TIP3   OH239381   2.904   4.046   3.157  0.5207  0.4453  0.0121
 5989TIP3    H139382   2.871   4.135   3.147 -0.7629 -0.0376 -0.1431
 5989TIP3    H239383   2.892   4.005   3.071  0.0244 -0.2254  0.3866
 5990TIP3   OH239384   5.030   3.225   1.367  0.1189  0.1004  0.5034
 5990TIP3    H139385   5.099   3.275   1.323  0.0903  0.4723  0.8714
 5990TIP3    H239386   4.970   3.292   1.399  1.6715  0.1062  3.7668
 5991TIP3   OH239387   6.193   1.437   3.025  0.2847 -0.4665  0.2752
 5991TIP3    H139388   6.119   1.383   3.053  0.1091 -0.8276 -0.8495
 5991TIP3    H239389   6.159   1.486   2.950  1.5039 -1.4734 -0.9809
 5992TIP3   OH239390   2.473   4.893  11.111 -0.4485  0.1015  0.4875
 5992TIP3    H139391   2.456   4.982  11.081 -0.2951 -0.2517 -0.6636
 5992TIP3    H239392   2.545   4.862  11.056 -0.8322 -0.9074  0.5428
 5993TIP3   OH239393   5.532   5.386  16.140 -0.6374 -0.0054  0.3525
 5993TIP3    H139394   5.626   5.374  16.124 -0.5628  0.3932  0.4868
 5993TIP3    H239395   5.498   5.297  16.149 -0.4241 -0.1949 -0.5309
 5994TIP3   OH239396   6.314   5.478   2.587  0.1465  0.7355  0.0928
 5994TIP3    H139397   6.235   5.431   2.558  0.3220 -0.0582  0.8532
 5994TIP3    H239398   6.327   5.449   2.677  0.9530  1.3491  0.1828
 5995TIP3   OH239399   6.588   4.132   3.913 -0.4215  0.2244  0.1406
 5995TIP3    H139400   6.529   4.085   3.854 -1.8521  1.1869  0.7217
 5995TIP3    H239401   6.661   4.160   3.858 -0.6245 -0.8021 -0.6684
 5996TIP3   OH239402   5.058   6.530   3.615 -0.1906 -0.1114 -0.3507
 5996TIP3    H139403   5.066   6.461   3.681 -0.1709  1.2805  1.1897
 5996TIP3    H239404   5.146   6.538   3.579  0.1781  0.1155  0.5614
 5997TIP3   OH239405   0.848   3.817   0.462  0.0242 -0.1857 -0.4594
 5997TIP3    H139406   0.899   3.898   0.464 -1.0690  0.5367 -0.8375
 5997TIP3    H239407   0.764   3.841   0.501 -0.8518 -0.7464 -1.9343
 5998TIP3   OH239408   6.463   2.765  15.154  0.2200  0.1001 -0.4181
 5998TIP3    H139409   6.464   2.819  15.075 -0.4460  1.2447  0.3315
 5998TIP3    H239410   6.371   2.757  15.178  0.4678  0.6748  0.8306
 5999TIP3   OH239411   4.742   3.697   2.709  0.3919 -0.5158  0.5206
 5999TIP3    H139412   4.783   3.671   2.626  1.2834  1.6974  0.2043
 5999TIP3    H239413   4.759   3.624   2.768  1.8362 -1.1301 -0.5885
 6000TIP3   OH239414   6.718   4.822   4.155 -0.0779  0.1484  0.9571
 6000TIP3    H139415   6.802   4.785   4.128 -0.2165  0.8120 -0.5099
 6000TIP3    H239416   6.675   4.752   4.204 -0.6262 -2.0268 -2.3156
 6001TIP3   OH239417   2.888   5.214   0.754  0.4287 -0.7117  0.4675
 6001TIP3    H139418   2.960   5.217   0.691 -0.7938  0.2373 -0.9596
 6001TIP3    H239419   2.907   5.285   0.815  0.5989 -0.3343 -0.0183
 6002TIP3   OH239420   1.240   4.407  14.716 -0.5531  0.0585 -0.3887
 6002TIP3    H139421   1.206   4.328  14.759  0.7927 -0.0798  0.4872
 6002TIP3    H239422   1.210   4.479  14.772 -3.1136  0.3842 -2.0198
 6003TIP3   OH239423   3.966   6.532  16.002  0.2241 -0.0481 -0.1671
 6003TIP3    H139424   4.004   6.520  15.915 -0.4283  0.2373 -0.5006
 6003TIP3    H239425   3.999   6.617  16.030  1.3620 -0.6513  0.3605
 6004TIP3   OH239426   5.698   1.491   2.460 -0.5439 -0.0397 -0.6857
 6004TIP3    H139427   5.742   1.435   2.396  1.7627  3.5745 -2.6384
 6004TIP3    H239428   5.624   1.529   2.413 -0.9278  0.0349 -0.0403
 6005TIP3   OH239429   5.957   2.164  11.722 -0.5823 -0.0427 -0.2174
 6005TIP3    H139430   5.866   2.195  11.728 -1.3163 -1.5686 -2.2871
 6005TIP3    H239431   5.994   2.213  11.648  0.2231  0.3702  0.4383
 6006TIP3   OH239432   3.683   4.415  13.303 -0.1813  0.7542 -0.8689
 6006TIP3    H139433   3.728   4.367  13.234 -1.2800 -1.9317  0.1213
 6006TIP3    H239434   3.591   4.391  13.293 -0.5234  1.2001  0.7858
 6007TIP3   OH239435   1.172   2.704   3.365 -0.0804 -0.0153  0.0802
 6007TIP3    H139436   1.139   2.778   3.416  0.3525 -0.3972  0.9361
 6007TIP3    H239437   1.175   2.631   3.427 -0.7187 -0.8217 -0.8090
 6008TIP3   OH239438   3.084   4.117   6.085  0.0473  0.7144 -0.2625
 6008TIP3    H139439   3.124   4.096   6.000 -0.1149 -2.2693  0.3023
 6008TIP3    H239440   2.995   4.143   6.064  0.0931  0.2837 -1.0226
 6009TIP3   OH239441   6.732   0.795   3.698 -0.5924  0.0310 -0.6146
 6009TIP3    H139442   6.689   0.806   3.614 -0.9208  0.2456 -0.4213
 6009TIP3    H239443   6.759   0.884   3.724 -1.8065  0.1810  0.1910
 6010TIP3   OH239444   5.499   3.082   5.992 -0.3172 -0.3895  0.0693
 6010TIP3    H139445   5.480   3.017   6.059 -1.4419 -0.3087 -0.1478
 6010TIP3    H239446   5.416   3.091   5.944 -0.2000  1.2358  0.1349
 6011TIP3   OH239447   6.192   3.494  14.274  0.4952 -0.0182 -0.6268
 6011TIP3    H139448   6.272   3.495  14.328  0.2297 -3.6165  0.0902
 6011TIP3    H239449   6.201   3.416  14.220 -2.1961 -0.0830 -1.1046
 6012TIP3   OH239450   2.563   1.518   2.278 -0.1979 -0.7960 -0.4022
 6012TIP3    H139451   2.608   1.484   2.356 -1.1445  1.1792  1.1075
 6012TIP3    H239452   2.633   1.533   2.215  0.8892 -0.5226  0.8288
 6013TIP3   OH239453   1.170   5.819   2.174  0.2779  0.9003 -0.0513
 6013TIP3    H139454   1.077   5.829   2.189  0.4682  1.8031  0.5881
 6013TIP3    H239455   1.184   5.724   2.173 -0.6662  0.7551 -0.3475
 6014TIP3   OH239456   1.263   2.537  12.791  0.9971 -0.2891  0.1831
 6014TIP3    H139457   1.242   2.540  12.884 -0.1812 -0.4163 -0.0598
 6014TIP3    H239458   1.342   2.591  12.782  0.3144  0.9204  1.0570
 6015TIP3   OH239459   0.924   0.904   2.853  0.0035  0.1482  0.7608
 6015TIP3    H139460   0.980   0.825   2.858 -0.3496 -0.0425  1.9081
 6015TIP3    H239461   0.889   0.914   2.941  0.7741  2.1441  0.8761
 6016TIP3   OH239462   6.309   4.412   5.058 -0.1444  0.2187 -0.0467
 6016TIP3    H139463   6.231   4.389   5.009 -0.0658  0.3361 -0.2245
 6016TIP3    H239464   6.358   4.329   5.065  0.9032  0.6316 -2.0406
 6017TIP3   OH239465   2.592   0.627  10.518 -0.7324  0.8318 -1.0431
 6017TIP3    H139466   2.659   0.693  10.502  0.1900 -0.2917 -1.9477
 6017TIP3    H239467   2.618   0.553  10.465 -1.2283 -0.6247  0.6468
 6018TIP3   OH239468   6.585   4.414  12.330  0.4002  0.4854  0.5988
 6018TIP3    H139469   6.583   4.510  12.321  3.5323  0.5326 -0.8460
 6018TIP3    H239470   6.630   4.399  12.413  1.4758  0.3303  0.0069
 6019TIP3   OH239471   0.968   0.795   3.132  0.5085 -0.1474 -0.9746
 6019TIP3    H139472   1.011   0.790   3.218 -0.8464  1.1953 -0.1574
 6019TIP3    H239473   0.974   0.706   3.097  0.4070 -0.9345  0.8758
 6020TIP3   OH239474   1.594   4.330  10.878  0.1933 -0.5341 -0.5466
 6020TIP3    H139475   1.554   4.386  10.944 -0.8825 -0.7337 -1.0086
 6020TIP3    H239476   1.627   4.390  10.812  0.9023 -0.3569 -0.0479
 6021TIP3   OH239477   5.335   2.155   5.273 -0.3295 -0.4931 -0.3285
 6021TIP3    H139478   5.429   2.161   5.255  0.3006 -0.7731  2.3078
 6021TIP3    H239479   5.320   2.061   5.288 -0.8494 -0.3693 -0.0413
 6022TIP3   OH239480   3.066   5.735  13.422 -0.4723  0.6044 -0.3949
 6022TIP3    H139481   3.101   5.660  13.469 -1.4094  1.8004  2.3942
 6022TIP3    H239482   3.128   5.806  13.441 -0.1825  0.8423 -2.0853
 6023TIP3   OH239483   6.186   6.326   4.781  0.1440 -0.1489 -0.5235
 6023TIP3    H139484   6.105   6.377   4.779 -0.1383 -0.5999 -0.6628
 6023TIP3    H239485   6.202   6.312   4.875  0.8267  1.1303 -0.4230
 6024TIP3   OH239486   0.234   3.939   4.302 -0.0326  0.3844 -0.0925
 6024TIP3    H139487   0.163   3.874   4.306 -0.5889  0.9321 -0.6795
 6024TIP3    H239488   0.226   3.988   4.383  0.8285 -0.7103  0.6740
 6025TIP3   OH239489   6.093   1.677  13.019  0.1962  0.9237 -0.2002
 6025TIP3    H139490   6.185   1.689  12.999  0.0391  1.6108 -0.5240
 6025TIP3    H239491   6.056   1.640  12.939  0.1346  0.9098 -0.1653
 6026TIP3   OH239492   2.315   3.907  11.864 -0.3371  0.0540  0.1661
 6026TIP3    H139493   2.404   3.876  11.879 -0.1587  1.7459  3.5476
 6026TIP3    H239494   2.266   3.829  11.836  2.0592 -0.9624 -1.4897
 6027TIP3   OH239495   4.629   3.925  13.384 -0.8715 -0.2442 -0.3746
 6027TIP3    H139496   4.627   3.962  13.296 -0.0097 -0.6276 -0.5718
 6027TIP3    H239497   4.711   3.874  13.386 -1.0810 -0.5583  0.5130
 6028TIP3   OH239498   0.573   2.333  16.083 -0.4991  0.2117  0.4422
 6028TIP3    H139499   0.572   2.397  16.012 -0.6664 -2.5065 -2.2140
 6028TIP3    H239500   0.662   2.299  16.083 -0.2591  0.7324  2.1807
 6029TIP3   OH239501   5.634   6.210  12.548 -0.6298  0.0036 -0.2225
 6029TIP3    H139502   5.667   6.136  12.600 -1.0381  0.4348  0.6838
 6029TIP3    H239503   5.659   6.190  12.458  0.7022 -0.4381  0.2270
 6030TIP3   OH239504   1.737   2.342  15.690  0.2827  0.2563 -0.4193
 6030TIP3    H139505   1.814   2.319  15.742  0.2212  0.7646 -0.0839
 6030TIP3    H239506   1.744   2.437  15.679  0.9665  0.0153 -2.4454
 6031TIP3   OH239507   4.909   6.631   0.343 -0.6689  0.2053  0.2366
 6031TIP3    H139508   4.929   6.597   0.430 -2.3557 -0.1433  0.5303
 6031TIP3    H239509   4.858   6.711   0.359  1.4102  1.7557 -0.4637
 6032TIP3   OH239510   3.699   1.415  13.082  0.0272  0.1804 -0.2699
 6032TIP3    H139511   3.750   1.477  13.135  1.1338 -0.0575 -1.0210
 6032TIP3    H239512   3.730   1.329  13.109  0.1585  0.0404 -0.8586
 6033TIP3   OH239513   3.097   3.412  16.417  0.3117 -0.1163  0.0500
 6033TIP3    H139514   3.036   3.448  16.352 -0.4847 -0.8805  0.3524
 6033TIP3    H239515   3.040   3.373  16.483  1.1346 -1.9767 -0.2893
 6034TIP3   OH239516   5.090   5.820   1.765 -0.1123  0.1114 -0.1105
 6034TIP3    H139517   5.097   5.915   1.776 -1.8951  0.4355 -1.2760
 6034TIP3    H239518   5.061   5.809   1.674 -2.2562 -1.3731  0.6721
 6035TIP3   OH239519   0.951   3.353  11.383 -0.5615  0.3735 -0.0706
 6035TIP3    H139520   0.966   3.418  11.315  1.5395  1.3859  1.2600
 6035TIP3    H239521   0.883   3.392  11.439  1.1121  1.8078  1.0679
 6036TIP3   OH239522   6.544   2.800  12.539  0.6620 -0.2350 -0.1201
 6036TIP3    H139523   6.541   2.869  12.605  0.3594 -0.3366 -0.0245
 6036TIP3    H239524   6.567   2.845  12.458 -0.9732  0.2085 -0.3588
 6037TIP3   OH239525   0.427   1.722  17.153  0.1933  0.0050  0.1435
 6037TIP3    H139526   0.386   1.745  17.236  1.3971 -0.0302  0.7792
 6037TIP3    H239527   0.421   1.627  17.149 -2.3089  0.1490 -1.1577
 6038TIP3   OH239528   4.042   5.871   3.189 -0.6277 -0.2205 -0.5656
 6038TIP3    H139529   4.070   5.873   3.281  0.1892 -1.6151 -0.7422
 6038TIP3    H239530   3.999   5.786   3.179 -2.6346  0.7821 -0.9855
 6039TIP3   OH239531   4.220   5.413   1.647  0.2796 -0.2847  0.1064
 6039TIP3    H139532   4.277   5.353   1.696 -0.5070 -1.1745 -0.0447
 6039TIP3    H239533   4.149   5.435   1.708  1.3471  1.7761  0.7196
 6040TIP3   OH239534   1.921   0.236  14.874  0.1382 -0.4066  0.6792
 6040TIP3    H139535   1.994   0.237  14.812  0.1740  0.6693  0.7182
 6040TIP3    H239536   1.880   0.150  14.862  0.5655 -0.4810 -0.3312
 6041TIP3   OH239537   1.437   5.716   3.907  0.5833 -0.7433  0.4422
 6041TIP3    H139538   1.400   5.767   3.836  1.5325 -0.2908  0.2585
 6041TIP3    H239539   1.449   5.628   3.870  2.1851 -0.2274 -0.3781
 6042TIP3   OH239540   3.138   2.454   0.747  0.0657 -0.0021 -0.2307
 6042TIP3    H139541   3.213   2.395   0.743 -1.9654 -2.8299  0.5440
 6042TIP3    H239542   3.124   2.482   0.656  0.9151 -0.9476 -0.6614
 6043TIP3   OH239543   2.534   1.089  13.306 -1.3776 -0.1631 -0.0881
 6043TIP3    H139544   2.622   1.054  13.294 -0.7786  1.2353  0.0428
 6043TIP3    H239545   2.518   1.142  13.228 -1.1347  1.4982  0.9392
 6044TIP3   OH239546   5.992   0.866  17.101 -0.3183 -0.1164  0.6928
 6044TIP3    H139547   5.898   0.886  17.099 -0.1608  0.7680  1.3614
 6044TIP3    H239548   6.025   0.915  17.176  0.5634 -1.0058  0.9011
 6045TIP3   OH239549   3.601   5.380  12.279  0.2867 -0.4664  0.1335
 6045TIP3    H139550   3.647   5.450  12.324 -0.2766  0.6909 -0.9931
 6045TIP3    H239551   3.636   5.382  12.190 -0.9475 -0.4578 -0.3744
 6046TIP3   OH239552   5.259   1.195   0.194 -0.0902  0.5599 -0.0544
 6046TIP3    H139553   5.321   1.209   0.123 -1.0337 -0.1438 -1.0592
 6046TIP3    H239554   5.176   1.230   0.161 -0.5298  0.3137  0.7411
 6047TIP3   OH239555   4.929   1.604  16.845 -0.0606  0.2656 -0.1039
 6047TIP3    H139556   4.985   1.646  16.910  0.0897  2.4394 -1.5191
 6047TIP3    H239557   4.988   1.582  16.773 -0.6674  0.7936 -0.7915
 6048TIP3   OH239558   0.864   5.904  13.649  0.3383  0.0520  0.2152
 6048TIP3    H139559   0.909   5.942  13.573  1.0011  1.7540  1.4093
 6048TIP3    H239560   0.782   5.952  13.655  0.1407 -0.3050  0.4127
 6049TIP3   OH239561   4.937   2.567   3.497 -0.2487 -0.1788  0.3734
 6049TIP3    H139562   4.985   2.514   3.561  1.0899  0.2070 -0.2802
 6049TIP3    H239563   4.861   2.599   3.546  0.2262 -0.6874  1.4900
 6050TIP3   OH239564   6.414   3.882   1.092  0.0289 -0.3597 -0.5783
 6050TIP3    H139565   6.403   3.843   1.178  2.5880  0.5529  0.2757
 6050TIP3    H239566   6.475   3.824   1.046 -0.7013 -0.4259 -1.5004
 6051TIP3   OH239567   6.220   4.667  14.894  0.3537  0.0748  0.9734
 6051TIP3    H139568   6.147   4.605  14.892 -0.9326  1.5702  0.1225
 6051TIP3    H239569   6.192   4.736  14.954  0.4741  1.3550 -0.4016
 6052TIP3   OH239570   1.840   2.164  16.942  0.0027  0.7854 -0.0055
 6052TIP3    H139571   1.880   2.197  17.023 -0.3198 -0.3911  0.6604
 6052TIP3    H239572   1.872   2.074  16.934 -1.3553  0.2939 -0.2349
 6053TIP3   OH239573   0.466   1.514   2.818 -0.0693 -0.8366  0.3560
 6053TIP3    H139574   0.375   1.486   2.834 -0.4536 -0.1223 -0.5283
 6053TIP3    H239575   0.511   1.493   2.900 -1.5643  1.0118  1.7768
 6054TIP3   OH239576   1.870   6.378   5.567 -0.3561 -0.1878  0.4465
 6054TIP3    H139577   1.798   6.365   5.629 -0.0168 -0.3833  0.8081
 6054TIP3    H239578   1.901   6.467   5.585 -0.0046 -0.3819  0.8392
 6055TIP3   OH239579   1.002   0.486  14.524 -0.2853  0.0711  0.2724
 6055TIP3    H139580   0.988   0.560  14.466 -0.1639 -1.1279 -1.3581
 6055TIP3    H239581   1.088   0.502  14.563 -0.3346  0.8496  0.0761
 6056TIP3   OH239582   5.006   2.913   4.140  0.1493  0.2425 -0.1596
 6056TIP3    H139583   5.020   2.979   4.208 -0.5465  2.0319 -1.6662
 6056TIP3    H239584   5.079   2.924   4.079  1.4450 -2.1654  0.8246
 6057TIP3   OH239585   5.922   2.756   4.706  0.4172 -0.5259  0.1563
 6057TIP3    H139586   5.862   2.732   4.777 -0.4256  0.1889 -0.2945
 6057TIP3    H239587   5.907   2.689   4.639 -0.3746  0.0040 -0.2200
 6058TIP3   OH239588   1.700   6.045  17.053 -0.1270  0.4492  0.2930
 6058TIP3    H139589   1.619   6.083  17.087 -0.4135  2.2256 -2.1605
 6058TIP3    H239590   1.672   5.983  16.986  0.4266  2.9431 -2.4496
 6059TIP3   OH239591   4.937   5.792  12.442  0.0524  0.3852 -0.0530
 6059TIP3    H139592   4.983   5.724  12.392  0.6121  1.2512 -0.7295
 6059TIP3    H239593   4.870   5.744  12.491  1.7396 -0.9560  1.0759
 6060TIP3   OH239594   3.773   3.537   4.514  0.3411  0.6233  0.4494
 6060TIP3    H139595   3.855   3.532   4.564  0.4797  0.7416  0.2362
 6060TIP3    H239596   3.764   3.451   4.474  0.4515  0.6634  0.3352
 6061TIP3   OH239597   3.953   5.899   4.640  0.4209  0.0480 -0.9115
 6061TIP3    H139598   3.858   5.911   4.648  0.3168 -1.6845  1.6585
 6061TIP3    H239599   3.991   5.967   4.695  0.6062 -0.0791 -0.8803
 6062TIP3   OH239600   3.530   5.431  13.735  0.0571 -0.1559 -0.5016
 6062TIP3    H139601   3.542   5.349  13.783  1.4944  0.4480  0.2093
 6062TIP3    H239602   3.618   5.466  13.724 -0.4474  0.8026 -1.6989
 6063TIP3   OH239603   3.886   5.173   0.628 -0.0467  0.0598  0.1539
 6063TIP3    H139604   3.808   5.228   0.633 -0.1455 -0.0629 -0.0235
 6063TIP3    H239605   3.852   5.083   0.633  0.1133  0.0158  0.4457
 6064TIP3   OH239606   5.418   6.559  13.054 -0.1039 -0.0175 -0.2287
 6064TIP3    H139607   5.332   6.588  13.085  0.1298 -0.1199  0.5415
 6064TIP3    H239608   5.477   6.631  13.077  0.2793 -0.5938  0.6574
 6065TIP3   OH239609   5.910   6.701  13.167 -0.4372  0.6377  0.5007
 6065TIP3    H139610   5.818   6.722  13.185 -0.0417  3.2944 -0.1082
 6065TIP3    H239611   5.957   6.727  13.246 -0.3205 -2.4481  1.5479
 6066TIP3   OH239612   6.410   2.955   0.889  0.2088 -0.0980  0.2633
 6066TIP3    H139613   6.489   3.007   0.902  0.0068  0.5819 -1.0849
 6066TIP3    H239614   6.409   2.935   0.796 -2.0648  1.3875 -0.1270
 6067TIP3   OH239615   0.893   0.889  12.763  0.6086 -0.5223 -0.0363
 6067TIP3    H139616   0.814   0.843  12.793 -0.5386  0.4809 -1.3701
 6067TIP3    H239617   0.884   0.891  12.668  0.6594  2.2897 -0.0550
 6068TIP3   OH239618   5.082   2.694   5.515  0.2918  0.1806  0.0568
 6068TIP3    H139619   5.093   2.701   5.610  1.5288  0.2491 -0.0781
 6068TIP3    H239620   5.112   2.778   5.480  0.9309 -0.2523 -0.4680
 6069TIP3   OH239621   1.058   4.075  15.891 -0.3790  0.3334  0.9344
 6069TIP3    H139622   1.079   4.000  15.836 -0.8982  2.2768 -2.1699
 6069TIP3    H239623   0.971   4.055  15.927  0.4032 -1.4137  1.9795
 6070TIP3   OH239624   3.808   4.168   3.305  0.3329  0.7214  0.5172
 6070TIP3    H139625   3.788   4.112   3.379  1.1330 -0.4185 -0.1099
 6070TIP3    H239626   3.769   4.124   3.230 -0.4752  1.8654  0.2299
 6071TIP3   OH239627   6.068   1.797  17.163 -0.1271 -0.1275  0.2808
 6071TIP3    H139628   6.028   1.715  17.135 -0.7499 -0.6519  2.5307
 6071TIP3    H239629   6.027   1.817  17.246  1.3941  1.4775  0.7113
 6072TIP3   OH239630   0.042   2.344   3.200  0.2751  0.1445  0.1288
 6072TIP3    H139631  -0.047   2.350   3.235 -0.0131  0.1531 -0.5794
 6072TIP3    H239632   0.076   2.261   3.235  0.1657  0.3713  0.7879
 6073TIP3   OH239633   2.546   3.099  15.381 -0.6389 -0.4988 -0.1736
 6073TIP3    H139634   2.641   3.098  15.387 -0.6399  1.9169  1.5269
 6073TIP3    H239635   2.519   3.013  15.412  0.9551 -0.6595  0.8927
 6074TIP3   OH239636   2.042   6.080   2.092  0.2390 -0.2748 -0.2234
 6074TIP3    H139637   2.051   6.166   2.052 -1.9132 -0.2451 -0.7716
 6074TIP3    H239638   2.129   6.042   2.086  1.3351  1.9691  0.3379
 6075TIP3   OH239639   4.156   5.995  11.296 -0.2139  0.5374 -0.3622
 6075TIP3    H139640   4.108   6.068  11.336  0.3065  1.1187 -0.7861
 6075TIP3    H239641   4.090   5.926  11.285 -0.8765  1.1949 -0.6049
 6076TIP3   OH239642   1.419   2.134  11.460 -0.4641 -0.2886 -0.2996
 6076TIP3    H139643   1.480   2.189  11.410  1.1170 -0.7246  1.0554
 6076TIP3    H239644   1.371   2.196  11.514 -0.6728 -0.0038 -0.8061
 6077TIP3   OH239645   0.503   4.372  16.565 -0.4375 -0.0906  0.3849
 6077TIP3    H139646   0.566   4.340  16.630 -0.8696  0.4519  1.0773
 6077TIP3    H239647   0.423   4.387  16.614 -1.0924 -0.6741 -0.4722
 6078TIP3   OH239648   6.457   5.760  13.648  0.0699  0.8828 -0.0350
 6078TIP3    H139649   6.512   5.828  13.688  0.4005 -0.0640  1.1913
 6078TIP3    H239650   6.501   5.738  13.566 -0.3588  2.5411 -0.7502
 6079TIP3   OH239651   4.755   0.522   0.896 -1.0097 -0.0047 -0.2368
 6079TIP3    H139652   4.727   0.459   0.830  0.7617  1.2925 -2.3714
 6079TIP3    H239653   4.840   0.489   0.925 -0.2749  1.0848 -1.0489
 6080TIP3   OH239654   3.600   4.452  15.891  0.3299  0.2501  0.9743
 6080TIP3    H139655   3.609   4.503  15.810 -0.4025  0.5826  1.0966
 6080TIP3    H239656   3.658   4.377  15.878 -0.3193 -0.0855 -0.1667
 6081TIP3   OH239657   2.375   5.529   5.380 -0.3375  0.4820 -0.0951
 6081TIP3    H139658   2.320   5.453   5.395 -3.1400  1.8699 -2.2774
 6081TIP3    H239659   2.328   5.601   5.422  1.7620  1.2198  1.1217
 6082TIP3   OH239660   3.399   5.295   5.164  0.2599 -0.3517  0.0813
 6082TIP3    H139661   3.477   5.258   5.206 -0.1045 -2.0388 -0.6756
 6082TIP3    H239662   3.384   5.241   5.087 -0.6078  1.0875 -0.8192
 6083TIP3   OH239663   4.091   2.259  16.588 -0.3588  0.4467 -0.1263
 6083TIP3    H139664   4.052   2.283  16.504  1.5803  1.3268 -0.8614
 6083TIP3    H239665   4.127   2.341  16.621  0.5072 -0.2231  0.6476
 6084TIP3   OH239666   6.099   3.807   1.158  0.6748  0.4015 -0.0204
 6084TIP3    H139667   6.108   3.828   1.065  0.8554 -0.3838 -0.1860
 6084TIP3    H239668   6.154   3.730   1.171  0.6574  0.5115  0.7426
 6085TIP3   OH239669   1.640   2.904  16.956  0.1582  0.4477  0.0664
 6085TIP3    H139670   1.699   2.829  16.963 -0.0959  0.3845  1.8931
 6085TIP3    H239671   1.689   2.967  16.903  0.1191 -1.1983 -2.0588
 6086TIP3   OH239672   0.271   6.024  16.892  0.0040 -0.0792  0.1320
 6086TIP3    H139673   0.228   5.995  16.972  0.8055  0.3652  0.7441
 6086TIP3    H239674   0.300   5.943  16.850 -0.8047 -0.3394  0.0564
 6087TIP3   OH239675   2.759   6.025   5.477  0.3889 -0.2170  0.4777
 6087TIP3    H139676   2.665   6.014   5.490  0.2218 -1.2464 -1.2819
 6087TIP3    H239677   2.799   5.975   5.549 -0.3261  1.8257  2.4131
 6088TIP3   OH239678   0.273   1.111   0.731  0.0961  1.1338  0.2211
 6088TIP3    H139679   0.205   1.153   0.784 -0.9121 -0.4678  0.2738
 6088TIP3    H239680   0.302   1.036   0.784  1.2155  1.2234 -0.2305
 6089TIP3   OH239681   3.434   6.119  12.433  0.2894 -0.3416  0.1782
 6089TIP3    H139682   3.395   6.180  12.496  1.9918  1.1370 -0.0962
 6089TIP3    H239683   3.396   6.144  12.349 -0.3784 -0.8934  0.3084
 6090TIP3   OH239684   4.288   6.486   2.911 -0.1424  0.2596  0.0367
 6090TIP3    H139685   4.267   6.445   2.995 -2.5170  1.2913  0.0330
 6090TIP3    H239686   4.203   6.512   2.875  0.9806  1.8686 -1.6446
 6091TIP3   OH239687   6.395   3.329   4.066  0.3276  0.3250 -0.0777
 6091TIP3    H139688   6.470   3.330   4.126  1.0140 -0.7300 -0.8666
 6091TIP3    H239689   6.318   3.332   4.122  0.9611  0.2019  0.8133
 6092TIP3   OH239690   0.351   6.332   2.098 -0.0265 -0.1050 -0.1891
 6092TIP3    H139691   0.268   6.332   2.145 -0.8865  0.1486 -1.6807
 6092TIP3    H239692   0.411   6.285   2.157 -1.6055 -1.7339  0.2009
 6093TIP3   OH239693   6.412   5.968   1.875 -0.0487 -0.4966  0.0428
 6093TIP3    H139694   6.332   5.997   1.831  0.0574  0.9689  0.7538
 6093TIP3    H239695   6.481   6.024   1.838  1.0027 -2.8253 -1.7801
 6094TIP3   OH239696   2.930   6.778   1.341 -0.4065  0.5544 -0.4806
 6094TIP3    H139697   2.978   6.709   1.387  0.2054  0.5353 -1.1203
 6094TIP3    H239698   2.873   6.816   1.407  0.3656  0.4481  0.2701
 6095TIP3   OH239699   4.837   2.606   0.842 -0.2893  0.1800 -0.2814
 6095TIP3    H139700   4.760   2.568   0.884  0.2736  0.4643  1.0668
 6095TIP3    H239701   4.874   2.534   0.791  0.3471 -0.9212  1.6455
 6096TIP3   OH239702   1.816   3.538   2.727 -0.1269 -0.5694 -0.3014
 6096TIP3    H139703   1.818   3.486   2.647  0.7118 -0.8229 -0.1343
 6096TIP3    H239704   1.724   3.541   2.753 -0.6218  0.6799 -2.0131
 6097TIP3   OH239705   6.309   2.888  13.788 -0.1190 -0.3081  0.0610
 6097TIP3    H139706   6.382   2.825  13.789 -1.4850 -1.9805 -0.4937
 6097TIP3    H239707   6.231   2.833  13.792 -1.3684  1.4472  0.7915
 6098TIP3   OH239708   0.957   4.231   1.796 -0.0749 -0.6776 -0.1066
 6098TIP3    H139709   0.962   4.148   1.845 -2.0165 -0.2055  1.0173
 6098TIP3    H239710   0.864   4.240   1.775  0.2382  0.8096 -0.9599
 6099TIP3   OH239711   3.166   2.722  15.364 -0.1592  0.3435 -0.8109
 6099TIP3    H139712   3.158   2.681  15.450  0.8057  1.0860 -0.3449
 6099TIP3    H239713   3.151   2.650  15.301 -2.3729  0.0747 -0.0802
 6100TIP3   OH239714   3.850   3.059   5.116 -0.3966 -0.7639 -0.2746
 6100TIP3    H139715   3.764   3.094   5.090  0.1473  0.1554 -0.9099
 6100TIP3    H239716   3.881   3.121   5.183  0.8406  0.3765 -1.8346
 6101TIP3   OH239717   4.442   6.242  12.158 -0.0145  0.1326 -0.0318
 6101TIP3    H139718   4.507   6.302  12.121  1.2720 -2.0298 -1.4587
 6101TIP3    H239719   4.361   6.263  12.112  0.1616  1.3979  0.1917
 6102TIP3   OH239720   1.763   5.885   5.920  0.2791 -0.1959 -0.0750
 6102TIP3    H139721   1.667   5.889   5.922  0.3122  1.1411  0.9552
 6102TIP3    H239722   1.788   5.945   5.850  0.3652  0.7303  0.7186
 6103TIP3   OH239723   4.418   6.370   4.121  0.1113  0.2227 -0.6367
 6103TIP3    H139724   4.363   6.317   4.178  0.8802  1.0552  0.9624
 6103TIP3    H239725   4.494   6.315   4.102  0.1471  0.1672 -0.3286
 6104TIP3   OH239726   1.302   0.240  14.978  0.0267 -0.0480 -0.8835
 6104TIP3    H139727   1.232   0.302  14.958  0.5118  0.8108 -0.0171
 6104TIP3    H239728   1.370   0.259  14.913 -0.7333 -1.2516 -2.0715
 6105TIP3   OH239729   4.417   2.856  11.752 -0.2454 -0.3413 -0.8424
 6105TIP3    H139730   4.484   2.790  11.734  0.6196 -0.2861  1.8063
 6105TIP3    H239731   4.335   2.807  11.755 -0.2688 -0.5602 -3.1267
 6106TIP3   OH239732   0.697   2.525  15.886  0.2678 -0.4304 -0.1753
 6106TIP3    H139733   0.734   2.517  15.798  1.4357  1.3222  0.0926
 6106TIP3    H239734   0.687   2.620  15.899 -0.2855 -0.6712  1.4221
 6107TIP3   OH239735   5.825   6.374   3.164  0.3218 -1.2656  0.0667
 6107TIP3    H139736   5.892   6.434   3.197 -0.8009 -0.0554  0.2153
 6107TIP3    H239737   5.809   6.314   3.238 -0.9600  0.3736  1.1770
 6108TIP3   OH239738   2.844   2.604   4.511  0.2143 -0.3932 -0.1793
 6108TIP3    H139739   2.939   2.604   4.520  0.4312 -0.1647 -2.0013
 6108TIP3    H239740   2.813   2.539   4.573  1.7369 -1.9306 -0.9648
 6109TIP3   OH239741   0.974   2.247   1.114  0.0081 -0.1742 -0.8548
 6109TIP3    H139742   0.931   2.279   1.193  3.0958 -1.0819  1.4472
 6109TIP3    H239743   0.951   2.310   1.046 -1.2673  1.7930  1.2399
 6110TIP3   OH239744   2.459   3.365   1.101 -0.1870 -0.5867 -0.3748
 6110TIP3    H139745   2.401   3.365   1.025  0.9008 -2.2996 -1.2698
 6110TIP3    H239746   2.526   3.429   1.081  0.7455 -1.8524 -1.4272
 6111TIP3   OH239747   0.444   4.636   6.597  0.0119 -0.5178 -0.0915
 6111TIP3    H139748   0.380   4.565   6.605  0.3051 -0.6974  0.9095
 6111TIP3    H239749   0.410   4.706   6.652 -0.6310  0.4142 -1.6410
 6112TIP3   OH239750   4.018   0.898   5.325  0.3840  0.2745 -0.6666
 6112TIP3    H139751   3.959   0.968   5.353 -1.7259 -0.3469 -3.1692
 6112TIP3    H239752   4.089   0.944   5.279 -0.1116  0.8699 -0.8608
 6113TIP3   OH239753   4.944   3.433  14.129 -0.1499  0.2123  0.4778
 6113TIP3    H139754   4.943   3.492  14.205  0.1088  1.9569 -0.8304
 6113TIP3    H239755   4.852   3.427  14.103  0.1004  2.7805 -1.3612
 6114TIP3   OH239756   6.415   4.603   1.618 -0.0564 -0.0181  0.0664
 6114TIP3    H139757   6.388   4.675   1.561 -0.3479 -0.6301 -0.5858
 6114TIP3    H239758   6.507   4.589   1.596 -0.5891 -1.3598 -1.5185
 6115TIP3   OH239759   1.647   0.619   1.530 -0.2711 -0.1452  0.3383
 6115TIP3    H139760   1.651   0.545   1.590  1.3268  0.5510  1.1432
 6115TIP3    H239761   1.652   0.697   1.586 -3.1901  0.6934 -0.3609
 6116TIP3   OH239762   6.539   3.560  16.016  0.1747 -0.0860 -0.2453
 6116TIP3    H139763   6.512   3.526  16.102  0.8935  1.2208  0.5247
 6116TIP3    H239764   6.473   3.526  15.955 -1.1991  0.1643  1.0359
 6117TIP3   OH239765   4.459   0.316  16.835 -0.6838 -0.2600  0.2412
 6117TIP3    H139766   4.465   0.320  16.739 -2.7421 -3.1016 -0.1427
 6117TIP3    H239767   4.546   0.340  16.865  0.0491  0.6698 -2.3445
 6118TIP3   OH239768   3.987   3.257   5.305 -0.3158 -0.3101  0.0372
 6118TIP3    H139769   4.078   3.272   5.277  0.0530 -0.8170  0.9225
 6118TIP3    H239770   3.937   3.327   5.263  0.5905  0.3872  0.0916
 6119TIP3   OH239771   0.873   0.275   5.267  0.1387  0.3761 -0.1504
 6119TIP3    H139772   0.783   0.276   5.299 -0.4243 -1.0978 -1.5569
 6119TIP3    H239773   0.867   0.306   5.176  0.8254 -0.9998 -0.6973
 6120TIP3   OH239774   5.018   1.238   4.946 -0.4448 -0.1504  0.1071
 6120TIP3    H139775   4.984   1.151   4.962  1.7667 -0.9446  0.8478
 6120TIP3    H239776   5.089   1.225   4.883  0.6677  0.9303  1.0803
 6121TIP3   OH239777   2.415   3.730   4.099 -0.3941 -0.1219 -0.0496
 6121TIP3    H139778   2.438   3.644   4.064 -1.5020 -1.0825  1.4376
 6121TIP3    H239779   2.380   3.712   4.186 -1.7617  1.7259 -0.1479
 6122TIP3   OH239780   1.962   1.984  12.507 -0.2551  0.4522  0.4660
 6122TIP3    H139781   2.054   1.991  12.483 -0.2409  2.8891  1.0227
 6122TIP3    H239782   1.963   1.953  12.597 -0.1099 -1.5362 -0.1547
 6123TIP3   OH239783   2.258   5.522   5.103 -0.8883 -0.1258 -0.1934
 6123TIP3    H139784   2.171   5.555   5.082 -1.8008 -0.4038  2.6760
 6123TIP3    H239785   2.298   5.592   5.155 -1.0301 -1.5067  1.9155
 6124TIP3   OH239786   5.202   4.605   4.157  0.0481 -0.1759 -0.0741
 6124TIP3    H139787   5.264   4.559   4.101 -1.5926 -0.3264 -1.8624
 6124TIP3    H239788   5.241   4.602   4.245  1.5104 -2.1201 -0.7404
 6125TIP3   OH239789   4.769   4.863   2.535  0.4667 -0.4445  0.2913
 6125TIP3    H139790   4.788   4.774   2.505  0.4085 -1.1523  2.2513
 6125TIP3    H239791   4.674   4.866   2.544  0.3934  0.0985 -0.5451
 6126TIP3   OH239792   6.390   5.936   2.729 -0.3689 -0.0675 -0.3909
 6126TIP3    H139793   6.321   5.907   2.669 -1.8687  1.3643  0.5443
 6126TIP3    H239794   6.448   5.990   2.676 -1.2941  0.6214 -0.7218
 6127TIP3   OH239795   0.996   5.801   1.062 -0.3765 -0.4337 -0.4897
 6127TIP3    H139796   1.088   5.817   1.039 -0.4298 -0.0283 -0.4394
 6127TIP3    H239797   0.998   5.784   1.156 -0.4025  0.0669 -0.3916
 6128TIP3   OH239798   5.198   4.743  14.312 -0.0372  0.4272  0.2657
 6128TIP3    H139799   5.105   4.768  14.314 -1.4580 -3.9497  2.5163
 6128TIP3    H239800   5.213   4.716  14.222 -1.3350  0.0986  0.1181
 6129TIP3   OH239801   0.241   1.494  11.777 -0.1576  0.1962  0.5835
 6129TIP3    H139802   0.279   1.469  11.861 -2.6322 -2.0721  1.1743
 6129TIP3    H239803   0.261   1.587  11.768  1.4655  0.1512  2.9500
 6130TIP3   OH239804   5.618   1.142   4.342  0.0157 -0.3594 -0.0889
 6130TIP3    H139805   5.607   1.165   4.434  0.9332 -0.1071 -0.0347
 6130TIP3    H239806   5.530   1.118   4.312 -0.6797  1.5056  0.3250
 6131TIP3   OH239807   0.456   5.499  15.984  0.0705 -0.3670  0.4103
 6131TIP3    H139808   0.394   5.467  16.050 -0.3349 -0.6222 -0.0921
 6131TIP3    H239809   0.531   5.530  16.035  0.4377 -2.0371  0.9478
 6132TIP3   OH239810   3.505   0.279   5.870  0.3552  0.0988 -0.0545
 6132TIP3    H139811   3.416   0.250   5.890 -0.3709  2.2421  0.0140
 6132TIP3    H239812   3.557   0.246   5.943 -0.3228 -1.3523 -0.1930
 6133TIP3   OH239813   4.740   5.767  12.168  0.4284 -1.0973  0.0875
 6133TIP3    H139814   4.683   5.781  12.093  2.1184 -0.4857 -1.1360
 6133TIP3    H239815   4.680   5.750  12.241 -1.2670 -1.2088 -1.2765
 6134TIP3   OH239816   0.302   4.314  10.886  0.1473 -0.8247  0.6802
 6134TIP3    H139817   0.382   4.323  10.834  0.6319  4.6675  1.7747
 6134TIP3    H239818   0.231   4.322  10.823  0.5233 -1.3774  0.1769
 6135TIP3   OH239819   1.326   3.745  14.608  0.1826  0.4049 -0.4114
 6135TIP3    H139820   1.360   3.783  14.688  1.3740  1.3597 -1.3421
 6135TIP3    H239821   1.319   3.818  14.547 -0.1429 -0.3918 -1.3642
 6136TIP3   OH239822   3.842   2.952  12.539  0.0078  0.2843 -0.0358
 6136TIP3    H139823   3.766   3.010  12.545  0.9859  1.6271 -0.1840
 6136TIP3    H239824   3.850   2.915  12.627 -2.2225 -1.7982 -0.5994
 6137TIP3   OH239825   5.546   2.113  15.797 -0.0856 -0.3402 -0.0390
 6137TIP3    H139826   5.456   2.079  15.798  0.0501 -0.8490  2.3287
 6137TIP3    H239827   5.538   2.203  15.828  0.1030  0.0764 -1.1648
 6138TIP3   OH239828   0.847   0.609  16.031  0.2334  0.5268 -0.5831
 6138TIP3    H139829   0.795   0.548  16.083 -1.0043  1.2629 -0.9182
 6138TIP3    H239830   0.796   0.689  16.030  0.1178  0.4941 -3.0578
 6139TIP3   OH239831   3.445   2.615  10.416 -0.1823 -0.1157  0.4237
 6139TIP3    H139832   3.445   2.539  10.474  3.6117 -1.1064 -0.5708
 6139TIP3    H239833   3.495   2.681  10.463  1.3300 -0.2855 -0.8405
 6140TIP3   OH239834   5.824   5.228  12.571  1.2951  0.3968  0.4504
 6140TIP3    H139835   5.880   5.283  12.625  1.2896  0.2056  0.6532
 6140TIP3    H239836   5.805   5.281  12.494  2.1118  0.3030  0.1697
 6141TIP3   OH239837   2.341   0.408  11.783  0.2813  0.6742  0.4917
 6141TIP3    H139838   2.344   0.316  11.760  1.6168  0.3718  1.7087
 6141TIP3    H239839   2.402   0.417  11.856 -1.6409  2.0753  2.0340
 6142TIP3   OH239840   2.180   0.224   4.572 -0.1612  0.0392  0.3922
 6142TIP3    H139841   2.194   0.251   4.662  0.0734 -0.1267  0.4065
 6142TIP3    H239842   2.222   0.138   4.565 -0.6579 -0.1968  0.2729
 6143TIP3   OH239843   3.337   3.685  16.052  0.3764  0.6213  0.3161
 6143TIP3    H139844   3.391   3.710  16.127 -0.4680  1.8732  0.5299
 6143TIP3    H239845   3.347   3.589  16.046  2.6313  0.7999  0.3045
 6144TIP3   OH239846   6.719   3.179  11.139 -0.6774 -0.1023 -0.4554
 6144TIP3    H139847   6.803   3.143  11.108 -0.5927  0.4212 -0.8585
 6144TIP3    H239848   6.672   3.104  11.173 -0.1955 -0.4695 -0.5813
 6145TIP3   OH239849   6.039   1.080   5.643 -0.1745 -0.8700 -0.0731
 6145TIP3    H139850   6.097   1.156   5.647 -1.1671 -0.0632 -0.6037
 6145TIP3    H239851   6.072   1.021   5.711  2.1979 -1.1206 -1.3397
 6146TIP3   OH239852   6.630   0.503  16.448 -0.2154  0.6749  0.0128
 6146TIP3    H139853   6.664   0.464  16.368 -0.5030  2.3826 -0.9853
 6146TIP3    H239854   6.708   0.525  16.499 -0.0466 -1.5696  0.8548
 6147TIP3   OH239855   0.299   0.059   4.554 -1.0554  0.0235  0.2841
 6147TIP3    H139856   0.361   0.103   4.496  0.2740 -1.5077  0.4766
 6147TIP3    H239857   0.300  -0.032   4.526  0.3465 -0.9954  3.2074
 6148TIP3   OH239858   0.936   1.522  11.874  0.2555 -0.1567  0.3093
 6148TIP3    H139859   0.876   1.516  11.949 -0.0919  1.2786  0.1685
 6148TIP3    H239860   0.888   1.574  11.810  0.7407 -0.9772 -0.7395
 6149TIP3   OH239861   5.188   0.718  17.060  0.1275 -0.3793 -0.0324
 6149TIP3    H139862   5.105   0.766  17.067 -0.5137 -1.6769  2.4879
 6149TIP3    H239863   5.252   0.775  17.103 -0.6268 -1.5742  2.9272
 6150TIP3   OH239864   0.519   6.666   5.384 -0.0612 -0.6237 -0.6213
 6150TIP3    H139865   0.437   6.705   5.414 -0.3644 -1.4751 -0.3067
 6150TIP3    H239866   0.494   6.580   5.351  0.9138 -1.6060  1.0649
 6151TIP3   OH239867   0.263   6.091  13.212  0.1412  0.1328  0.2600
 6151TIP3    H139868   0.345   6.079  13.260  0.7338  1.4556 -0.3656
 6151TIP3    H239869   0.279   6.047  13.128 -0.0888 -0.2769  0.4263
 6152TIP3   OH239870   4.358   4.505  14.721 -0.1360 -0.1255 -0.5455
 6152TIP3    H139871   4.271   4.542  14.737 -1.2852 -2.2308 -1.5233
 6152TIP3    H239872   4.408   4.578  14.685 -1.2124  1.3543  0.7551
 6153TIP3   OH239873   4.540   3.065  17.075  0.0343 -0.5641 -0.7698
 6153TIP3    H139874   4.457   3.021  17.060  0.2150 -1.8143  1.5403
 6153TIP3    H239875   4.535   3.098  17.164  1.5746  0.3719 -0.9837
 6154TIP3   OH239876   3.098   5.139  12.399 -0.0119  0.1113  0.4922
 6154TIP3    H139877   3.157   5.080  12.447 -0.5836  0.7699  2.0770
 6154TIP3    H239878   3.074   5.090  12.320  0.3814 -1.3372  1.2333
 6155TIP3   OH239879   5.873   0.750  11.602 -0.2341  0.6867 -0.1363
 6155TIP3    H139880   5.847   0.814  11.669 -1.5287 -0.3881  0.4246
 6155TIP3    H239881   5.837   0.785  11.521  1.7672  2.2555 -0.4298
 6156TIP3   OH239882   5.368   5.940   3.595  0.1906 -0.1734  0.0010
 6156TIP3    H139883   5.284   5.985   3.589 -0.0846 -0.6004  0.5809
 6156TIP3    H239884   5.363   5.890   3.676  0.7688 -0.6809 -0.2653
 6157TIP3   OH239885   5.559   0.168   3.915 -0.6672 -0.1287 -0.1359
 6157TIP3    H139886   5.543   0.078   3.885 -1.4648 -0.2987  0.7382
 6157TIP3    H239887   5.575   0.218   3.835 -1.6620 -0.7655 -0.7535
 6158TIP3   OH239888   2.660   0.229  16.491  0.3313  0.0777  0.7745
 6158TIP3    H139889   2.592   0.205  16.429 -0.8971  0.4520  1.9304
 6158TIP3    H239890   2.730   0.267  16.437 -0.7113  0.4346 -0.3678
 6159TIP3   OH239891   2.144   6.716  14.418  0.2105  0.2249 -0.1740
 6159TIP3    H139892   2.126   6.790  14.476  2.7855  1.8660 -1.2954
 6159TIP3    H239893   2.200   6.658  14.470  0.4281  0.4175 -0.1948
 6160TIP3   OH239894   0.860   5.377  14.957  0.0131 -0.3290  0.5076
 6160TIP3    H139895   0.850   5.333  14.873  0.0972 -0.4911  0.5813
 6160TIP3    H239896   0.811   5.458  14.948  0.7031  0.0455  0.0197
 6161TIP3   OH239897   1.819   1.869   5.078 -0.4888  0.1848 -0.0867
 6161TIP3    H139898   1.733   1.849   5.113  0.2137 -0.9915  1.0159
 6161TIP3    H239899   1.864   1.785   5.073 -0.0152  0.5052 -2.4115
 6162TIP3   OH239900   3.463   1.603  14.332  0.9247 -0.1903 -0.0984
 6162TIP3    H139901   3.444   1.687  14.372  1.8606 -0.1555  0.2960
 6162TIP3    H239902   3.526   1.623  14.263 -0.4898 -0.2808 -1.4806
 6163TIP3   OH239903   4.369   4.057  14.780  0.8699 -0.0334  0.7722
 6163TIP3    H139904   4.276   4.060  14.758  1.0799  3.4082 -0.2240
 6163TIP3    H239905   4.379   4.122  14.850  2.6964  0.7373 -0.1356
 6164TIP3   OH239906   4.317   5.133   1.514  0.5343 -0.3874 -0.4393
 6164TIP3    H139907   4.239   5.104   1.562  0.6170 -0.5109 -0.3800
 6164TIP3    H239908   4.292   5.125   1.422  0.6830 -0.9965 -0.4315
 6165TIP3   OH239909   6.217   4.244  16.939 -0.3127 -0.0165 -0.2987
 6165TIP3    H139910   6.124   4.236  16.961 -0.0788 -2.7521  0.0459
 6165TIP3    H239911   6.263   4.229  17.022  0.4599  0.7642 -0.5716
 6166TIP3   OH239912   1.819   1.002  11.767 -0.3475  0.0880  0.2636
 6166TIP3    H139913   1.745   0.944  11.787  0.1236 -0.6456 -0.0629
 6166TIP3    H239914   1.796   1.044  11.685 -1.6201  1.9725  1.5034
 6167TIP3   OH239915   4.380   2.444  11.388  0.0343 -0.1898 -0.0242
 6167TIP3    H139916   4.464   2.399  11.382  0.5920  0.7828  0.2700
 6167TIP3    H239917   4.387   2.516  11.325 -0.7606 -0.3628 -0.3321
 6168TIP3   OH239918   0.497   2.390  13.003  0.4366  0.2006  0.0836
 6168TIP3    H139919   0.466   2.479  12.984  1.7706  0.8918  0.9539
 6168TIP3    H239920   0.592   2.398  13.003  0.5576 -1.0475  1.0285
 6169TIP3   OH239921   5.986   3.219  11.776  0.4077 -0.5542 -0.4442
 6169TIP3    H139922   5.901   3.232  11.735 -0.2400  0.0674  1.0314
 6169TIP3    H239923   6.026   3.147  11.727 -0.7876 -0.5818 -1.4110
 6170TIP3   OH239924   0.733   2.443   1.010  0.1447  0.2736 -0.4698
 6170TIP3    H139925   0.801   2.456   0.945 -0.7848  2.4498 -1.1148
 6170TIP3    H239926   0.763   2.491   1.087 -0.4390  0.9128 -0.6251
 6171TIP3   OH239927   0.329   4.730   2.547  0.2311  0.0920 -0.4457
 6171TIP3    H139928   0.251   4.766   2.505 -0.2104 -0.3989 -0.0742
 6171TIP3    H239929   0.336   4.641   2.512 -0.5694 -0.5830  1.0236
 6172TIP3   OH239930   4.566   0.178  13.450  0.0623  0.4978  0.1080
 6172TIP3    H139931   4.548   0.218  13.535  0.0141  0.2108  0.2352
 6172TIP3    H239932   4.483   0.140  13.423  0.2929 -0.1916  0.3512
 6173TIP3   OH239933   5.327   1.817  12.123  0.0924 -0.0112  1.1474
 6173TIP3    H139934   5.237   1.841  12.099  0.5841  1.5594  0.7714
 6173TIP3    H239935   5.317   1.739  12.177 -1.3415 -1.3084 -0.8241
 6174TIP3   OH239936   0.061   4.665   1.205  0.2952 -0.0751 -0.8454
 6174TIP3    H139937   0.083   4.593   1.264 -2.2062 -0.8542 -0.7852
 6174TIP3    H239938   0.041   4.623   1.122 -3.1256  0.2323 -0.3036
 6175TIP3   OH239939   6.270   2.439   4.497  0.1132  0.1611  0.3279
 6175TIP3    H139940   6.215   2.462   4.422 -0.2893  0.3791  0.6828
 6175TIP3    H239941   6.353   2.411   4.459  0.2077  1.0737 -0.1623
 6176TIP3   OH239942   5.569   0.601  13.786  0.4653 -0.3221  0.0634
 6176TIP3    H139943   5.579   0.569  13.697 -0.6440 -0.2509 -0.1021
 6176TIP3    H239944   5.548   0.694  13.776 -0.2460 -0.4434  0.3651
 6177TIP3   OH239945   4.909   6.667  15.222  0.3075  0.0888 -0.2773
 6177TIP3    H139946   4.872   6.722  15.153  1.9398  0.5196 -0.8722
 6177TIP3    H239947   4.835   6.644  15.278 -0.9965  0.0837 -1.9259
 6178TIP3   OH239948   3.103   3.945   1.346 -0.0362  0.2955 -0.5004
 6178TIP3    H139949   3.085   3.991   1.264  2.9197  0.7670 -1.0158
 6178TIP3    H239950   3.108   4.014   1.412 -1.7117 -0.0097 -0.0177
 6179TIP3   OH239951   5.871   5.833   4.038 -0.4242  0.3805  0.3867
 6179TIP3    H139952   5.856   5.868   4.126 -2.6221  0.1620  0.1643
 6179TIP3    H239953   5.791   5.854   3.990 -0.1385 -1.3398 -0.9448
 6180TIP3   OH239954   0.631   1.929  11.864  0.3407 -0.0483 -0.0679
 6180TIP3    H139955   0.573   2.004  11.882  2.4742  1.4918  0.7581
 6180TIP3    H239956   0.605   1.863  11.928  0.9663  1.4849  1.8611
 6181TIP3   OH239957   4.772   0.653   5.316  0.5323  0.1298  0.3955
 6181TIP3    H139958   4.763   0.650   5.412  1.3981 -2.6853  0.5015
 6181TIP3    H239959   4.813   0.569   5.294  1.1641  1.0771 -2.3923
 6182TIP3   OH239960   3.797   1.547  10.704  0.0096 -0.1508 -0.5312
 6182TIP3    H139961   3.716   1.598  10.695 -0.3298 -0.2577  1.3886
 6182TIP3    H239962   3.777   1.463  10.663 -0.5877  0.0936 -0.7598
 6183TIP3   OH239963   1.073   4.912  13.078 -0.3897 -0.1111 -0.4130
 6183TIP3    H139964   1.075   4.851  13.152 -1.2135 -0.1667 -0.4214
 6183TIP3    H239965   1.066   4.998  13.120  0.1065 -0.0676 -0.4137
 6184TIP3   OH239966   0.815   2.892  15.554  1.1038 -0.2352  0.2568
 6184TIP3    H139967   0.830   2.942  15.635 -0.6663  2.0028 -0.6878
 6184TIP3    H239968   0.751   2.826  15.578 -0.3581  1.1962  0.5063
 6185TIP3   OH239969   0.949   0.183  17.027 -0.3385  0.5761 -0.2643
 6185TIP3    H139970   0.914   0.239  16.957  0.0981  1.5371  0.2665
 6185TIP3    H239971   1.005   0.121  16.982 -0.3311  0.9676 -0.8108
 6186TIP3   OH239972   3.081   4.259  14.785  0.4937  0.4076  0.3177
 6186TIP3    H139973   3.119   4.173  14.802 -1.5257 -0.8947 -1.2885
 6186TIP3    H239974   3.029   4.247  14.705 -1.2419  2.6813  1.0027
 6187TIP3   OH239975   1.006   2.702   1.001  0.3449 -0.6346 -0.7104
 6187TIP3    H139976   0.962   2.658   1.074 -1.6524 -0.7467 -1.9020
 6187TIP3    H239977   1.099   2.686   1.016  0.0848 -0.0657  2.1679
 6188TIP3   OH239978   4.272   2.579   3.479  0.0084 -0.1138  0.2047
 6188TIP3    H139979   4.261   2.648   3.414 -0.0103  0.8361  1.1818
 6188TIP3    H239980   4.195   2.585   3.535  0.9720  0.5085  1.5582
 6189TIP3   OH239981   6.755   1.158   4.434 -0.8710 -0.3486  0.6612
 6189TIP3    H139982   6.774   1.146   4.527  0.9728 -1.6841  0.1637
 6189TIP3    H239983   6.786   1.078   4.393  0.6530  1.2088 -1.4195
 6190TIP3   OH239984   2.196   4.729  16.310  0.6223  0.1705  0.3734
 6190TIP3    H139985   2.262   4.785  16.269  1.8017 -2.2597 -1.2592
 6190TIP3    H239986   2.113   4.769  16.286  1.4176  1.5207 -0.2565
 6191TIP3   OH239987   4.547   2.449   0.279  0.0277 -0.3594 -0.3528
 6191TIP3    H139988   4.628   2.496   0.301 -0.2181 -0.5164  0.9577
 6191TIP3    H239989   4.560   2.361   0.316 -0.7094 -0.4099 -0.2055
 6192TIP3   OH239990   5.916   2.959  13.098 -0.6131 -0.0572 -0.5430
 6192TIP3    H139991   5.920   3.041  13.049  0.5043  0.3294  0.1589
 6192TIP3    H239992   5.947   2.892  13.036  0.9499  0.4478 -0.3457
 6193TIP3   OH239993   4.052   3.881  12.436  0.5884 -0.1460  0.4909
 6193TIP3    H139994   4.019   3.970  12.428  2.1601  0.4999  0.7541
 6193TIP3    H239995   4.107   3.882  12.515  2.5675 -0.6721 -0.7895
 6194TIP3   OH239996   0.674   1.465  15.250 -0.3786 -0.8593  0.0693
 6194TIP3    H139997   0.608   1.455  15.181  1.1054 -2.9879 -1.1561
 6194TIP3    H239998   0.627   1.443  15.330 -1.5217 -0.9334 -0.5936
 6195TIP3   OH239999   6.221   2.831  15.363 -0.1905 -0.1566  0.0460
 6195TIP3    H140000   6.192   2.790  15.444 -0.5503  0.1742  0.0890
 6195TIP3    H240001   6.140   2.854  15.318  0.0006  0.9285  0.2386
 6196TIP3   OH240002   2.237   3.918   2.561 -0.0957  0.2569  0.0963
 6196TIP3    H140003   2.290   3.841   2.540 -0.0805  0.4650 -0.6921
 6196TIP3    H240004   2.254   3.936   2.653 -1.5339 -1.8038  0.8348
 6197TIP3   OH240005   1.919   4.716  10.866  0.2672 -0.0628 -0.0674
 6197TIP3    H140006   1.841   4.668  10.893 -0.4058  0.2044 -1.4472
 6197TIP3    H240007   1.894   4.759  10.784  1.4537  1.0937  0.1394
 6198TIP3   OH240008   4.797   6.233   2.738  0.9341  0.0961 -0.2273
 6198TIP3    H140009   4.828   6.317   2.772  0.4999  1.3257 -2.6667
 6198TIP3    H240010   4.877   6.187   2.711  1.1114  0.0103  0.4090
 6199TIP3   OH240011   2.588   2.227   0.789  0.1396 -0.2625 -0.1483
 6199TIP3    H140012   2.517   2.290   0.785  0.3078 -0.1305 -1.4682
 6199TIP3    H240013   2.666   2.279   0.809  0.3977  0.0906 -1.9093
 6200TIP3   OH240014   3.002   5.280   3.969 -0.0493 -0.0327  0.2483
 6200TIP3    H140015   2.962   5.326   3.895 -1.0301 -1.1614  0.0446
 6200TIP3    H240016   3.074   5.231   3.930 -1.0779 -1.2841 -0.1379
 6201TIP3   OH240017   0.244   2.157  12.189 -0.3691 -0.0295  0.0795
 6201TIP3    H140018   0.282   2.216  12.123  2.9389 -1.9801 -0.0168
 6201TIP3    H240019   0.235   2.211  12.267 -1.2815  1.5209 -1.0423
 6202TIP3   OH240020   5.970   2.947   5.035  0.0834 -0.3069 -0.3489
 6202TIP3    H140021   5.929   2.866   5.067  0.7372 -0.5374 -0.0826
 6202TIP3    H240022   6.037   2.917   4.974  0.7653 -0.0082  0.2323
 6203TIP3   OH240023   4.280   5.099   5.373  0.0758 -0.0617  0.2622
 6203TIP3    H140024   4.347   5.031   5.357 -1.0070 -0.9495 -0.6709
 6203TIP3    H240025   4.211   5.079   5.310 -0.3246  1.8761  0.0521
 6204TIP3   OH240026   2.598   1.086   4.708 -0.3106 -0.6094  0.6057
 6204TIP3    H140027   2.665   1.035   4.662 -0.9795 -0.7245 -0.2717
 6204TIP3    H240028   2.540   1.118   4.638  0.8426  2.5769  0.9521
 6205TIP3   OH240029   5.411   3.366   5.352 -1.0083  0.4509 -0.0507
 6205TIP3    H140030   5.403   3.344   5.259  0.8366  2.8821 -0.8780
 6205TIP3    H240031   5.321   3.387   5.379 -1.3864  1.0913 -1.6747
 6206TIP3   OH240032   5.182   5.593  16.938  0.5884 -0.2057 -0.5266
 6206TIP3    H140033   5.090   5.619  16.947  0.1201 -1.5578 -1.0955
 6206TIP3    H240034   5.179   5.498  16.925  2.1819 -0.5168  1.0328
 6207TIP3   OH240035   0.336   4.945  12.668  0.5326 -0.5280 -0.2198
 6207TIP3    H140036   0.262   4.941  12.729  1.4619 -0.5811  0.9415
 6207TIP3    H240037   0.383   5.024  12.693  0.5862 -0.2154 -1.2981
 6208TIP3   OH240038   2.677   1.963  14.127 -0.0858  0.6395  0.2429
 6208TIP3    H140039   2.641   2.005  14.205  1.4311  1.1964  0.6849
 6208TIP3    H240040   2.602   1.950  14.070 -1.2990 -0.0889  1.9157
 6209TIP3   OH240041   6.749   4.423   4.967  0.2344  0.3146 -0.3515
 6209TIP3    H140042   6.809   4.355   4.996 -1.2695 -0.7332  0.4721
 6209TIP3    H240043   6.771   4.500   5.019  1.5911  0.3120 -0.8947
 6210TIP3   OH240044   6.570   1.434   4.493 -0.6501 -0.3237  0.2350
 6210TIP3    H140045   6.595   1.404   4.580  0.4121  1.9626  0.7813
 6210TIP3    H240046   6.586   1.528   4.494 -0.8830 -0.1826 -2.3590
 6211TIP3   OH240047   4.191   4.376  11.491 -0.0045 -0.3816 -0.1281
 6211TIP3    H140048   4.098   4.370  11.471  0.2672 -1.6231 -1.1724
 6211TIP3    H240049   4.228   4.426  11.419  0.0547  0.7570  0.6641
 6212TIP3   OH240050   4.301   2.339   4.693 -0.1615  0.2922 -0.2697
 6212TIP3    H140051   4.383   2.386   4.703  1.3995 -1.8646 -1.7571
 6212TIP3    H240052   4.246   2.397   4.640  0.9617  1.1819 -0.4994
 6213TIP3   OH240053   6.484   1.978   1.106  0.1060  0.4330  0.4740
 6213TIP3    H140054   6.558   1.947   1.054  1.4216  0.7422  2.0985
 6213TIP3    H240055   6.521   2.043   1.165 -1.5813  1.0252  0.9416
 6214TIP3   OH240056   1.811   5.823  12.442  0.0576 -0.2376  0.4948
 6214TIP3    H140057   1.868   5.886  12.400 -1.4856 -0.0173 -1.4421
 6214TIP3    H240058   1.863   5.787  12.514  1.5875  1.9306  0.5717
 6215TIP3   OH240059   1.938   1.589  17.022  0.4119  0.5111 -0.4415
 6215TIP3    H140060   1.851   1.549  17.017  0.9260 -0.5573 -1.2066
 6215TIP3    H240061   1.924   1.669  17.073 -1.0853  0.5431 -0.8377
 6216TIP3   OH240062   4.147   4.267  15.166 -0.3028  0.1063 -0.2311
 6216TIP3    H140063   4.126   4.177  15.188 -0.0527  0.4912  1.7798
 6216TIP3    H240064   4.226   4.287  15.216 -1.6635  2.1191  1.2940
 6217TIP3   OH240065   6.620   2.468  10.915  0.3037 -0.3702 -0.4455
 6217TIP3    H140066   6.596   2.481  10.823 -0.1992  1.4838 -0.0927
 6217TIP3    H240067   6.551   2.513  10.964  1.0231 -0.6072  0.8189
 6218TIP3   OH240068   2.252   4.759   3.732  0.4726 -0.1627 -0.0254
 6218TIP3    H140069   2.290   4.846   3.743  2.9586 -1.2808  1.0178
 6218TIP3    H240070   2.324   4.705   3.698 -1.3943 -1.5206 -2.0618
 6219TIP3   OH240071   2.562   5.933  15.394 -0.2905  0.5036  0.8188
 6219TIP3    H140072   2.650   5.924  15.359 -0.5237  2.0872 -0.2947
 6219TIP3    H240073   2.552   6.027  15.411 -1.4476  0.2397  1.7977
 6220TIP3   OH240074   6.105   1.136  11.441  0.1769 -0.1668  0.5768
 6220TIP3    H140075   6.164   1.155  11.369 -0.9906 -1.0282 -0.6513
 6220TIP3    H240076   6.095   1.041  11.441 -0.5508 -0.1081  1.2883
 6221TIP3   OH240077   5.690   3.612   2.355  0.2100  0.0738 -0.2010
 6221TIP3    H140078   5.679   3.697   2.398 -0.6559  0.0622 -0.3769
 6221TIP3    H240079   5.649   3.549   2.414  0.0572 -0.0975 -0.4852
 6222TIP3   OH240080   4.123   0.170   4.789 -0.0677 -0.5959  0.3675
 6222TIP3    H140081   4.184   0.142   4.858  0.6406 -0.1843 -0.0798
 6222TIP3    H240082   4.056   0.220   4.835 -1.1138 -2.5958  1.1277
 6223TIP3   OH240083   1.707   4.748  15.515  0.0762 -0.1307  0.0932
 6223TIP3    H140084   1.705   4.664  15.561  0.9635  1.0365  2.3618
 6223TIP3    H240085   1.797   4.755  15.483  0.0130 -0.0059 -0.0572
 6224TIP3   OH240086   0.236   0.914  16.747 -0.4435 -0.1564  0.6371
 6224TIP3    H140087   0.203   0.982  16.688  0.1450  0.2978  0.8209
 6224TIP3    H240088   0.201   0.938  16.833  0.7527  0.6202  0.9281
 6225TIP3   OH240089   1.168   1.620  17.075  0.1372  0.2593  0.6518
 6225TIP3    H140090   1.075   1.599  17.080  0.1717 -0.4227 -0.9095
 6225TIP3    H240091   1.172   1.699  17.021  0.4689  0.1454  0.5077
 6226TIP3   OH240092   5.594   3.041  13.326 -0.1939  0.3566 -0.2558
 6226TIP3    H140093   5.661   2.983  13.363  1.6588  1.6220 -1.4664
 6226TIP3    H240094   5.511   2.996  13.344  0.8669 -0.8904  2.0275
 6227TIP3   OH240095   5.912   4.841   1.062 -0.1548  0.0703  0.4579
 6227TIP3    H140096   5.825   4.879   1.059 -0.8226 -1.3143  1.1332
 6227TIP3    H240097   5.897   4.746   1.058  1.4097 -0.1579 -0.8592
 6228TIP3   OH240098   1.039   0.371  16.118 -0.5252  0.2472 -0.0344
 6228TIP3    H140099   1.070   0.462  16.124 -0.5199  0.3088 -0.8648
 6228TIP3    H240100   0.981   0.360  16.193 -0.7673  1.0329 -0.0995
 6229TIP3   OH240101   6.632   3.190   6.356 -0.4620  0.7089  0.3489
 6229TIP3    H140102   6.577   3.267   6.365 -0.5637  0.6629  0.1290
 6229TIP3    H240103   6.571   3.116   6.361 -0.1887  0.5492  2.3042
 6230TIP3   OH240104   4.190   2.445  16.974 -0.2615  0.1947 -1.1584
 6230TIP3    H140105   4.234   2.366  16.942 -0.5215  0.6878 -2.8365
 6230TIP3    H240106   4.262   2.502  17.001 -0.0839 -0.7440  0.5174
 6231TIP3   OH240107   1.079   5.030   1.800 -0.3455 -0.0350  0.3932
 6231TIP3    H140108   1.172   5.035   1.823 -0.2677  0.2032  0.0372
 6231TIP3    H240109   1.050   4.945   1.833 -0.4186  0.5804  2.0120
 6232TIP3   OH240110   2.926   2.797   0.130 -0.5286 -0.2392 -0.0646
 6232TIP3    H140111   2.918   2.890   0.108  0.0634 -0.2449 -0.3122
 6232TIP3    H240112   2.836   2.765   0.130 -0.6928  0.2151 -0.4933
 6233TIP3   OH240113   1.164   5.617  16.168  0.3302  0.6253  0.1769
 6233TIP3    H140114   1.173   5.630  16.073 -0.7351 -0.0532 -0.0303
 6233TIP3    H240115   1.147   5.704  16.202 -0.2951  0.7294 -0.3824
 6234TIP3   OH240116   3.331   6.153   4.096  0.2279  0.0928  0.0271
 6234TIP3    H140117   3.254   6.142   4.153  0.7149 -2.1969  0.3201
 6234TIP3    H240118   3.302   6.215   4.029 -0.9722  1.4073  1.6773
 6235TIP3   OH240119   1.277   1.841  14.122  0.1469 -0.2021 -0.0210
 6235TIP3    H140120   1.347   1.904  14.105 -0.6029  0.4175 -0.9731
 6235TIP3    H240121   1.245   1.863  14.210  1.1088 -0.4742  0.4061
 6236TIP3   OH240122   0.483   4.407   1.853  0.0707 -0.0083 -0.1953
 6236TIP3    H140123   0.490   4.438   1.943  2.5752  0.0961 -0.3547
 6236TIP3    H240124   0.448   4.481   1.804  2.0928  1.2491  0.1364
 6237TIP3   OH240125   3.704   2.363  16.963  0.4956  0.1031 -0.3104
 6237TIP3    H140126   3.729   2.418  17.037  0.7615  0.9739 -1.0498
 6237TIP3    H240127   3.778   2.366  16.903 -0.2593  0.4984 -1.2435
 6238TIP3   OH240128   4.412   5.151   2.859  0.4794 -0.4687  0.1174
 6238TIP3    H140129   4.387   5.235   2.820  0.4597 -0.4917  0.0801
 6238TIP3    H240130   4.373   5.152   2.946  2.0604  0.3570  0.8403
 6239TIP3   OH240131   1.361   4.637   3.639  0.0255 -0.2424  0.5926
 6239TIP3    H140132   1.348   4.688   3.719  0.2439  0.8421 -0.0562
 6239TIP3    H240133   1.444   4.668   3.604  0.6833 -1.7671  0.7083
 6240TIP3   OH240134   0.288   4.613   0.045  0.0897  0.6131  0.0897
 6240TIP3    H140135   0.382   4.618   0.064 -0.0728  1.3981  0.7487
 6240TIP3    H240136   0.256   4.540   0.098  0.4793 -0.2667 -0.8522
 6241TIP3   OH240137   2.051   0.244   3.040 -1.0764 -0.7232  0.5590
 6241TIP3    H140138   2.040   0.169   2.981 -2.3091 -1.9506  2.2304
 6241TIP3    H240139   2.090   0.312   2.986 -0.6685 -2.3016 -1.2458
 6242TIP3   OH240140   2.014   1.684  11.434 -0.2939  0.3227  0.4859
 6242TIP3    H140141   2.002   1.608  11.378 -2.0424 -1.3968  2.9488
 6242TIP3    H240142   2.079   1.657  11.498  1.1204  1.9646 -0.1804
 6243TIP3   OH240143   3.204   0.952   4.213 -0.6871 -0.2890 -0.1153
 6243TIP3    H140144   3.191   0.999   4.296  1.3811 -0.9614  0.6581
 6243TIP3    H240145   3.165   0.866   4.228 -1.3818 -0.0074 -0.2821
 6244TIP3   OH240146   4.670   6.610  11.723 -0.2018  0.2298 -0.0922
 6244TIP3    H140147   4.604   6.666  11.764 -1.7751 -1.1716 -0.5848
 6244TIP3    H240148   4.654   6.619  11.629 -1.1553 -1.7167 -0.1764
 6245TIP3   OH240149   4.584   1.016   0.749 -0.5066 -0.1583 -0.7930
 6245TIP3    H140150   4.658   1.075   0.741  0.3147 -1.3457 -2.9343
 6245TIP3    H240151   4.621   0.936   0.788 -1.1746  0.0354  0.2664
 6246TIP3   OH240152   4.596   5.831  13.580 -0.2112 -0.3064 -0.3517
 6246TIP3    H140153   4.599   5.863  13.670 -0.7601 -0.5705 -0.2315
 6246TIP3    H240154   4.559   5.903  13.529  1.1427  0.2571 -0.5692
 6247TIP3   OH240155   4.978   5.668   5.965  0.7074  0.3528  0.1676
 6247TIP3    H140156   4.948   5.740   5.911 -0.7491  0.0613  0.5408
 6247TIP3    H240157   5.070   5.687   5.983  1.0350  0.8045 -1.8103
 6248TIP3   OH240158   4.490   6.318   6.269  0.0574 -0.0061  0.0005
 6248TIP3    H140159   4.453   6.405   6.264  0.5447  0.1573 -1.0166
 6248TIP3    H240160   4.461   6.274   6.189 -1.0289 -1.1313  0.9772
 6249TIP3   OH240161   0.901   3.095  11.912  0.5403  0.5819  0.1078
 6249TIP3    H140162   0.851   3.107  11.993  1.0678  1.7035  0.2924
 6249TIP3    H240163   0.844   3.127  11.843 -0.5293 -1.8166 -0.1920
 6250TIP3   OH240164   6.299   0.866   1.476  0.2854 -0.0061 -0.0041
 6250TIP3    H140165   6.387   0.898   1.494 -0.6744  2.7814  0.2484
 6250TIP3    H240166   6.297   0.851   1.381  1.2760 -0.9707  0.1222
 6251TIP3   OH240167   5.697   3.632  14.327  0.0671 -0.0525 -0.5457
 6251TIP3    H140168   5.626   3.648  14.264 -0.8260 -0.2833  0.3747
 6251TIP3    H240169   5.676   3.547  14.365 -0.1668  0.6868  1.0330
 6252TIP3   OH240170   5.366   6.707  11.611 -0.4100 -0.4285  0.7015
 6252TIP3    H140171   5.351   6.632  11.553  0.0486  1.0591 -1.4191
 6252TIP3    H240172   5.363   6.783  11.554  1.9718  0.9850  2.2848
 6253TIP3   OH240173   4.210   5.632  14.636 -0.0415 -0.3929 -0.1169
 6253TIP3    H140174   4.278   5.608  14.700 -1.2314 -0.4694  1.1731
 6253TIP3    H240175   4.197   5.554  14.583  1.2336 -0.2098 -0.7360
 6254TIP3   OH240176   0.429   4.252   2.550 -0.1600 -0.2381 -0.1586
 6254TIP3    H140177   0.420   4.211   2.636 -2.0227 -1.0736 -0.6912
 6254TIP3    H240178   0.434   4.178   2.489  1.2385  0.3372 -0.8071
 6255TIP3   OH240179   4.373   4.293  14.930 -0.2362  0.1081  0.1919
 6255TIP3    H140180   4.356   4.378  14.891 -0.5620 -0.1890 -0.3221
 6255TIP3    H240181   4.318   4.290  15.008 -2.2599 -0.6451 -1.1796
 6256TIP3   OH240182   1.419   0.845   1.846  0.0875  0.0045  0.3130
 6256TIP3    H140183   1.364   0.828   1.769 -1.1451  0.8874  0.9617
 6256TIP3    H240184   1.509   0.837   1.814 -0.3850  0.8859 -1.3482
 6257TIP3   OH240185   1.767   1.745  11.357  0.0436  0.3341  0.0919
 6257TIP3    H140186   1.689   1.697  11.387 -0.1794  1.3635  1.2481
 6257TIP3    H240187   1.839   1.703  11.404  0.7395 -2.6579 -3.2141
 6258TIP3   OH240188   0.216   4.486  13.727  0.5227 -0.1682 -0.2146
 6258TIP3    H140189   0.176   4.572  13.743 -0.7489 -0.9820  1.2807
 6258TIP3    H240190   0.308   4.506  13.710  0.1475  1.5373 -0.4882
 6259TIP3   OH240191   1.087   2.946  15.445 -0.1411  0.0321 -0.2559
 6259TIP3    H140192   1.012   2.921  15.498 -0.3601 -2.2847 -1.4760
 6259TIP3    H240193   1.058   2.932  15.355  0.8331  1.9550 -0.9243
 6260TIP3   OH240194   2.965   4.889  14.624  0.1012  0.0724 -0.1843
 6260TIP3    H140195   2.966   4.804  14.668 -1.4677 -0.0529 -0.3367
 6260TIP3    H240196   3.054   4.899  14.590  0.8837 -0.5804  1.5499
 6261TIP3   OH240197   0.067   1.928   4.264  0.1455 -0.5347 -0.1348
 6261TIP3    H140198   0.136   1.984   4.228 -0.4359 -1.7256 -3.4000
 6261TIP3    H240199  -0.015   1.968   4.233 -0.4010 -1.6903 -0.2294
 6262TIP3   OH240200   5.695   2.781  12.407 -0.6294 -0.5509  0.2868
 6262TIP3    H140201   5.708   2.847  12.339 -2.0806 -1.1819 -0.6750
 6262TIP3    H240202   5.613   2.806  12.450 -0.2978 -0.7727  1.0561
 6263TIP3   OH240203   4.622   5.163  11.327  0.4752  0.9079  0.2088
 6263TIP3    H140204   4.610   5.133  11.237  1.1310  1.9692 -0.2554
 6263TIP3    H240205   4.624   5.083  11.379  1.0788  0.2177 -0.8399
 6264TIP3   OH240206   4.881   3.879  13.237 -0.1606 -0.1428 -0.0370
 6264TIP3    H140207   4.919   3.824  13.169 -1.1908  0.9040 -1.5353
 6264TIP3    H240208   4.798   3.908  13.200 -0.0193  1.7512  1.0191
 6265TIP3   OH240209   1.841   1.609  13.863 -0.4295  0.1902 -0.2710
 6265TIP3    H140210   1.890   1.555  13.800  0.0984  1.0307 -0.5949
 6265TIP3    H240211   1.812   1.547  13.930 -0.7889 -0.6821 -1.2087
 6266TIP3   OH240212   1.850   1.945  13.798 -0.0066  0.0263  0.1410
 6266TIP3    H140213   1.881   1.970  13.885  0.7075  1.4557 -0.4794
 6266TIP3    H240214   1.770   1.895  13.814  0.3611 -0.1382  1.6266
 6267TIP3   OH240215   1.426   3.915  13.981  0.3420  0.1447  0.2118
 6267TIP3    H140216   1.351   3.967  13.951  0.5811  0.6087  0.4108
 6267TIP3    H240217   1.460   3.963  14.056  1.1325  0.1846 -0.1678
 6268TIP3   OH240218   6.372   1.663  12.359 -0.2978 -0.1518  0.4124
 6268TIP3    H140219   6.412   1.727  12.418 -0.7145 -0.2825  0.8418
 6268TIP3    H240220   6.282   1.654  12.391  0.0000 -1.6137  0.9185
 6269TIP3   OH240221   0.273   1.822   0.149 -0.0593 -0.0984  0.0931
 6269TIP3    H140222   0.269   1.917   0.144  0.5336 -0.1140 -0.9185
 6269TIP3    H240223   0.222   1.791   0.075 -0.1475 -0.5700  0.3433
 6270TIP3   OH240224   2.703   4.731  15.858 -0.3518  0.3614  0.3544
 6270TIP3    H140225   2.784   4.764  15.819  0.0819 -0.3449  0.6441
 6270TIP3    H240226   2.724   4.642  15.886 -1.6787 -0.4321 -0.9912
 6271TIP3   OH240227   0.205   5.694  11.524 -0.4433  0.2064 -0.3209
 6271TIP3    H140228   0.228   5.682  11.431 -1.6507  0.5101 -0.6681
 6271TIP3    H240229   0.121   5.649  11.534  0.7599 -1.8965  1.2035
 6272TIP3   OH240230   6.745   3.855   4.680  0.0424  0.0104  0.2908
 6272TIP3    H140231   6.767   3.791   4.748 -0.1491 -1.3080 -0.8415
 6272TIP3    H240232   6.702   3.927   4.728  2.6254  0.5793  1.9610
 6273TIP3   OH240233   0.835   1.010  11.966 -0.2345  0.1246  0.4802
 6273TIP3    H140234   0.785   1.009  11.885 -1.4042 -1.7006  1.1598
 6273TIP3    H240235   0.778   1.054  12.029  0.1332  0.3939  0.6313
 6274TIP3   OH240236   3.688   0.239   2.675  0.0309  0.4982  0.3203
 6274TIP3    H140237   3.703   0.182   2.599 -2.2011  0.5646 -0.2517
 6274TIP3    H240238   3.738   0.319   2.655  0.7611 -0.1005 -0.3053
 6275TIP3   OH240239   2.286   2.517  13.345 -0.0528  0.0639  0.0734
 6275TIP3    H140240   2.265   2.583  13.279 -0.4894 -1.9438 -1.8909
 6275TIP3    H240241   2.336   2.450  13.298  4.1339  0.8081  2.8283
 6276TIP3   OH240242   1.864   3.305   3.459  0.0283  0.7013 -0.0825
 6276TIP3    H140243   1.864   3.294   3.554  1.1063 -1.2414 -0.2340
 6276TIP3    H240244   1.956   3.323   3.437 -0.3520  1.9674 -0.7013
 6277TIP3   OH240245   6.182   2.510  16.152  0.0078 -0.3952  0.3786
 6277TIP3    H140246   6.187   2.416  16.172 -1.3755 -0.3356  1.0834
 6277TIP3    H240247   6.120   2.545  16.215 -0.3973  0.7944 -0.6372
 6278TIP3   OH240248   6.518   5.804   3.967 -0.0119 -0.1407 -0.0005
 6278TIP3    H140249   6.570   5.737   3.923  0.4636  0.0597  0.2397
 6278TIP3    H240250   6.569   5.826   4.045  0.1967  1.0071 -0.4417
 6279TIP3   OH240251   2.645   3.546   0.905 -0.6660 -0.6165 -0.0360
 6279TIP3    H140252   2.584   3.617   0.925 -0.6780 -0.5876 -0.1739
 6279TIP3    H240253   2.722   3.590   0.868 -1.3821 -0.7943 -1.8465
 6280TIP3   OH240254   0.792   2.671   2.531  0.7405  0.1176 -0.0509
 6280TIP3    H140255   0.842   2.725   2.591  1.0194  0.5255 -0.6444
 6280TIP3    H240256   0.778   2.726   2.454  0.0667 -0.2649 -0.2177
 6281TIP3   OH240257   2.075   2.359   0.538 -0.1125  0.3581  0.1999
 6281TIP3    H140258   2.099   2.396   0.453  0.2498 -0.5365 -0.0987
 6281TIP3    H240259   2.130   2.405   0.601  1.6132 -0.8430 -0.3525
 6282TIP3   OH240260   4.258   6.184  11.090  0.2501 -0.2831 -0.2019
 6282TIP3    H140261   4.245   6.117  11.023 -2.0494  1.5435 -1.7644
 6282TIP3    H240262   4.212   6.150  11.167 -1.4962 -0.2535 -1.1916
 6283TIP3   OH240263   0.039   5.555  15.509 -0.2196  0.5923  0.1226
 6283TIP3    H140264  -0.053   5.539  15.491  0.2426  0.2277 -2.2927
 6283TIP3    H240265   0.044   5.648  15.532 -1.2084  0.5413  0.5513
 6284TIP3   OH240266   4.312   3.848   4.274  0.3192 -0.3465 -0.2706
 6284TIP3    H140267   4.265   3.905   4.334  0.6343  0.1293 -0.4660
 6284TIP3    H240268   4.318   3.899   4.192 -0.2170 -1.0329 -0.7438
 6285TIP3   OH240269   6.784   3.251   2.560 -0.0911 -0.4706  0.1490
 6285TIP3    H140270   6.707   3.290   2.519  0.2412  0.3461  0.2815
 6285TIP3    H240271   6.752   3.213   2.641 -0.2359  0.5186  0.5705
 6286TIP3   OH240272   4.028   3.661  15.074  0.1987 -0.6914 -0.0891
 6286TIP3    H140273   4.081   3.686  14.998 -0.6291 -0.0574 -0.4798
 6286TIP3    H240274   4.079   3.690  15.150  1.4024 -2.0392 -0.3456
 6287TIP3   OH240275   0.236   1.384  16.447  0.0766  0.0100 -0.6040
 6287TIP3    H140276   0.221   1.412  16.537 -0.9078 -0.5849 -0.5740
 6287TIP3    H240277   0.331   1.395  16.435  0.1821  0.3555  0.4066
 6288TIP3   OH240278   5.555   4.100  13.060  0.3261  0.2930 -0.0488
 6288TIP3    H140279   5.566   4.195  13.055  0.0478  0.3821  0.8157
 6288TIP3    H240280   5.551   4.071  12.969  1.5050  0.9741 -0.3345
 6289TIP3   OH240281   0.712   3.507   2.596  0.1165  0.3604  0.0589
 6289TIP3    H140282   0.773   3.442   2.632 -1.4163  0.1360  2.4401
 6289TIP3    H240283   0.745   3.591   2.629 -0.7829  0.2369  1.3673
 6290TIP3   OH240284   5.472   0.569  14.525  0.0519  0.2529  0.8574
 6290TIP3    H140285   5.418   0.641  14.557 -3.6417 -1.0619 -1.7021
 6290TIP3    H240286   5.495   0.595  14.436  1.3071 -0.4689  0.9549
 6291TIP3   OH240287   0.430   4.243  13.822  0.2507 -0.5222 -0.4572
 6291TIP3    H140288   0.467   4.264  13.908 -3.2700 -1.0160  1.3621
 6291TIP3    H240289   0.460   4.314  13.765  1.6003  0.5547  1.4700
 6292TIP3   OH240290   3.460   0.256  14.551  0.2179  0.3310 -0.4447
 6292TIP3    H140291   3.500   0.315  14.487 -2.0237  1.6636 -0.7160
 6292TIP3    H240292   3.456   0.307  14.632 -1.2737  0.4066 -0.5435
 6293TIP3   OH240293   1.721   4.454   1.089  0.4877 -0.1362  0.4571
 6293TIP3    H140294   1.688   4.511   1.019  0.3739  0.4662  1.0000
 6293TIP3    H240295   1.813   4.439   1.066 -0.2771 -2.5197 -1.5346
 6294TIP3   OH240296   3.284   4.256  15.296  0.1841 -0.1165  0.3272
 6294TIP3    H140297   3.227   4.185  15.328  0.0837 -0.6920 -1.0696
 6294TIP3    H240298   3.279   4.250  15.201 -0.2531  2.1290  0.1551
 6295TIP3   OH240299   4.834   0.982   7.085  0.4047  0.0505 -0.5334
 6295TIP3    H140300   4.771   0.984   7.012  1.0961 -0.2146 -1.1460
 6295TIP3    H240301   4.912   1.024   7.051  1.3372 -1.5954 -0.5266
 6296TIP3   OH240302   2.925   3.867   5.082 -0.0980  0.1123 -0.7771
 6296TIP3    H140303   2.835   3.890   5.106  0.1295  0.1192  0.1015
 6296TIP3    H240304   2.916   3.820   4.999 -1.0318 -0.9708 -0.0975
 6297TIP3   OH240305   5.415   5.461   1.178  0.3968 -0.5654  0.3075
 6297TIP3    H140306   5.384   5.392   1.237 -0.4294  0.1988  0.8007
 6297TIP3    H240307   5.509   5.446   1.171  0.0656 -2.4847 -0.6123
 6298TIP3   OH240308   6.207   5.807   3.585  0.4829  0.6511 -0.0602
 6298TIP3    H140309   6.227   5.722   3.547 -0.1831  1.3781 -2.2435
 6298TIP3    H240310   6.128   5.836   3.538 -0.8286  1.3942  2.4141
 6299TIP3   OH240311   2.441   5.548  14.261  0.2130 -0.0932  1.0862
 6299TIP3    H140312   2.346   5.541  14.254  0.3126  0.2002 -1.6045
 6299TIP3    H240313   2.461   5.638  14.233  1.2267  0.4057  3.1723
 6300TIP3   OH240314   4.908   5.378   5.952 -0.5183 -0.1712 -0.8585
 6300TIP3    H140315   4.925   5.471   5.968 -1.5036 -0.2398  0.7601
 6300TIP3    H240316   4.871   5.346   6.034 -1.5719 -1.6624 -1.8723
 6301TIP3   OH240317   4.086   6.384  15.798 -0.6897 -0.2232  1.1562
 6301TIP3    H140318   4.173   6.423  15.804 -1.7578  2.6388 -0.3213
 6301TIP3    H240319   4.094   6.316  15.731  0.5120 -0.4168  1.4808
 6302TIP3   OH240320   6.456   4.263   4.118  0.7270 -0.4345  0.6295
 6302TIP3    H140321   6.507   4.233   4.043 -1.1764  0.2260 -1.0420
 6302TIP3    H240322   6.459   4.358   4.113  0.1589 -0.3838  1.0709
 6303TIP3   OH240323   6.275   0.776  16.155 -0.2329  0.1434  0.2752
 6303TIP3    H140324   6.362   0.763  16.193  0.2419 -0.2740 -0.8821
 6303TIP3    H240325   6.228   0.694  16.172 -0.1001  0.0443  0.1704
 6304TIP3   OH240326   3.918   2.358  14.205  0.2169  0.5037  0.3775
 6304TIP3    H140327   3.940   2.277  14.250 -1.4815 -1.0162 -1.3538
 6304TIP3    H240328   3.939   2.342  14.113 -1.2176  1.5517 -0.1912
 6305TIP3   OH240329   1.282   3.390   1.106  0.0810  0.4401  0.1371
 6305TIP3    H140330   1.279   3.305   1.150  1.1198 -0.9398 -2.2875
 6305TIP3    H240331   1.375   3.407   1.093 -0.1532  0.1427 -2.5519
 6306TIP3   OH240332   1.379   4.047  11.552 -0.1170  0.1522  0.3349
 6306TIP3    H140333   1.421   4.014  11.473  0.2369  0.5154  0.3709
 6306TIP3    H240334   1.450   4.084  11.604 -0.5648  1.4437  0.0675
 6307TIP3   OH240335   4.351   3.883  12.981 -0.2263  0.0794  0.6408
 6307TIP3    H140336   4.406   3.845  13.049  3.1714 -1.9205 -2.8124
 6307TIP3    H240337   4.359   3.822  12.907  0.9530  4.5700 -3.4541
 6308TIP3   OH240338   4.551   1.970   1.753  0.4091  0.2281  0.0799
 6308TIP3    H140339   4.585   1.908   1.687  0.8644 -0.8890  1.3142
 6308TIP3    H240340   4.609   2.046   1.746  1.0635 -0.2776 -0.1419
 6309TIP3   OH240341   4.992   5.772  14.525  0.2190 -0.2498  0.2302
 6309TIP3    H140342   4.954   5.759  14.438 -2.2760  1.3670  0.9646
 6309TIP3    H240343   4.917   5.793  14.581  1.7512 -1.1071  2.7791
 6310TIP3   OH240344   4.132   3.587   5.719 -0.7279  0.6938  0.3940
 6310TIP3    H140345   4.152   3.675   5.687  0.0586  0.0486 -0.9673
 6310TIP3    H240346   4.209   3.535   5.695 -1.4620 -0.5111  0.5757
 6311TIP3   OH240347   4.106   3.164  11.604  0.1952  0.2376 -0.1900
 6311TIP3    H140348   4.118   3.190  11.695 -2.6455  0.7473  0.1150
 6311TIP3    H240349   4.091   3.246  11.557  1.3312 -0.0456 -1.1089
 6312TIP3   OH240350   4.490   4.972   0.704  0.0118  0.2113  0.1572
 6312TIP3    H140351   4.566   4.964   0.761  1.3322  0.5896 -1.4849
 6312TIP3    H240352   4.482   5.066   0.688 -0.2905  0.0957 -0.3724
 6313TIP3   OH240353   2.870   0.141  14.165  0.2237 -0.1051 -0.0082
 6313TIP3    H140354   2.839   0.147  14.075  1.0778 -0.8390 -0.3757
 6313TIP3    H240355   2.965   0.153  14.157  0.3892 -0.9068  0.7037
 6314TIP3   OH240356   2.802   2.037  11.514 -0.7929  0.2249  0.6513
 6314TIP3    H140357   2.755   2.102  11.566 -1.8871  1.1200 -1.3576
 6314TIP3    H240358   2.819   2.080  11.430 -1.2228 -1.9184 -0.6236
 6315TIP3   OH240359   1.201   3.087  16.388  0.3122  0.3854 -0.8916
 6315TIP3    H140360   1.127   3.025  16.388  1.1615 -0.9618  3.4580
 6315TIP3    H240361   1.160   3.173  16.379 -1.7495 -0.3608  0.5951
 6316TIP3   OH240362   1.035   5.742  15.523  0.0874 -0.0713 -0.4786
 6316TIP3    H140363   1.038   5.691  15.442  3.1285  1.7198 -1.6539
 6316TIP3    H240364   1.031   5.676  15.593 -1.7944 -1.6753 -1.9871
 6317TIP3   OH240365   6.231   5.964  11.414 -0.4117 -0.6463  0.5717
 6317TIP3    H140366   6.257   5.873  11.424  3.1043  0.1688  0.0828
 6317TIP3    H240367   6.249   5.985  11.322  3.5864  1.6514  1.6326
 6318TIP3   OH240368   5.950   4.717   0.055 -0.3694 -0.3299 -0.3123
 6318TIP3    H140369   5.990   4.734  -0.031  0.1546  1.0220  0.1764
 6318TIP3    H240370   5.958   4.622   0.066 -2.4877 -0.9205 -2.7398
 6319TIP3   OH240371   3.209   3.950   3.577 -0.7951 -0.0920 -0.0824
 6319TIP3    H140372   3.171   3.989   3.656  0.1019  0.6179  0.0147
 6319TIP3    H240373   3.145   3.970   3.508 -2.0867 -1.6112  0.6259
 6320TIP3   OH240374   2.109   2.150   5.375  0.1463 -0.2245 -0.3317
 6320TIP3    H140375   2.191   2.187   5.408  0.1540  0.6173 -1.2253
 6320TIP3    H240376   2.128   2.057   5.362  0.4443 -0.3750  1.0176
 6321TIP3   OH240377   6.193   2.860  14.842  0.4783 -0.0879 -0.1312
 6321TIP3    H140378   6.281   2.859  14.881 -0.2984 -1.6841  1.7238
 6321TIP3    H240379   6.141   2.912  14.904 -0.0442  0.3069 -0.8895
 6322TIP3   OH240380   2.546   0.197   1.023 -0.3600 -0.4534 -0.2206
 6322TIP3    H140381   2.620   0.258   1.026 -0.1623 -0.7267  1.2369
 6322TIP3    H240382   2.537   0.175   0.930 -0.1840  1.4645 -0.7380
 6323TIP3   OH240383   6.706   6.697  13.063  0.1479 -0.5205 -0.6211
 6323TIP3    H140384   6.728   6.604  13.054 -0.9268 -0.8973  0.3760
 6323TIP3    H240385   6.778   6.743  13.021  1.0452 -1.7918 -0.5259
 6324TIP3   OH240386   4.331   5.996  16.649 -0.0305 -0.1343 -0.1973
 6324TIP3    H140387   4.261   5.954  16.599 -0.5278  0.5612 -0.1053
 6324TIP3    H240388   4.358   6.070  16.594  2.2280 -1.6983 -1.2999
 6325TIP3   OH240389   4.797   5.091  12.522 -0.1128  0.3096 -0.2060
 6325TIP3    H140390   4.834   5.179  12.528 -0.4747  0.5308 -1.1447
 6325TIP3    H240391   4.783   5.065  12.613  0.2360  1.1187  0.0862
 6326TIP3   OH240392   5.430   0.625  15.896  0.0468 -0.1089 -0.3675
 6326TIP3    H140393   5.411   0.553  15.836  1.5614 -0.5350 -0.3882
 6326TIP3    H240394   5.489   0.587  15.961  0.9323  1.0947 -0.4177
 6327TIP3   OH240395   5.793   5.290  15.306 -0.1147 -0.0320 -0.3018
 6327TIP3    H140396   5.847   5.360  15.342  0.7240 -0.3852 -0.8584
 6327TIP3    H240397   5.706   5.305  15.345  0.5136  0.1694  1.0751
 6328TIP3   OH240398   6.281   4.371   1.270  0.0293 -0.2878 -0.2216
 6328TIP3    H140399   6.354   4.343   1.325 -0.0668 -0.1388 -0.0167
 6328TIP3    H240400   6.233   4.290   1.251  1.6796 -0.8145 -2.5043
 6329TIP3   OH240401   4.447   2.597   4.233 -0.7111 -0.0329  0.1572
 6329TIP3    H140402   4.417   2.549   4.310  1.7116 -0.4332  0.9241
 6329TIP3    H240403   4.369   2.604   4.177 -2.7284  0.8180  2.8664
 6330TIP3   OH240404   0.436   0.535  15.745  0.1005  0.4590  0.0383
 6330TIP3    H140405   0.356   0.508  15.700 -0.5541  1.1695  0.7438
 6330TIP3    H240406   0.504   0.477  15.710 -1.0567 -1.4601  0.8100
 6331TIP3   OH240407   1.982   3.864  11.332 -0.2548 -0.0982 -0.3568
 6331TIP3    H140408   1.949   3.862  11.242 -0.1577 -2.0090 -0.3967
 6331TIP3    H240409   2.040   3.788  11.338  0.5677  0.5995  1.0265
 6332TIP3   OH240410   0.835   1.205   5.493 -0.6494 -0.1472  0.0230
 6332TIP3    H140411   0.900   1.221   5.424 -0.0366 -0.9026  0.4178
 6332TIP3    H240412   0.760   1.259   5.467  0.3667  1.2634 -0.0972
 6333TIP3   OH240413   5.550   2.849   0.304 -0.1775  0.0190 -0.1239
 6333TIP3    H140414   5.554   2.841   0.209  1.4330  1.3328 -0.2168
 6333TIP3    H240415   5.495   2.776   0.332 -2.1945  0.6493 -2.1758
 6334TIP3   OH240416   5.842   2.652   3.489  0.4251 -0.1939 -0.1476
 6334TIP3    H140417   5.924   2.701   3.498  0.9352 -0.9294 -0.7188
 6334TIP3    H240418   5.783   2.694   3.551  1.1259  0.5672  0.0293
 6335TIP3   OH240419   0.148   6.012  16.544 -0.4842  0.3685 -0.3919
 6335TIP3    H140420   0.094   5.938  16.572  1.0922 -0.1703  1.3867
 6335TIP3    H240421   0.119   6.085  16.598 -1.3198  0.8305 -1.4200
 6336TIP3   OH240422   4.699   4.879  10.899  0.6745 -0.0688 -0.1527
 6336TIP3    H140423   4.766   4.828  10.853  0.4788 -0.9648  0.5081
 6336TIP3    H240424   4.685   4.956  10.844  2.5751  0.3868 -0.0747
 6337TIP3   OH240425   4.309   6.484  11.819 -0.3600 -0.5125  0.1863
 6337TIP3    H140426   4.222   6.525  11.817  0.0068  0.3403  0.7450
 6337TIP3    H240427   4.368   6.555  11.794  0.1218 -1.2598 -0.8307
 6338TIP3   OH240428   4.374   5.173   4.162 -0.5571 -0.1741  0.2207
 6338TIP3    H140429   4.339   5.195   4.248 -0.6495  1.4804 -0.2147
 6338TIP3    H240430   4.361   5.251   4.109 -0.3731 -1.1075 -1.2779
 6339TIP3   OH240431   1.544   5.839   4.670 -0.2347 -0.3143  0.0570
 6339TIP3    H140432   1.622   5.877   4.630 -1.4662 -0.0860 -2.2471
 6339TIP3    H240433   1.492   5.913   4.699  0.4447 -0.4709  1.8285
 6340TIP3   OH240434   6.453   3.011  11.080  0.4314  0.7606 -0.3114
 6340TIP3    H140435   6.460   3.070  11.005 -0.8983  1.1436 -0.1592
 6340TIP3    H240436   6.373   3.039  11.125 -0.4932 -1.4516 -0.4840
 6341TIP3   OH240437   2.394   4.061   4.864  0.0444 -0.4889 -0.0033
 6341TIP3    H140438   2.429   4.150   4.859  0.8128 -0.7837  0.1058
 6341TIP3    H240439   2.315   4.064   4.809 -1.7661  1.0930  2.4321
 6342TIP3   OH240440   3.573   1.171   0.438  0.3905  0.0639  0.2519
 6342TIP3    H140441   3.649   1.224   0.461  0.6850  0.3211 -1.2068
 6342TIP3    H240442   3.515   1.232   0.391  1.4352 -1.1582 -2.8783
 6343TIP3   OH240443   6.266   4.044  12.762 -0.2274 -0.4089 -0.0017
 6343TIP3    H140444   6.209   3.984  12.811 -1.5663 -0.5068 -1.6045
 6343TIP3    H240445   6.207   4.112  12.729 -0.2343 -2.2879 -4.5996
 6344TIP3   OH240446   2.115   4.317   5.420  0.1745  0.5330 -0.1337
 6344TIP3    H140447   2.127   4.226   5.445 -0.9876  1.1092  3.0408
 6344TIP3    H240448   2.140   4.320   5.327  0.8587 -2.8228 -0.1992
 6345TIP3   OH240449   6.404   6.131   1.326 -0.4185 -0.5555 -0.1115
 6345TIP3    H140450   6.490   6.162   1.296 -0.5500 -0.6694 -0.6091
 6345TIP3    H240451   6.351   6.211   1.330 -0.0302 -0.3317  1.1359
 6346TIP3   OH240452   0.222   0.024  15.302 -0.1321  0.0528 -0.0551
 6346TIP3    H140453   0.301  -0.024  15.327 -0.5574 -0.2706  0.7076
 6346TIP3    H240454   0.185  -0.027  15.229  0.4396  0.2949 -0.5208
 6347TIP3   OH240455   4.531   6.497  15.670 -0.0866 -0.0751 -0.2233
 6347TIP3    H140456   4.450   6.477  15.717 -0.8142 -0.8309 -1.7263
 6347TIP3    H240457   4.579   6.414  15.669  1.1064  0.5591  1.3456
 6348TIP3   OH240458   3.754   0.948   6.391 -0.5251  0.1128 -0.2636
 6348TIP3    H140459   3.765   0.896   6.470 -1.8248  0.8291  0.4088
 6348TIP3    H240460   3.828   0.922   6.335 -0.8535 -2.0752  0.2203
 6349TIP3   OH240461   4.009   3.993  13.156  0.3596 -0.0893 -0.0153
 6349TIP3    H140462   4.044   3.906  13.173  0.7286  0.0469 -0.0711
 6349TIP3    H240463   4.071   4.033  13.095  0.2650  0.2563  0.1090
 6350TIP3   OH240464   0.989   0.554   1.920 -0.4185 -0.6124 -0.1648
 6350TIP3    H140465   0.984   0.484   1.855  1.1965 -0.9933  0.1051
 6350TIP3    H240466   1.072   0.540   1.965 -1.1996  0.0361  1.5577
 6351TIP3   OH240467   1.660   3.640  12.021 -0.2314 -0.2840 -0.5749
 6351TIP3    H140468   1.589   3.701  12.039 -1.8041 -1.8762 -1.0875
 6351TIP3    H240469   1.701   3.624  12.106  0.1947  1.4143 -0.4314
 6352TIP3   OH240470   5.601   6.072  16.793 -0.2894 -0.1567 -0.4055
 6352TIP3    H140471   5.568   5.982  16.796  1.2373 -0.7369  2.8171
 6352TIP3    H240472   5.694   6.064  16.811  0.1935  2.0170 -1.6305
 6353TIP3   OH240473   1.437   2.927   2.948 -0.7175 -0.4110 -0.5288
 6353TIP3    H140474   1.437   3.022   2.962 -1.6203 -0.3725 -0.7410
 6353TIP3    H240475   1.521   2.898   2.982  0.2541  0.6719 -1.8790
 6354TIP3   OH240476   3.264   0.943  10.651  0.8528  0.5744 -0.0236
 6354TIP3    H140477   3.290   1.002  10.581  0.7663 -0.9887 -1.4230
 6354TIP3    H240478   3.171   0.959  10.664  0.4753 -0.2724 -1.4647
 6355TIP3   OH240479   3.021   5.867   2.185 -0.4508 -0.7182 -0.3833
 6355TIP3    H140480   2.956   5.865   2.115  2.0963 -0.7604 -2.9141
 6355TIP3    H240481   3.050   5.958   2.189 -0.9998 -0.5645  1.1627
 6356TIP3   OH240482   2.084   5.884  17.060  0.2507  0.4260  0.6009
 6356TIP3    H140483   2.136   5.964  17.061  0.0785  0.5426  0.3396
 6356TIP3    H240484   2.035   5.886  17.142 -0.6751  1.2075  0.0453
 6357TIP3   OH240485   5.868   3.272   4.270 -0.4947 -0.7339  0.0444
 6357TIP3    H140486   5.799   3.329   4.303 -0.2128 -0.0407 -0.5395
 6357TIP3    H240487   5.880   3.206   4.339 -0.9273 -0.1757  0.6618
 6358TIP3   OH240488   2.341   5.554  16.595  0.3564 -0.2815  0.4355
 6358TIP3    H140489   2.415   5.495  16.608 -0.8225 -1.7409  0.6695
 6358TIP3    H240490   2.335   5.603  16.677  1.6528  0.5934  0.0548
 6359TIP3   OH240491   6.586   3.940  14.030 -0.2196  1.0601 -0.2614
 6359TIP3    H140492   6.652   3.890  13.983 -0.6933  0.1970 -0.0306
 6359TIP3    H240493   6.502   3.906  13.998 -0.5462  1.0403  0.5858
 6360TIP3   OH240494   3.264   0.913   1.581  0.7879  0.2782  0.3075
 6360TIP3    H140495   3.169   0.907   1.573  0.3846  2.2132  2.4941
 6360TIP3    H240496   3.295   0.924   1.492 -0.8943 -1.4757 -0.5628
 6361TIP3   OH240497   1.762   4.000  15.686  0.1084 -0.1817 -0.3063
 6361TIP3    H140498   1.719   3.915  15.695 -0.7013  0.1955 -0.5247
 6361TIP3    H240499   1.695   4.058  15.650  0.6641  0.5410 -0.2199
 6362TIP3   OH240500   6.290   0.830   2.774  0.1607  0.6441 -0.3849
 6362TIP3    H140501   6.289   0.764   2.843  0.5290  1.5622  0.5237
 6362TIP3    H240502   6.378   0.824   2.736 -0.0462  0.1307 -0.7873
 6363TIP3   OH240503   3.756   1.245  14.680 -0.4348  0.1827 -0.0618
 6363TIP3    H140504   3.708   1.326  14.694  0.7441  0.6625  1.3887
 6363TIP3    H240505   3.845   1.272  14.661  0.1778 -0.7448  1.3019
 6364TIP3   OH240506   5.505   3.792   3.989 -0.2217 -0.1356  0.2103
 6364TIP3    H140507   5.452   3.730   4.040 -0.1028 -1.2612 -0.9828
 6364TIP3    H240508   5.558   3.737   3.932 -0.1634  1.0709 -0.9472
 6365TIP3   OH240509   1.544   6.599  11.679  0.5590  0.1769 -0.4261
 6365TIP3    H140510   1.454   6.591  11.648  0.2510  0.8243  0.2668
 6365TIP3    H240511   1.536   6.610  11.774  1.4531 -1.4035 -0.1280
 6366TIP3   OH240512   2.931   4.962   0.445 -0.0965  1.1136  0.4908
 6366TIP3    H140513   2.953   4.995   0.532  1.5747  0.0131  0.5401
 6366TIP3    H240514   3.016   4.953   0.401 -0.5589 -1.6459 -0.0032
 6367TIP3   OH240515   1.959   3.599  11.565  0.7598  0.4353  0.0281
 6367TIP3    H140516   1.930   3.509  11.575  2.6853 -0.2708 -0.3075
 6367TIP3    H240517   1.995   3.603  11.477 -0.2864  1.8618 -0.3758
 6368TIP3   OH240518   4.915   0.172  15.190 -0.5685  0.4357 -0.1871
 6368TIP3    H140519   4.933   0.118  15.268 -1.5364 -0.9493 -0.8938
 6368TIP3    H240520   4.999   0.173  15.143 -0.4833 -0.3490 -0.0820
 6369TIP3   OH240521   4.016   6.250  12.665  0.5541 -0.1066 -0.0737
 6369TIP3    H140522   4.024   6.183  12.733  0.2355 -0.6069 -0.5180
 6369TIP3    H240523   4.106   6.260  12.631  0.4826 -0.8739 -0.5237
 6370TIP3   OH240524   3.937   4.254   1.960 -0.5863  0.6553 -0.5371
 6370TIP3    H140525   3.978   4.210   2.035 -1.2307  0.9979  0.0181
 6370TIP3    H240526   3.965   4.202   1.884  0.5696  0.6542 -0.1390
 6371TIP3   OH240527   2.832   2.422   0.316 -0.3426 -0.1070  0.0391
 6371TIP3    H140528   2.785   2.464   0.244  1.3809  0.0653 -1.0466
 6371TIP3    H240529   2.809   2.329   0.308 -1.6893  0.1657  0.5037
 6372TIP3   OH240530   2.783   2.451   4.719  0.4270 -0.5578  0.2228
 6372TIP3    H140531   2.825   2.378   4.765 -2.8403 -1.6324  1.8212
 6372TIP3    H240532   2.718   2.409   4.662 -1.1779  1.0224  0.7899
 6373TIP3   OH240533   5.378   0.441   3.342  0.0548 -0.1859 -0.0808
 6373TIP3    H140534   5.379   0.522   3.291 -0.1609 -0.4843 -0.5633
 6373TIP3    H240535   5.437   0.382   3.296  1.7361  0.3242  1.3354
 6374TIP3   OH240536   5.341   4.746   5.467 -0.2564  0.3122 -0.2625
 6374TIP3    H140537   5.330   4.705   5.553 -0.1559  0.5784 -0.1222
 6374TIP3    H240538   5.371   4.675   5.410  2.6617  0.7306  0.5798
 6375TIP3   OH240539   1.022   3.929  11.270  0.2744  0.0389 -0.3122
 6375TIP3    H140540   1.065   3.872  11.206  0.7304  0.3567 -0.2931
 6375TIP3    H240541   1.013   3.875  11.348  0.0856 -0.2218 -0.5126
 6376TIP3   OH240542   5.111   0.728   2.892  0.1428  0.1012 -0.6788
 6376TIP3    H140543   5.086   0.638   2.912  1.0490  0.1538  0.8694
 6376TIP3    H240544   5.027   0.773   2.879 -0.4580 -0.4756  0.8791
 6377TIP3   OH240545   0.258   4.412  15.681 -0.1708  0.0284  0.6056
 6377TIP3    H140546   0.244   4.506  15.689  2.2270  0.5035 -0.0355
 6377TIP3    H240547   0.284   4.384  15.769  1.3402  0.4485  0.3287
 6378TIP3   OH240548   2.668   4.980  16.222 -0.4328 -0.3318  0.3991
 6378TIP3    H140549   2.635   5.066  16.196  1.1738 -0.0916 -1.0156
 6378TIP3    H240550   2.624   4.919  16.163  0.7547 -0.1248 -0.7394
 6379TIP3   OH240551   1.657   0.343  13.286 -0.1107  0.5562 -0.1042
 6379TIP3    H140552   1.661   0.356  13.381  1.5568 -0.5538  0.0348
 6379TIP3    H240553   1.744   0.368  13.255  0.1448 -1.2491 -0.9961
 6380TIP3   OH240554   6.725   3.953  16.968  0.3101  0.7725 -0.4025
 6380TIP3    H140555   6.730   3.859  16.988  0.0934  0.9545  0.5958
 6380TIP3    H240556   6.815   3.979  16.951  0.2744  0.2261 -1.5080
 6381TIP3   OH240557   3.709   2.044  16.630 -0.1297  0.0267 -0.3897
 6381TIP3    H140558   3.794   2.067  16.667 -0.4022 -1.1012  1.0352
 6381TIP3    H240559   3.728   1.982  16.561  0.2208 -0.0212 -0.2491
 6382TIP3   OH240560   4.957   4.299  13.874 -0.0854  0.0728 -0.3713
 6382TIP3    H140561   4.976   4.368  13.938 -1.2288  0.5277 -0.5114
 6382TIP3    H240562   4.962   4.343  13.789 -1.4023  0.1496 -0.4326
 6383TIP3   OH240563   1.550   3.264  16.713 -0.3613 -0.0123  0.6470
 6383TIP3    H140564   1.476   3.318  16.742 -0.4436  0.1000  0.2384
 6383TIP3    H240565   1.509   3.194  16.663 -0.0905  1.2428 -1.4723
 6384TIP3   OH240566   5.386   1.771  15.364 -0.2188  0.1859  0.4401
 6384TIP3    H140567   5.296   1.756  15.333  0.3669 -0.4543 -1.0374
 6384TIP3    H240568   5.414   1.851  15.321  0.3640 -0.3310 -0.1668
 6385TIP3   OH240569   3.462   5.391  11.943  0.2973  0.3933 -0.7239
 6385TIP3    H140570   3.508   5.457  11.891 -0.7764  1.3353 -0.5172
 6385TIP3    H240571   3.370   5.414  11.935  0.0474  0.1410  1.0062
 6386TIP3   OH240572   6.227   3.301   2.120 -0.5680 -0.4364  0.4926
 6386TIP3    H140573   6.222   3.224   2.063 -2.0555 -0.5109  0.6659
 6386TIP3    H240574   6.305   3.287   2.173 -0.3830 -1.4445 -0.0232
 6387TIP3   OH240575   4.095   1.075  11.467 -0.2754 -0.2852  0.3569
 6387TIP3    H140576   4.054   1.031  11.392 -1.0336 -2.2062  1.8343
 6387TIP3    H240577   4.063   1.165  11.461 -1.6259 -0.7868 -0.7160
 6388TIP3   OH240578   4.478   0.400  12.399  0.0231  0.3865 -0.7105
 6388TIP3    H140579   4.565   0.370  12.373  0.3157  0.3094  0.3116
 6388TIP3    H240580   4.452   0.460  12.330  2.1081  2.6646  0.3432
 6389TIP3   OH240581   6.161   4.169   4.102 -0.3393 -0.1852 -0.2976
 6389TIP3    H140582   6.167   4.243   4.163  0.9375 -0.1778 -0.4198
 6389TIP3    H240583   6.249   4.160   4.066 -1.3569  0.7365 -3.2844
 6390TIP3   OH240584   6.517   0.238   6.495 -0.0240 -0.0066 -0.0544
 6390TIP3    H140585   6.431   0.209   6.467  0.0401  0.3895 -0.7004
 6390TIP3    H240586   6.578   0.189   6.440  0.0726  1.5427 -1.4087
 6391TIP3   OH240587   4.524   5.653  13.938 -0.3254  0.4855  0.3605
 6391TIP3    H140588   4.498   5.603  14.015 -0.8187  0.8040  0.4064
 6391TIP3    H240589   4.617   5.671  13.951  0.2112 -1.5080 -0.2548
 6392TIP3   OH240590   3.070   0.733  11.471 -0.5400 -0.1183 -0.0114
 6392TIP3    H140591   3.086   0.826  11.457 -0.6641 -0.2192 -0.8909
 6392TIP3    H240592   3.157   0.697  11.491 -0.5566  0.2470  0.7535
 6393TIP3   OH240593   6.531   6.039  13.200  0.0956  0.2522 -0.1330
 6393TIP3    H140594   6.527   6.042  13.104 -0.2721  0.6337 -0.1078
 6393TIP3    H240595   6.608   6.090  13.222  0.4819 -0.2748 -0.2489
 6394TIP3   OH240596   1.198   1.734   3.718 -0.2146  0.2361 -0.1302
 6394TIP3    H140597   1.187   1.718   3.812  1.9812  0.0761  0.1502
 6394TIP3    H240598   1.114   1.771   3.690 -0.6355  1.1193  2.0810
 6395TIP3   OH240599   1.019   2.130  11.103 -0.0556  0.6130  0.2849
 6395TIP3    H140600   0.977   2.208  11.064  0.8821  0.1433 -1.8051
 6395TIP3    H240601   1.074   2.095  11.033  0.4042 -1.3242  1.5396
 6396TIP3   OH240602   2.097   1.846  14.446  0.6309  0.7655 -0.1786
 6396TIP3    H140603   2.089   1.765  14.497  2.4371  0.4483 -0.3355
 6396TIP3    H240604   2.048   1.829  14.366 -0.9555  0.7109  0.7676
 6397TIP3   OH240605   4.999   4.390  16.113  0.1487 -0.2616 -0.4623
 6397TIP3    H140606   4.920   4.444  16.109 -0.1407 -0.7388 -1.7668
 6397TIP3    H240607   4.976   4.320  16.174  0.2635  0.6427  0.6564
 6398TIP3   OH240608   5.084   3.519  13.897 -0.8492 -0.4123  0.2185
 6398TIP3    H140609   5.042   3.479  13.973 -0.5485  0.4186  0.8321
 6398TIP3    H240610   5.138   3.588  13.933  1.1010 -1.4650 -0.5434
 6399TIP3   OH240611   6.759   2.346  12.192  0.1632 -0.0153 -0.9707
 6399TIP3    H140612   6.730   2.266  12.235 -1.2027 -0.1851 -2.1017
 6399TIP3    H240613   6.686   2.407  12.205  1.3659  1.2195  0.2482
 6400TIP3   OH240614   3.395   4.242  16.228 -0.2547  0.1346 -0.1234
 6400TIP3    H140615   3.413   4.328  16.265  3.4314 -1.1086  1.4876
 6400TIP3    H240616   3.422   4.248  16.137  1.0863  0.4309  0.2747
 6401TIP3   OH240617   2.489   0.289   5.165  0.1393  0.2168 -0.6474
 6401TIP3    H140618   2.446   0.209   5.133  1.3448 -0.4314 -0.7047
 6401TIP3    H240619   2.542   0.318   5.091 -1.3326  1.8709 -1.1059
 6402TIP3   OH240620   4.362   4.882  16.100  0.6590  0.4592 -0.3472
 6402TIP3    H140621   4.302   4.807  16.093  1.1916 -0.1914  1.4817
 6402TIP3    H240622   4.379   4.907  16.009 -0.5316 -0.8248 -0.9686
 6403TIP3   OH240623   1.226   4.744  16.734 -0.8015  0.2848 -0.2508
 6403TIP3    H140624   1.132   4.733  16.753 -1.0559 -0.1147 -1.6534
 6403TIP3    H240625   1.264   4.658  16.747 -1.1545 -0.2475 -2.3240
 6404TIP3   OH240626   0.794   0.998   0.080 -0.5656 -0.2655  1.0958
 6404TIP3    H140627   0.788   0.936   0.008 -0.6928 -0.7530  1.5201
 6404TIP3    H240628   0.706   1.035   0.088  0.1282  2.1105 -0.9980
 6405TIP3   OH240629   6.448   1.370   5.582 -0.0615  0.3413  0.7472
 6405TIP3    H140630   6.446   1.382   5.487  0.4175 -0.8462  0.5687
 6405TIP3    H240631   6.410   1.284   5.596 -2.4777  1.4862  1.8657
 6406TIP3   OH240632   0.024   1.900  12.564 -0.2343  0.3350  0.2556
 6406TIP3    H140633  -0.065   1.935  12.569 -0.5765  0.0519 -2.3445
 6406TIP3    H240634   0.014   1.818  12.516  1.3718  0.0072  0.4364
 6407TIP3   OH240635   4.385   2.153   3.218 -0.4335  0.2802  0.2344
 6407TIP3    H140636   4.325   2.151   3.292  1.0508 -0.3263  1.4641
 6407TIP3    H240637   4.471   2.141   3.256  0.3590 -0.2962 -1.6186
 6408TIP3   OH240638   6.512   4.241   1.444 -0.6122 -0.2888  0.5503
 6408TIP3    H140639   6.593   4.196   1.465 -0.5378 -0.0045  0.8813
 6408TIP3    H240640   6.504   4.234   1.348 -0.0859 -0.1212  0.4916
 6409TIP3   OH240641   3.336   3.829   2.990  0.1360 -0.2835  0.1682
 6409TIP3    H140642   3.418   3.835   2.941  1.4784  3.0847  2.3946
 6409TIP3    H240643   3.351   3.760   3.054  0.9409 -0.2345  0.0413
 6410TIP3   OH240644   4.090   3.262   4.925  0.0927  0.1808  0.2955
 6410TIP3    H140645   4.017   3.215   4.885  0.7508 -1.2975  0.7776
 6410TIP3    H240646   4.129   3.199   4.986  1.5553  1.0574  0.3087
 6411TIP3   OH240647   6.582   3.454   2.203 -0.1016 -0.2880 -0.9996
 6411TIP3    H140648   6.585   3.549   2.197 -1.0088 -0.0316  1.3844
 6411TIP3    H240649   6.662   3.424   2.160  1.8533  1.7792  0.9230
 6412TIP3   OH240650   2.928   6.199   3.902 -0.0594  0.0647 -0.3969
 6412TIP3    H140651   2.893   6.287   3.891  2.0134  1.6270  3.5019
 6412TIP3    H240652   3.005   6.195   3.845  0.1883  1.0482 -0.1411
 6413TIP3   OH240653   2.399   1.824   4.701  0.0009 -0.1049 -0.3206
 6413TIP3    H140654   2.453   1.754   4.738  1.3372  0.8281 -0.4116
 6413TIP3    H240655   2.334   1.842   4.769  0.0388 -0.9903 -0.0329
 6414TIP3   OH240656   4.403   2.554  12.562 -0.3898  0.4279 -0.3876
 6414TIP3    H140657   4.359   2.627  12.606 -1.3777 -0.5110  0.2639
 6414TIP3    H240658   4.438   2.501  12.634  1.6937  1.0348 -0.8863
 6415TIP3   OH240659   4.761   3.482  16.226  0.0980 -0.1914 -0.0745
 6415TIP3    H140660   4.740   3.570  16.196 -0.9396  0.2417  1.7741
 6415TIP3    H240661   4.815   3.495  16.304 -1.2765 -1.1344  1.0737
 6416TIP3   OH240662   6.006   5.715   4.298  0.6435 -0.0971  0.4950
 6416TIP3    H140663   5.919   5.750   4.317  0.3684 -0.1466 -0.6130
 6416TIP3    H240664   6.023   5.653   4.369  0.6453  1.4029  1.8573
 6417TIP3   OH240665   4.295   1.009   1.320 -0.4757  0.4372 -0.0075
 6417TIP3    H140666   4.317   1.032   1.230 -0.7051 -1.0515 -0.4769
 6417TIP3    H240667   4.378   0.987   1.361 -0.2208  2.2059  0.5207
 6418TIP3   OH240668   5.053   5.121  15.214  0.0744 -0.3867  1.0036
 6418TIP3    H140669   5.027   5.164  15.295  1.3210 -0.1569  1.3083
 6418TIP3    H240670   5.141   5.154  15.197  0.0336 -0.8475 -0.1567
 6419TIP3   OH240671   3.786   6.548  11.851 -0.1576  0.0518 -0.1523
 6419TIP3    H140672   3.782   6.540  11.946 -1.0032 -1.1115 -0.2586
 6419TIP3    H240673   3.695   6.556  11.824 -0.0177 -0.7845 -0.9324
 6420TIP3   OH240674   4.115   6.503   2.692  0.5541 -1.0030 -0.1507
 6420TIP3    H140675   4.144   6.413   2.674 -0.7671 -1.1096 -2.1142
 6420TIP3    H240676   4.024   6.494   2.719  0.7635 -0.3270  0.7984
 6421TIP3   OH240677   1.936   5.007   3.595  0.1716  0.2979  0.7617
 6421TIP3    H140678   2.022   5.032   3.563  0.0992  3.5080  2.7128
 6421TIP3    H240679   1.949   4.990   3.689 -1.0890 -0.6402  0.7976
 6422TIP3   OH240680   1.143   6.155  14.707  0.4379 -0.0412 -0.1631
 6422TIP3    H140681   1.171   6.194  14.789  0.1899 -0.5080  0.1515
 6422TIP3    H240682   1.047   6.160  14.710  0.3904 -0.8157 -0.0325
 6423TIP3   OH240683   3.243   2.314  15.256  0.3125 -0.2382 -0.1040
 6423TIP3    H140684   3.171   2.374  15.278  0.4651  0.0651 -0.4327
 6423TIP3    H240685   3.258   2.327  15.163 -0.1731 -1.3602 -0.3563
 6424TIP3   OH240686   2.983   6.433  14.396 -0.1369  0.1964 -0.0070
 6424TIP3    H140687   2.950   6.399  14.313  2.1331  1.1164 -1.3791
 6424TIP3    H240688   2.972   6.527  14.391  0.0036  0.2668  0.7526
 6425TIP3   OH240689   1.447   2.411   1.250 -0.3032 -0.1422  0.1868
 6425TIP3    H140690   1.355   2.396   1.226 -0.1699 -0.0359 -0.3984
 6425TIP3    H240691   1.446   2.496   1.296 -0.1410  1.1673 -2.0862
 6426TIP3   OH240692   2.664   4.498  15.058  0.0811  0.0620 -0.7917
 6426TIP3    H140693   2.659   4.533  15.147  0.7956 -2.5578  0.3446
 6426TIP3    H240694   2.757   4.489  15.041 -0.0766 -1.5718 -0.8914
 6427TIP3   OH240695   1.772   2.625  11.096 -0.6804 -0.0003  0.2341
 6427TIP3    H140696   1.845   2.668  11.142 -0.1438  0.9253 -1.4084
 6427TIP3    H240697   1.800   2.534  11.086  0.9903  0.6395 -1.6720
 6428TIP3   OH240698   4.494   5.280  14.427 -0.1954 -0.0522  0.2830
 6428TIP3    H140699   4.456   5.350  14.374 -0.6387  0.8337  1.6989
 6428TIP3    H240700   4.588   5.289  14.413 -0.2846  0.3916 -0.0860
 6429TIP3   OH240701   6.592   6.224   0.200 -0.1281 -0.3216 -0.1126
 6429TIP3    H140702   6.667   6.164   0.198  1.5446  1.6527 -1.7518
 6429TIP3    H240703   6.565   6.227   0.291  2.1236 -0.7717  0.6258
 6430TIP3   OH240704   3.351   3.509  16.494  0.0322 -0.2808 -0.0873
 6430TIP3    H140705   3.349   3.449  16.568  0.9486 -2.3112 -1.6009
 6430TIP3    H240706   3.269   3.494  16.448 -0.0061  0.0856 -0.1466
 6431TIP3   OH240707   3.405   3.760   4.432 -0.3914 -0.0050 -0.6552
 6431TIP3    H140708   3.452   3.731   4.510 -0.7709 -0.3095 -0.5346
 6431TIP3    H240709   3.330   3.700   4.425  0.1683 -0.6108 -1.8036
 6432TIP3   OH240710   5.350   4.068   5.010  0.4011 -0.1632  0.2462
 6432TIP3    H140711   5.301   4.147   5.035 -1.5263 -0.9800 -0.7409
 6432TIP3    H240712   5.298   4.029   4.940  1.7526 -1.8731  0.1436
 6433TIP3   OH240713   3.225   6.700  15.367  0.3843 -0.1720  0.0588
 6433TIP3    H140714   3.146   6.738  15.405  0.2590 -0.0297 -0.3317
 6433TIP3    H240715   3.284   6.685  15.441  0.7050  1.3926  0.1594
 6434TIP3   OH240716   0.093   0.965  11.828  0.3192 -0.2368 -0.4350
 6434TIP3    H140717   0.129   0.894  11.881 -1.7769  1.4216  3.5969
 6434TIP3    H240718   0.126   1.045  11.869  0.7034  1.2935 -3.3922
 6435TIP3   OH240719   3.191   5.514  11.975  0.7600  0.1800  0.4441
 6435TIP3    H140720   3.153   5.576  11.913  0.0496 -0.6338  0.0499
 6435TIP3    H240721   3.151   5.537  12.059  1.2316  0.8652  0.4879
 6436TIP3   OH240722   3.527   5.181   1.812  0.0392  0.0416  0.1422
 6436TIP3    H140723   3.513   5.204   1.904  1.0692  0.5251  0.1962
 6436TIP3    H240724   3.622   5.179   1.803 -0.0565 -0.8057 -0.7255
 6437TIP3   OH240725   3.696   5.668  15.998  0.0093 -0.5882 -0.5479
 6437TIP3    H140726   3.636   5.599  16.025  0.0702 -1.0831 -1.6326
 6437TIP3    H240727   3.685   5.736  16.064 -1.0260 -1.0759 -0.1951
 6438TIP3   OH240728   3.694   4.121   2.353 -0.0593  0.7800 -0.2079
 6438TIP3    H140729   3.690   4.026   2.346 -1.1996  0.6760  1.4431
 6438TIP3    H240730   3.732   4.137   2.440 -0.3136  1.8193 -0.2744
 6439TIP3   OH240731   5.241   2.460   4.424  0.2424 -0.3455  0.4051
 6439TIP3    H140732   5.250   2.502   4.339  0.0157  2.6567  1.7230
 6439TIP3    H240733   5.327   2.468   4.464 -0.0921 -0.1222  1.1000
 6440TIP3   OH240734   6.791   6.180  13.177  0.4237  0.4771 -0.5384
 6440TIP3    H140735   6.880   6.145  13.191 -0.4793 -1.8724 -0.2361
 6440TIP3    H240736   6.781   6.182  13.082  0.6942  0.4844 -0.5694
 6441TIP3   OH240737   5.090   0.378   1.628  0.2918 -0.5615  0.3839
 6441TIP3    H140738   5.073   0.302   1.685 -1.8728 -1.3405 -1.1405
 6441TIP3    H240739   5.098   0.340   1.540  1.8936  0.7695 -0.0921
 6442TIP3   OH240740   4.443   2.168   3.654  0.2776 -0.2925  0.4924
 6442TIP3    H140741   4.486   2.116   3.586  1.3650 -0.4134  1.2392
 6442TIP3    H240742   4.379   2.221   3.607  0.5914 -0.8120 -0.5478
 6443TIP3   OH240743   1.911   1.543   0.394 -0.9799 -0.4203 -0.4370
 6443TIP3    H140744   1.893   1.496   0.476  1.1369  0.4916  0.6403
 6443TIP3    H240745   1.833   1.597   0.380 -0.2811  1.7080  2.7429
 6444TIP3   OH240746   3.216   6.750   5.535 -0.2274  0.3899  0.1253
 6444TIP3    H140747   3.204   6.779   5.444  2.0982  2.1417  0.2817
 6444TIP3    H240748   3.224   6.655   5.529 -2.6085  0.1744 -1.1328
 6445TIP3   OH240749   2.745   1.035  14.287  0.1253  0.3427  0.0096
 6445TIP3    H140750   2.769   1.031  14.194 -0.3691 -2.2023 -0.0906
 6445TIP3    H240751   2.806   0.974  14.330 -1.0121 -0.1131  1.0224
 6446TIP3   OH240752   2.429   2.532   5.738  0.4280 -0.5907  0.7614
 6446TIP3    H140753   2.417   2.498   5.827  1.6763 -1.4563  0.6255
 6446TIP3    H240754   2.428   2.627   5.749  1.8427 -0.6778  1.9098
 6447TIP3   OH240755   0.802   6.489   5.106 -0.3201  0.2960 -0.3257
 6447TIP3    H140756   0.712   6.517   5.090  0.1039  0.7629 -2.0912
 6447TIP3    H240757   0.856   6.557   5.066  0.7808 -0.8504 -0.8544
 6448TIP3   OH240758   4.450   2.077   5.832 -0.4755  0.4201 -0.5935
 6448TIP3    H140759   4.500   1.995   5.831  1.1949  1.3343  0.7470
 6448TIP3    H240760   4.435   2.097   5.740  1.1442 -0.2310 -1.0426
 6449TIP3   OH240761   3.441   1.603  12.858  0.5416 -0.4810 -0.0819
 6449TIP3    H140762   3.415   1.657  12.932  0.6068  0.1512 -0.5062
 6449TIP3    H240763   3.494   1.662  12.803  0.2491 -0.8439 -0.7667
 6450TIP3   OH240764   5.928   3.464   0.692 -0.0630 -0.0929 -0.1918
 6450TIP3    H140765   5.897   3.515   0.617 -2.8699 -1.3439 -0.0314
 6450TIP3    H240766   6.002   3.415   0.659  2.0451  3.0773 -0.6609
 6451TIP3   OH240767   5.666   2.789   3.227 -0.3341 -0.0072  0.2613
 6451TIP3    H140768   5.620   2.794   3.310 -0.6124  0.3376  0.0900
 6451TIP3    H240769   5.603   2.821   3.162  0.5229  1.5838  0.1745
 6452TIP3   OH240770   1.896   3.279  12.294 -0.4626  0.5441 -0.0335
 6452TIP3    H140771   1.846   3.356  12.267 -1.4621 -0.7948 -2.2833
 6452TIP3    H240772   1.962   3.268  12.225  2.2489  1.5492  2.2444
 6453TIP3   OH240773   0.673   5.539   2.844  0.6204  0.3693  0.0538
 6453TIP3    H140774   0.699   5.516   2.755 -0.0102 -0.8444  0.1511
 6453TIP3    H240775   0.592   5.489   2.858 -0.7622  2.5967  0.3878
 6454TIP3   OH240776   5.006   0.829  16.714 -0.1767 -0.3810 -0.1770
 6454TIP3    H140777   5.006   0.921  16.742 -0.9255 -0.5182  0.2863
 6454TIP3    H240778   5.096   0.813  16.686 -0.2759  0.7913 -1.2526
 6455TIP3   OH240779   6.436   2.751  17.099  0.1837  0.1593 -0.1124
 6455TIP3    H140780   6.352   2.745  17.054  0.0183  0.5449  0.1463
 6455TIP3    H240781   6.447   2.844  17.118  0.0171 -0.0494  1.0800
 6456TIP3   OH240782   4.249   5.872   1.176  0.2950  0.2020  0.2390
 6456TIP3    H140783   4.220   5.962   1.190 -1.4462 -0.0592 -1.2648
 6456TIP3    H240784   4.168   5.821   1.176  0.8782 -0.8624 -2.1797
 6457TIP3   OH240785   4.641   1.769   1.092 -0.2502  0.0743 -0.7368
 6457TIP3    H140786   4.568   1.781   1.032 -2.1325  0.2683  1.4839
 6457TIP3    H240787   4.691   1.851   1.085 -1.2036  0.6499 -1.0359
 6458TIP3   OH240788   6.137   4.773   5.420  0.7584  0.2971  0.0869
 6458TIP3    H140789   6.078   4.791   5.347  0.9974  0.3903 -0.0874
 6458TIP3    H240790   6.225   4.779   5.381  0.9409  1.5780  0.6488
 6459TIP3   OH240791   4.144   5.855   4.971  0.1680  0.2115  0.2817
 6459TIP3    H140792   4.085   5.781   4.985 -1.5000  1.5965  0.8635
 6459TIP3    H240793   4.102   5.906   4.902  0.7741  1.1499  0.5901
 6460TIP3   OH240794   3.289   2.740   0.677 -0.9858  0.0701  0.1850
 6460TIP3    H140795   3.298   2.818   0.622 -1.7493  1.1711  1.5427
 6460TIP3    H240796   3.268   2.669   0.616 -0.0592  0.8743 -1.1018
 6461TIP3   OH240797   1.740   6.694  10.813 -0.0515  0.3819 -0.2982
 6461TIP3    H140798   1.770   6.649  10.891 -1.9395  0.2306  0.3909
 6461TIP3    H240799   1.760   6.786  10.830  1.4445  0.1308 -0.5790
 6462TIP3   OH240800   2.864   2.183   0.893  0.5227  0.8461 -0.2732
 6462TIP3    H140801   2.837   2.177   0.985 -0.6128  0.5330 -0.6121
 6462TIP3    H240802   2.878   2.276   0.878  0.0594  0.9697  0.0385
 6463TIP3   OH240803   6.663   4.854   4.481  0.0412 -0.2453  0.4641
 6463TIP3    H140804   6.605   4.805   4.423 -0.4742  0.4547  0.3749
 6463TIP3    H240805   6.605   4.915   4.527  0.5213 -0.4294  1.3246
 6464TIP3   OH240806   4.789   6.554  13.756  0.5347  0.1305 -0.0293
 6464TIP3    H140807   4.736   6.549  13.836  0.6223 -0.9748 -0.0222
 6464TIP3    H240808   4.873   6.516  13.781  1.2769  1.6964 -0.1010
 6465TIP3   OH240809   0.378   1.776  14.248 -0.3121  0.0184  0.7376
 6465TIP3    H140810   0.311   1.714  14.277 -0.6586 -1.1045 -2.1069
 6465TIP3    H240811   0.336   1.862  14.254 -1.7212 -0.5751 -0.1199
 6466TIP3   OH240812   2.619   6.476  14.940 -0.5178 -0.4585 -0.0967
 6466TIP3    H140813   2.580   6.557  14.973  1.0112  0.9441 -1.5105
 6466TIP3    H240814   2.700   6.466  14.991 -0.8175 -1.2628  0.2430
 6467TIP3   OH240815   6.331   5.570   3.239  0.4903  0.0100 -0.2862
 6467TIP3    H140816   6.286   5.575   3.155 -1.0614  0.1901  0.5299
 6467TIP3    H240817   6.362   5.660   3.256 -0.9552  0.4298  0.2508
 6468TIP3   OH240818   2.993   1.503  12.761  0.0334  0.4142  0.3342
 6468TIP3    H140819   2.955   1.419  12.786 -1.2068  0.2908 -1.6895
 6468TIP3    H240820   3.050   1.482  12.687 -0.1230  1.3138 -0.0495
 6469TIP3   OH240821   2.404   3.992  11.278  0.3224 -0.4663 -0.0541
 6469TIP3    H140822   2.455   3.913  11.258  0.9438  0.3273 -1.8941
 6469TIP3    H240823   2.394   4.035  11.193 -3.3171 -0.4819  0.2386
 6470TIP3   OH240824   3.021   2.608   0.313  0.0574  0.1132 -0.7103
 6470TIP3    H140825   2.991   2.681   0.259  1.8322  0.1410 -1.7363
 6470TIP3    H240826   2.946   2.548   0.316 -0.7100  0.9929 -1.6275
 6471TIP3   OH240827   2.360   5.336  14.066  0.2297 -0.4441 -0.0055
 6471TIP3    H140828   2.385   5.397  14.135  1.6108 -1.3620  0.3616
 6471TIP3    H240829   2.434   5.338  14.005 -0.1264 -1.0335 -0.4675
 6472TIP3   OH240830   0.368   5.982   0.356 -0.4187  0.2466  0.0695
 6472TIP3    H140831   0.462   6.001   0.346  0.0345 -2.1976 -1.2602
 6472TIP3    H240832   0.361   5.936   0.439  0.2056 -2.5417 -1.3170
 6473TIP3   OH240833   0.879   0.236  13.543  0.1867 -0.0398  0.0226
 6473TIP3    H140834   0.841   0.272  13.464  0.1907 -0.3092 -0.1033
 6473TIP3    H240835   0.971   0.220  13.521  0.9522  2.5713  0.9613
 6474TIP3   OH240836   3.364   5.465   5.996  0.2538  0.3011 -0.1763
 6474TIP3    H140837   3.344   5.423   6.080  2.1449 -1.6696 -0.6352
 6474TIP3    H240838   3.431   5.531   6.018  1.8125 -1.1795 -0.2532
 6475TIP3   OH240839   5.205   2.098   4.594  0.4303  0.6681 -0.4698
 6475TIP3    H140840   5.140   2.054   4.539 -1.7168  0.8347  1.7560
 6475TIP3    H240841   5.153   2.153   4.653  2.6653  1.3564  0.9787
 6476TIP3   OH240842   2.395   6.044   2.785  0.1575 -0.2075 -0.0645
 6476TIP3    H140843   2.410   6.006   2.698  1.9923  1.3239 -0.4916
 6476TIP3    H240844   2.316   6.097   2.774  0.1488 -0.3331 -0.6894
 6477TIP3   OH240845   2.532   5.499  13.194 -0.2522  0.4052  0.1130
 6477TIP3    H140846   2.474   5.572  13.173 -0.2821  0.1226 -0.8674
 6477TIP3    H240847   2.592   5.495  13.119 -0.4636 -0.7746 -0.0055
 6478TIP3   OH240848   4.023   0.525  16.377 -0.1516  0.1794  0.8321
 6478TIP3    H140849   4.018   0.608  16.426 -0.2139  1.7774 -1.6791
 6478TIP3    H240850   3.960   0.536  16.306  0.0779 -1.9357  0.2503
 6479TIP3   OH240851   6.708   3.764  10.614  0.3894  0.1857 -0.3597
 6479TIP3    H140852   6.694   3.832  10.681 -2.1498 -0.3004 -0.3079
 6479TIP3    H240853   6.785   3.795  10.565  0.9738  1.6874  1.3572
 6480TIP3   OH240854   5.524   3.295  11.888 -0.8787  0.8897  0.2897
 6480TIP3    H140855   5.465   3.340  11.949  0.5521  2.7522  0.3983
 6480TIP3    H240856   5.471   3.280  11.810 -2.3810 -0.4059  1.4865
 6481TIP3   OH240857   3.564   2.443   1.484  0.3182 -0.1853  0.1006
 6481TIP3    H140858   3.617   2.485   1.417 -1.9254 -0.2732 -1.8781
 6481TIP3    H240859   3.522   2.369   1.439 -1.5995 -0.0109  1.4384
 6482TIP3   OH240860   4.692   6.613   5.575  0.2558 -0.8265 -0.2149
 6482TIP3    H140861   4.661   6.699   5.604  0.6379 -1.3027  1.7651
 6482TIP3    H240862   4.775   6.601   5.620  0.7974 -1.7627 -1.4017
 6483TIP3   OH240863   0.578   5.747   5.025 -0.0991 -0.3486  0.0356
 6483TIP3    H140864   0.565   5.659   5.060  1.2874  0.0284  1.6158
 6483TIP3    H240865   0.490   5.779   5.005 -0.6638 -1.8138  0.1129
 6484TIP3   OH240866   6.593   6.082  12.043  0.0701  0.2656 -0.0409
 6484TIP3    H140867   6.563   6.172  12.031 -2.2428 -0.5775 -1.2439
 6484TIP3    H240868   6.640   6.061  11.962 -1.6573 -0.3549 -0.9502
 6485TIP3   OH240869   1.438   4.027   1.255  0.2967  0.1601  0.6263
 6485TIP3    H140870   1.519   4.009   1.301  1.4444  0.4102 -1.1829
 6485TIP3    H240871   1.411   4.113   1.286 -0.4957 -0.7935  2.8161
 6486TIP3   OH240872   2.177   5.284   3.901  0.3018 -0.4348  0.2029
 6486TIP3    H140873   2.269   5.282   3.873  0.3226 -0.2415  0.2535
 6486TIP3    H240874   2.158   5.377   3.911 -0.2503 -0.3903 -0.9965
 6487TIP3   OH240875   3.367   0.969   5.086  0.4558  0.3372 -0.4936
 6487TIP3    H140876   3.349   0.897   5.027  1.0663  0.3248 -0.6712
 6487TIP3    H240877   3.390   0.927   5.169  4.0779  0.1474 -1.4434
 6488TIP3   OH240878   4.049   6.054   1.213 -0.3417 -0.4437  1.0595
 6488TIP3    H140879   4.016   5.991   1.277 -2.0364  1.0011  1.6886
 6488TIP3    H240880   3.979   6.061   1.149  0.7327 -0.7591 -0.1941
 6489TIP3   OH240881   2.298   2.043   6.229  0.9499 -0.6224  0.5212
 6489TIP3    H140882   2.288   2.123   6.281  3.6268 -0.7001  1.3269
 6489TIP3    H240883   2.209   2.019   6.205 -0.0045  2.2513  0.7475
 6490TIP3   OH240884   0.876   2.100   4.570  0.2772 -0.4481  0.4211
 6490TIP3    H140885   0.855   2.134   4.657 -1.9069 -0.3922 -0.0569
 6490TIP3    H240886   0.932   2.167   4.531 -0.4007  0.5292  1.0624
 6491TIP3   OH240887   0.927   1.253   0.380  0.2387  0.6440  0.4927
 6491TIP3    H140888   0.994   1.260   0.448 -1.0480  1.2133  1.7646
 6491TIP3    H240889   0.871   1.181   0.409 -0.0799  0.6120 -0.1935
 6492TIP3   OH240890   3.404   3.878  13.013 -0.1835 -0.0878  0.1590
 6492TIP3    H140891   3.440   3.834  13.090 -1.7935 -1.3860  0.2196
 6492TIP3    H240892   3.360   3.809  12.964  0.6312  0.7407 -1.8586
 6493TIP3   OH240893   1.361   3.076   1.956  0.2879  0.3660 -0.8471
 6493TIP3    H140894   1.312   3.044   1.881  1.1314 -3.0334 -0.1261
 6493TIP3    H240895   1.434   3.126   1.918 -0.3369  0.3273 -2.1487
 6494TIP3   OH240896   3.067   6.278   0.572 -0.3050  0.4288 -0.0966
 6494TIP3    H140897   3.139   6.341   0.569  0.5973 -0.6065 -0.7327
 6494TIP3    H240898   3.001   6.321   0.625  0.6791  1.5119  0.3037
 6495TIP3   OH240899   5.936   4.242   5.411 -0.2664 -0.0172 -0.1035
 6495TIP3    H140900   5.998   4.307   5.379 -0.7104  0.5254  0.1331
 6495TIP3    H240901   5.946   4.244   5.506  0.2425 -0.8209 -0.1337
 6496TIP3   OH240902   2.963   0.935   0.053 -0.2073 -0.1383  0.3017
 6496TIP3    H140903   2.933   1.008  -0.002  1.3360  0.0800 -0.2935
 6496TIP3    H240904   2.901   0.864   0.035 -0.9330  0.5875 -0.1371
 6497TIP3   OH240905   6.537   2.147  16.515  0.0368 -0.0621  0.0058
 6497TIP3    H140906   6.632   2.141  16.503  0.2842  0.0802  1.6005
 6497TIP3    H240907   6.509   2.056  16.528 -0.0885 -0.1257 -0.6755
 6498TIP3   OH240908   2.510   5.526  12.674  0.7866  0.3915 -0.4058
 6498TIP3    H140909   2.429   5.495  12.633  1.8264 -0.2942 -2.0395
 6498TIP3    H240910   2.567   5.549  12.600  2.6034 -0.5139  0.6448
 6499TIP3   OH240911   0.254   6.768  11.507 -0.2880  0.2707 -0.2695
 6499TIP3    H140912   0.346   6.745  11.498  0.1478  1.2333  1.3194
 6499TIP3    H240913   0.208   6.709  11.447  1.4365  0.4783 -1.8694
 6500TIP3   OH240914   3.783   6.186   2.652  0.3674  0.4402  1.5306
 6500TIP3    H140915   3.710   6.248   2.644 -0.9221 -1.2155 -0.5632
 6500TIP3    H240916   3.779   6.156   2.742 -2.1073 -0.2051  1.2711
 6501TIP3   OH240917   6.023   6.533   1.150 -0.0088 -0.0083  0.0334
 6501TIP3    H140918   6.015   6.581   1.232 -1.2199 -1.0493  0.5550
 6501TIP3    H240919   5.991   6.594   1.083  1.8214  1.1682  0.1775
 6502TIP3   OH240920   0.735   2.963  14.895 -0.3602 -0.1631  0.4108
 6502TIP3    H140921   0.800   2.958  14.826  0.2896 -1.5935  1.0754
 6502TIP3    H240922   0.746   3.050  14.933  1.0325 -0.2960  0.3678
 6503TIP3   OH240923   5.599   5.264   0.112  0.1897 -0.3535  0.4162
 6503TIP3    H140924   5.539   5.322   0.065  2.4236  0.8982 -1.0888
 6503TIP3    H240925   5.632   5.317   0.185  1.0600 -0.2372 -0.0467
 6504TIP3   OH240926   4.605   2.759  14.185 -0.2915 -0.1493  0.5734
 6504TIP3    H140927   4.557   2.808  14.117 -2.9228 -0.1952  2.2550
 6504TIP3    H240928   4.649   2.827  14.236 -0.4387  0.1083  0.3627
 6505TIP3   OH240929   6.713   5.486   4.573  0.2167 -0.1488  0.0111
 6505TIP3    H140930   6.760   5.534   4.505 -0.6182  0.7086  0.0117
 6505TIP3    H240931   6.623   5.518   4.567  0.1962  0.2070  1.7441
 6506TIP3   OH240932   0.873   1.009  15.545 -0.3777  0.5359 -0.7696
 6506TIP3    H140933   0.883   0.957  15.465 -0.0953 -1.4501  0.5083
 6506TIP3    H240934   0.919   0.959  15.612  0.3233  2.7035  0.4519
 6507TIP3   OH240935   5.328   1.034  11.840  0.5173  0.7090 -0.5556
 6507TIP3    H140936   5.367   0.964  11.892  0.7329  0.1169 -1.4839
 6507TIP3    H240937   5.382   1.039  11.761  0.0067  1.3535 -0.8805
 6508TIP3   OH240938   0.786   3.813  15.040  0.1066 -0.1877 -0.0340
 6508TIP3    H140939   0.781   3.720  15.022  1.1470 -0.6454  1.7961
 6508TIP3    H240940   0.731   3.826  15.117  1.0916  0.4319  0.5855
 6509TIP3   OH240941   5.008   0.344   3.378  0.4404  0.1795 -0.2213
 6509TIP3    H140942   4.980   0.414   3.438 -0.1722 -0.9056  0.8050
 6509TIP3    H240943   5.019   0.268   3.435  0.0281 -0.8474 -1.4837
 6510TIP3   OH240944   6.068   0.393   1.784  0.0558  0.1092  0.0260
 6510TIP3    H140945   6.142   0.416   1.840 -0.8134  1.9384  0.4891
 6510TIP3    H240946   6.074   0.452   1.709 -1.9081  1.5969  0.9531
 6511TIP3   OH240947   0.263   3.511   4.849 -0.3636 -0.4673  0.0235
 6511TIP3    H140948   0.293   3.503   4.939 -0.9221  0.1834  0.2785
 6511TIP3    H240949   0.307   3.440   4.802  0.8962 -0.0568  0.5435
 6512TIP3   OH240950   5.091   6.512  13.577 -0.0588 -0.0759  0.5050
 6512TIP3    H140951   5.049   6.429  13.555 -0.7982  0.3606  0.2778
 6512TIP3    H240952   5.049   6.539  13.659  0.1652  0.0874  0.5667
 6513TIP3   OH240953   1.472   2.080  13.543  0.5178  0.2429 -0.4934
 6513TIP3    H140954   1.563   2.049  13.544  0.1988 -0.7363 -0.4110
 6513TIP3    H240955   1.443   2.071  13.633  0.3746  0.6971 -0.4905
 6514TIP3   OH240956   0.041   4.401  16.343  0.0981 -0.2215 -0.0744
 6514TIP3    H140957   0.071   4.334  16.405  0.3503  0.2947  0.3664
 6514TIP3    H240958   0.058   4.484  16.387 -1.1297  0.1171 -0.1912
 6515TIP3   OH240959   5.195   2.514   1.482  0.2184  0.5073  0.3618
 6515TIP3    H140960   5.228   2.590   1.531 -1.5250  1.3338  0.3032
 6515TIP3    H240961   5.173   2.450   1.550  1.5620  0.0776  0.4189
 6516TIP3   OH240962   1.874   5.777  12.124  0.3782  0.0692  0.1613
 6516TIP3    H140963   1.872   5.682  12.135 -1.2972  0.0417 -0.1626
 6516TIP3    H240964   1.935   5.807  12.192 -0.2830 -1.1098  1.3163
 6517TIP3   OH240965   1.060   4.974  11.181  0.3551 -0.0540  0.0748
 6517TIP3    H140966   1.050   4.907  11.114 -0.3848  0.5702 -0.4494
 6517TIP3    H240967   1.057   5.057  11.133 -0.3226  0.4039  0.8799
 6518TIP3   OH240968   6.347   2.017   2.754 -0.2382 -0.0586  0.1334
 6518TIP3    H140969   6.396   1.946   2.712  0.3934 -0.4788  1.5154
 6518TIP3    H240970   6.271   1.973   2.793 -0.8778  0.3420 -0.6475
 6519TIP3   OH240971   5.980   4.255  13.926  0.2359  0.4099 -0.0205
 6519TIP3    H140972   6.071   4.283  13.933  0.9483 -1.8570  0.6306
 6519TIP3    H240973   5.980   4.165  13.958 -1.9616 -0.1976 -1.5209
 6520TIP3   OH240974   4.021   2.981  15.265 -0.0873 -0.3158 -0.4208
 6520TIP3    H140975   4.043   2.913  15.201 -1.1620  0.2291 -1.4149
 6520TIP3    H240976   4.054   2.947  15.348  1.3918 -1.0335 -1.2476
 6521TIP3   OH240977   4.392   3.126  11.602  0.2298 -0.1328  0.2248
 6521TIP3    H140978   4.298   3.122  11.584  0.4510  0.7455 -1.2299
 6521TIP3    H240979   4.409   3.048  11.655 -1.2650 -0.4319  0.3150
 6522TIP3   OH240980   0.266   2.009  14.717  0.0457 -0.0258 -0.0655
 6522TIP3    H140981   0.216   2.086  14.744  1.1311  0.2985  1.1215
 6522TIP3    H240982   0.352   2.043  14.692  0.5850 -0.8484  0.6156
 6523TIP3   OH240983   0.228   2.006   2.882  0.3011 -0.3196  0.1487
 6523TIP3    H140984   0.139   2.007   2.847  0.4777  0.9766 -0.3107
 6523TIP3    H240985   0.248   2.097   2.901  1.7448 -0.5109 -0.3033
 6524TIP3   OH240986   4.527   5.752  14.825 -0.1148  0.2222 -0.2596
 6524TIP3    H140987   4.495   5.803  14.900 -1.5571  1.1954 -1.4749
 6524TIP3    H240988   4.588   5.690  14.863  0.4163  1.7379  1.5287
 6525TIP3   OH240989   5.661   2.563  14.526  0.2531  0.5000  0.0427
 6525TIP3    H140990   5.752   2.546  14.503 -1.1156 -4.1019 -3.5271
 6525TIP3    H240991   5.630   2.622  14.458  0.1127  0.4634  0.0755
 6526TIP3   OH240992   2.996   1.924   4.478  0.1440 -0.4701 -0.1729
 6526TIP3    H140993   3.049   1.858   4.434  0.1432 -0.4256 -0.2421
 6526TIP3    H240994   3.057   1.966   4.540  0.1069 -0.6306 -0.0275
 6527TIP3   OH240995   5.414   2.811  11.861  0.0483  0.1685  0.1423
 6527TIP3    H140996   5.444   2.721  11.879  1.4380  0.8109  1.2381
 6527TIP3    H240997   5.384   2.809  11.770 -2.5174 -2.0555  0.8742
 6528TIP3   OH240998   6.286   3.139  13.879  0.0225 -0.0060  0.5815
 6528TIP3    H140999   6.299   3.047  13.856 -1.3341 -0.3895  1.2472
 6528TIP3    H241000   6.362   3.184  13.841 -0.1438 -1.1374 -1.2334
 6529TIP3   OH241001   3.606   1.180  14.439 -0.0469 -0.0304 -0.5574
 6529TIP3    H141002   3.618   1.086  14.450  0.6915  0.0087 -0.9718
 6529TIP3    H241003   3.644   1.219  14.517  1.6035  0.0284 -1.3500
 6530TIP3   OH241004   3.777   6.436  14.831 -0.5031  0.0781 -0.4612
 6530TIP3    H141005   3.793   6.439  14.925 -0.1309 -1.4234 -0.4371
 6530TIP3    H241006   3.769   6.342  14.812  0.9353  0.2534 -2.1623
 6531TIP3   OH241007   0.143   2.213  11.724  0.4580  0.0397 -0.3271
 6531TIP3    H141008   0.121   2.299  11.761  0.2301  0.5071 -1.5086
 6531TIP3    H241009   0.059   2.172  11.707  0.5620 -0.2032 -0.2600
 6532TIP3   OH241010   6.232   6.481  15.473 -0.3590  0.4673  0.5966
 6532TIP3    H141011   6.179   6.407  15.442 -0.5750  0.8970 -0.0849
 6532TIP3    H241012   6.225   6.546  15.403 -2.6668  2.3663  2.4225
 6533TIP3   OH241013   5.943   1.081   2.533  0.0996  0.8875 -0.0794
 6533TIP3    H141014   5.902   1.015   2.590 -0.5881  1.2254 -0.1623
 6533TIP3    H241015   5.897   1.072   2.450  0.0164  1.4562 -0.0963
 6534TIP3   OH241016   6.530   4.494  13.068  0.1306  0.0346 -0.0390
 6534TIP3    H141017   6.504   4.405  13.044 -0.5717 -0.2116  1.5492
 6534TIP3    H241018   6.615   4.484  13.111  0.1223  0.1535  0.0069
 6535TIP3   OH241019   4.603   4.134  15.512  0.3479  0.3433  1.2785
 6535TIP3    H141020   4.645   4.098  15.433  1.3864  0.8503  1.5794
 6535TIP3    H241021   4.511   4.110  15.503  0.8181 -1.5328  1.0007
 6536TIP3   OH241022   5.128   1.057  10.881 -0.0244 -0.4448 -0.2709
 6536TIP3    H141023   5.157   0.968  10.898  1.6989  0.2178  0.4642
 6536TIP3    H241024   5.203   1.112  10.903 -2.0022  1.4552  2.5275
 6537TIP3   OH241025   4.514   5.890  16.828 -0.2787  0.4735  0.2873
 6537TIP3    H141026   4.472   5.931  16.904  0.4381  1.1030  0.3580
 6537TIP3    H241027   4.482   5.940  16.753 -0.9782 -0.1417  0.1681
 6538TIP3   OH241028   2.611   6.211  12.506  0.6707  0.3263 -0.2939
 6538TIP3    H141029   2.557   6.247  12.435 -0.5902 -0.4466  0.2296
 6538TIP3    H241030   2.657   6.137  12.465  0.0513 -0.0328 -0.3716
 6539TIP3   OH241031   1.142   3.848  10.645  0.2716  0.4784  0.2578
 6539TIP3    H141032   1.105   3.835  10.557  0.8967  1.0099 -0.1004
 6539TIP3    H241033   1.144   3.761  10.684  2.4741 -0.2495 -1.2759
 6540TIP3   OH241034   3.929   6.315  11.827  0.2093  0.0948  0.0482
 6540TIP3    H141035   3.878   6.281  11.900 -0.5424  0.3888 -0.3339
 6540TIP3    H241036   3.885   6.396  11.803 -0.7122 -0.9216 -1.9509
 6541TIP3   OH241037   1.832   5.472   3.292  0.4729 -0.2052  0.1806
 6541TIP3    H141038   1.894   5.530   3.248 -0.6390  0.7920 -0.1206
 6541TIP3    H241039   1.816   5.514   3.376 -0.3867 -0.0109 -0.0662
 6542TIP3   OH241040   3.250   5.306   1.490 -0.3286  0.0109  0.3484
 6542TIP3    H141041   3.227   5.340   1.403  1.4063  1.0317  0.2325
 6542TIP3    H241042   3.288   5.220   1.473  0.0709  0.2371  0.0748
 6543TIP3   OH241043   2.765   1.656  12.587 -0.0685 -0.3506 -0.0399
 6543TIP3    H141044   2.778   1.750  12.576 -1.8746  0.0438  0.8694
 6543TIP3    H241045   2.813   1.634  12.668 -0.3335 -0.0401  0.2026
 6544TIP3   OH241046   3.486   2.876  14.960  0.2695 -0.3734  0.3987
 6544TIP3    H141047   3.401   2.860  15.002  0.3257 -2.1916 -0.0726
 6544TIP3    H241048   3.546   2.819  15.008  0.7685 -0.7775 -0.6739
 6545TIP3   OH241049   0.517   2.290   1.282  0.3558 -0.0949 -0.0487
 6545TIP3    H141050   0.561   2.241   1.352 -0.4263  0.6608  1.0091
 6545TIP3    H241051   0.424   2.282   1.303  0.1734  1.1348 -0.3205
 6546TIP3   OH241052   5.015   2.708   5.815  0.3690  0.1057 -0.2179
 6546TIP3    H141053   4.993   2.620   5.845 -0.4001  0.5461  0.5568
 6546TIP3    H241054   5.096   2.729   5.862  0.3874 -0.0707 -0.1698
 6547TIP3   OH241055   0.639   1.847   5.772  0.0404  0.0203 -0.0396
 6547TIP3    H141056   0.716   1.825   5.720 -0.8077  1.9472 -2.3350
 6547TIP3    H241057   0.581   1.771   5.763 -0.0363  0.2583 -1.9430
 6548TIP3   OH241058   4.618   2.528   3.400  0.2857 -0.1061  0.1202
 6548TIP3    H141059   4.532   2.562   3.423  1.6036  1.4845  3.2813
 6548TIP3    H241060   4.635   2.459   3.464  1.8126  0.3870  0.2901
 6549TIP3   OH241061   6.350   0.678   1.843 -0.4647 -0.2395 -0.4913
 6549TIP3    H141062   6.278   0.704   1.900 -0.1294 -0.5520  0.0777
 6549TIP3    H241063   6.308   0.661   1.758 -0.6906  2.2722 -0.9652
 6550TIP3   OH241064   1.713   0.343   1.687  0.0547  0.0987  0.5869
 6550TIP3    H141065   1.797   0.325   1.730  0.2262  0.4166  0.3880
 6550TIP3    H241066   1.648   0.330   1.756  0.1692 -1.1687  0.4787
 6551TIP3   OH241067   1.214   1.412   3.258 -0.5174  0.4161 -0.6074
 6551TIP3    H141068   1.220   1.362   3.340  4.4151 -1.0097 -1.4953
 6551TIP3    H241069   1.175   1.352   3.195  1.0632 -0.7373 -0.5521
 6552TIP3   OH241070   6.576   3.413   2.495  0.0648  0.6252  0.2726
 6552TIP3    H141071   6.593   3.464   2.415 -0.7325  0.3298 -0.1020
 6552TIP3    H241072   6.490   3.373   2.479  0.0793  0.2466  1.1214
 6553TIP3   OH241073   1.343   0.287   3.192  0.5336 -0.0307  0.6656
 6553TIP3    H141074   1.271   0.329   3.240  1.4754 -0.2043  2.3202
 6553TIP3    H241075   1.409   0.356   3.183  1.1278 -0.4975  1.3166
 6554TIP3   OH241076   2.773   6.056   1.578 -0.2758 -0.4095  0.7146
 6554TIP3    H141077   2.866   6.044   1.596 -0.3855 -0.9363  0.9291
 6554TIP3    H241078   2.735   5.969   1.588 -0.2998 -0.8929 -2.5412
 6555TIP3   OH241079   4.072   3.089  16.232  0.1083 -0.5623 -0.3210
 6555TIP3    H141080   4.163   3.066  16.248 -0.0376 -0.4630  0.7311
 6555TIP3    H241081   4.073   3.183  16.215  0.0804 -0.3107  0.9416
 6556TIP3   OH241082   6.625   5.801   4.621  0.1156 -0.4956  0.0631
 6556TIP3    H141083   6.630   5.854   4.701  0.7677 -1.6361  0.8008
 6556TIP3    H241084   6.561   5.733   4.642 -1.0131  0.2013 -1.0150
 6557TIP3   OH241085   4.610   2.616  14.778 -0.2486 -0.9416 -0.3953
 6557TIP3    H141086   4.519   2.612  14.748 -0.9893 -3.2899  1.7733
 6557TIP3    H241087   4.661   2.582  14.704 -1.1406  0.0111 -1.4863
 6558TIP3   OH241088   3.472   5.859  12.332 -0.5051  0.1219 -0.2014
 6558TIP3    H141089   3.457   5.932  12.392  0.0262  0.1040 -0.0352
 6558TIP3    H241090   3.406   5.869  12.264 -0.0385  1.1363 -0.5318
 6559TIP3   OH241091   6.053   4.740  14.617  0.0725 -0.1536  0.2435
 6559TIP3    H141092   6.000   4.687  14.557 -0.6530 -1.4424  1.9143
 6559TIP3    H241093   6.122   4.681  14.646  0.9066  0.7101  0.0521
 6560TIP3   OH241094   2.954   0.767  16.232  0.9891 -0.0706  0.2624
 6560TIP3    H141095   3.021   0.754  16.299  1.6764  2.3043  0.1418
 6560TIP3    H241096   2.932   0.860  16.238 -2.6206 -0.8185  0.5345
 6561TIP3   OH241097   3.733   5.854   2.517  0.0759 -0.2866  0.6386
 6561TIP3    H141098   3.725   5.760   2.502 -1.9009 -0.2213  0.9638
 6561TIP3    H241099   3.751   5.892   2.431  1.3517 -0.9753  0.5833
 6562TIP3   OH241100   2.389   4.025  16.486 -0.4778  0.2711  0.0972
 6562TIP3    H141101   2.468   3.980  16.516 -0.7891  0.9075  1.9710
 6562TIP3    H241102   2.319   3.960  16.495  0.0124 -1.0418 -3.5708
 6563TIP3   OH241103   5.851   2.645   4.368 -0.2201 -0.0975  0.2037
 6563TIP3    H141104   5.810   2.588   4.433  0.0825 -0.1938  0.3119
 6563TIP3    H241105   5.791   2.644   4.294 -0.4599 -0.1640  0.3960
 6564TIP3   OH241106   0.333   1.371   1.213 -0.4609  0.4855 -0.0622
 6564TIP3    H141107   0.301   1.438   1.273  0.6143 -0.2259  1.3308
 6564TIP3    H241108   0.422   1.399   1.191 -0.7720  0.6377 -1.2103
 6565TIP3   OH241109   6.329   1.665   3.095 -0.2145  0.4697 -0.3137
 6565TIP3    H141110   6.288   1.584   3.064 -0.9920 -0.0221  1.8501
 6565TIP3    H241111   6.255   1.723   3.115  0.2669  0.9459  0.1209
 6566TIP3   OH241112   5.722   6.764   1.437  0.5876  0.4224  0.2980
 6566TIP3    H141113   5.728   6.690   1.376  1.7764  1.9746 -1.5971
 6566TIP3    H241114   5.658   6.823   1.397  1.2327  1.3733  0.6463
 6567TIP3   OH241115   2.484   1.318   4.418 -0.1700  0.3075  0.1886
 6567TIP3    H141116   2.424   1.274   4.359 -1.0692  0.9987  0.5747
 6567TIP3    H241117   2.435   1.328   4.499  0.9723 -0.4574  1.0224
 6568TIP3   OH241118   5.806   2.389  10.275  0.3058 -0.7639 -0.2138
 6568TIP3    H141119   5.752   2.311  10.258 -0.1750 -0.0711 -2.2781
 6568TIP3    H241120   5.890   2.369  10.235  0.5600 -0.6704  0.2749
 6569TIP3   OH241121   5.495   1.927  12.950 -0.1760  0.4933 -0.0873
 6569TIP3    H141122   5.442   1.999  12.917 -0.3843  0.1406 -0.5331
 6569TIP3    H241123   5.577   1.932  12.901  0.8908  2.0247  1.7261
 6570TIP3   OH241124   6.617   0.121  11.859 -0.1158  0.1994 -0.1114
 6570TIP3    H141125   6.686   0.065  11.823 -1.0865 -0.9649 -0.1863
 6570TIP3    H241126   6.665   0.194  11.899  1.1439 -0.4407 -0.3907
 6571TIP3   OH241127   6.640   0.249  13.050  0.1301  0.2924 -0.7995
 6571TIP3    H141128   6.700   0.196  13.102 -0.4073 -0.4721 -0.9479
 6571TIP3    H241129   6.555   0.239  13.094 -0.1731  0.2449 -1.3944
 6572TIP3   OH241130   5.940   4.021  17.143 -0.0289  0.0602  0.2772
 6572TIP3    H141131   5.945   3.926  17.140 -0.8185 -0.0640  2.0812
 6572TIP3    H241132   5.934   4.047  17.051  1.9518 -1.4856 -0.3568
 6573TIP3   OH241133   0.631   4.791   5.419 -0.1666  0.5595  0.0319
 6573TIP3    H141134   0.635   4.886   5.431  0.1798  0.4609  0.7360
 6573TIP3    H241135   0.631   4.779   5.324 -0.6167  1.2761 -0.0723
 6574TIP3   OH241136   0.438   2.708   1.742 -0.1071 -0.8535 -0.1710
 6574TIP3    H141137   0.492   2.716   1.663  1.8185 -1.4777  1.0299
 6574TIP3    H241138   0.379   2.783   1.737  0.4110 -0.5005 -1.8635
 6575TIP3   OH241139   3.992   3.471   1.861 -0.3905 -0.8750 -0.3719
 6575TIP3    H141140   4.046   3.426   1.926 -0.5039 -1.0556 -0.4012
 6575TIP3    H241141   4.055   3.507   1.799 -0.1083  1.5937  1.2391
 6576TIP3   OH241142   6.784   2.956  14.153  0.3497 -0.5770  0.2037
 6576TIP3    H141143   6.694   2.938  14.125  0.0573 -0.6182  1.1323
 6576TIP3    H241144   6.796   2.902  14.231  0.9866 -0.1275  0.4252
 6577TIP3   OH241145   2.950   4.067  16.201 -0.2361 -0.2534 -0.1942
 6577TIP3    H141146   3.024   4.043  16.257 -0.6225 -2.1672 -0.4102
 6577TIP3    H241147   2.985   4.062  16.112 -0.3555 -0.1067 -0.2488
 6578TIP3   OH241148   4.456   5.312   3.547 -0.1758 -0.0755  0.0768
 6578TIP3    H141149   4.540   5.317   3.592  0.7082 -1.6258 -1.2753
 6578TIP3    H241150   4.394   5.353   3.606  1.2759 -0.2533  1.7937
 6579TIP3   OH241151   1.401   5.125   3.210 -0.0128 -0.6666 -0.5363
 6579TIP3    H141152   1.339   5.067   3.254 -1.7670 -0.0873 -2.1126
 6579TIP3    H241153   1.389   5.210   3.254  0.8875 -0.9308  0.2452
 6580TIP3   OH241154   2.506   0.132   5.549  0.2436 -0.0507  0.5245
 6580TIP3    H141155   2.532   0.041   5.565 -0.2870 -0.5872 -1.4001
 6580TIP3    H241156   2.575   0.166   5.491 -0.3806  0.2768 -0.0292
 6581TIP3   OH241157   1.324   5.013   1.917 -0.3258  0.4281  0.5819
 6581TIP3    H141158   1.410   4.990   1.882 -0.5235  0.2514  0.2084
 6581TIP3    H241159   1.320   4.968   2.002 -1.0292 -1.6586 -0.4757
 6582TIP3   OH241160   6.307   1.024   1.728  0.0762  0.3603  0.2540
 6582TIP3    H141161   6.275   0.973   1.654  0.9035 -0.0539  0.1650
 6582TIP3    H241162   6.230   1.040   1.782 -0.5028  0.5217 -0.6118
 6583TIP3   OH241163   6.647   1.985  13.453  0.5728 -0.1915 -0.5549
 6583TIP3    H141164   6.681   2.043  13.384 -1.6194  1.8452 -0.0477
 6583TIP3    H241165   6.674   2.027  13.534 -2.5808  1.3248 -0.1361
 6584TIP3   OH241166   1.275   0.351   0.363  0.1323  0.2755  0.1088
 6584TIP3    H141167   1.183   0.367   0.387 -0.1458 -0.7569 -0.2012
 6584TIP3    H241168   1.323   0.361   0.445 -0.2982  0.5604  0.3305
 6585TIP3   OH241169   0.438   4.815   5.619  0.5218 -0.5936  0.0063
 6585TIP3    H141170   0.376   4.866   5.566  0.2825 -0.0936  0.7615
 6585TIP3    H241171   0.489   4.766   5.554 -1.1489 -1.6073 -0.6091
 6586TIP3   OH241172   2.071   0.011  15.096 -0.1378  0.0195  0.2398
 6586TIP3    H141173   2.126   0.089  15.093  0.5149 -0.3745  1.2826
 6586TIP3    H241174   1.996   0.036  15.150  0.6541 -0.3783  1.6039
 6587TIP3   OH241175   1.176   6.650   5.245 -0.1359 -0.3047 -0.1425
 6587TIP3    H141176   1.109   6.715   5.223 -0.7957 -0.3462  1.5741
 6587TIP3    H241177   1.259   6.695   5.230 -0.3560 -0.8212 -4.0970
 6588TIP3   OH241178   0.145   2.522  17.070  0.4620  0.6776  0.3579
 6588TIP3    H141179   0.053   2.511  17.047  0.1531  2.1334  0.7818
 6588TIP3    H241180   0.145   2.534  17.165  1.1721 -0.0421  0.4587
 6589TIP3   OH241181   0.464   4.617  13.648 -0.0179  0.1374  0.1787
 6589TIP3    H141182   0.511   4.675  13.588 -0.0094  0.5154  0.5493
 6589TIP3    H241183   0.497   4.529  13.627  1.0809  0.4255  0.6357
 6590TIP3   OH241184   4.865   5.396   0.066  0.6586 -0.4034  0.1930
 6590TIP3    H141185   4.779   5.433   0.046 -0.0993 -2.4385 -0.5560
 6590TIP3    H241186   4.927   5.462   0.034 -0.6133  0.7870  0.1051
 6591TIP3   OH241187   3.552   6.504  14.473 -0.0160  0.0661  0.5847
 6591TIP3    H141188   3.484   6.548  14.423  1.5595 -0.0160 -1.7688
 6591TIP3    H241189   3.606   6.574  14.508  0.1414  0.0881  0.2991
 6592TIP3   OH241190   2.322   0.156  15.959  0.0331  0.1448 -0.6803
 6592TIP3    H141191   2.227   0.166  15.960 -0.3012 -2.2106  1.9901
 6592TIP3    H241192   2.356   0.245  15.955 -2.2551  1.0556 -1.1993
 6593TIP3   OH241193   2.018   5.153  14.135 -0.3887 -0.2680 -0.0739
 6593TIP3    H141194   2.107   5.154  14.100 -0.6387  0.0893 -0.7197
 6593TIP3    H241195   1.969   5.099  14.072 -0.7564  0.0359 -0.0502
 6594TIP3   OH241196   5.426   1.743   5.517  0.5131  0.0838  0.8030
 6594TIP3    H141197   5.516   1.753   5.550  0.2811  0.9096  1.2055
 6594TIP3    H241198   5.413   1.648   5.515  1.2022 -0.0349  1.2757
 6595TIP3   OH241199   3.949   5.454   5.637 -0.6732 -0.4071  0.1191
 6595TIP3    H141200   3.864   5.492   5.618  0.1809  3.0489  2.3423
 6595TIP3    H241201   3.936   5.407   5.720 -0.7255 -1.3296 -0.3933
 6596TIP3   OH241202   3.921   2.180   6.273  0.0582  0.3292 -0.7907
 6596TIP3    H141203   3.848   2.120   6.257  0.2386  0.3687 -1.8446
 6596TIP3    H241204   3.952   2.157   6.360  0.3241 -1.3338 -1.2832
 6597TIP3   OH241205   6.483   6.097  10.802  0.2426  0.6060  0.0804
 6597TIP3    H141206   6.531   6.014  10.793  0.5608  0.9263 -1.5082
 6597TIP3    H241207   6.520   6.153  10.734 -1.8092  1.1358 -0.6765
 6598TIP3   OH241208   2.086   5.499   4.023 -0.0833 -0.3437  0.1726
 6598TIP3    H141209   2.062   5.591   4.025  1.9151  0.2272  0.5853
 6598TIP3    H241210   2.022   5.455   4.079  0.5602  1.2600  2.2995
 6599TIP3   OH241211   1.235   4.277   3.747  0.1855  0.4163  0.1191
 6599TIP3    H141212   1.310   4.249   3.694  0.7054 -1.3271  1.6608
 6599TIP3    H241213   1.268   4.351   3.798  0.8009 -0.1708  0.5893
 6600TIP3   OH241214   5.666   3.744   0.660  0.1569 -0.5362  0.8036
 6600TIP3    H141215   5.697   3.809   0.597  0.8649  1.0050  2.6327
 6600TIP3    H241216   5.719   3.759   0.738 -2.3496 -0.6117  2.6493
 6601TIP3   OH241217   6.366   5.979  17.019  0.2763  0.2551  0.4240
 6601TIP3    H141218   6.383   5.898  16.971 -0.9921 -0.6209  1.3897
 6601TIP3    H241219   6.368   5.954  17.111  0.0431  1.3520  0.7441
 6602TIP3   OH241220   5.491   5.641   2.658  0.0303  0.5334  0.1763
 6602TIP3    H141221   5.508   5.547   2.653 -2.6857 -0.0283  0.1134
 6602TIP3    H241222   5.508   5.673   2.570 -2.4363 -0.6339 -0.8198
 6603TIP3   OH241223   5.724   4.627   4.763  0.4075  0.2022 -0.3615
 6603TIP3    H141224   5.769   4.706   4.793  1.4222 -1.3250  2.5053
 6603TIP3    H241225   5.644   4.659   4.722  0.9441  2.7177  0.3828
 6604TIP3   OH241226   0.099   1.214  14.729  0.1290 -0.1333 -0.0063
 6604TIP3    H141227   0.131   1.260  14.651  0.9905 -0.0769  0.3593
 6604TIP3    H241228   0.059   1.283  14.782 -0.6647 -0.2126 -0.4997
 6605TIP3   OH241229   4.657   6.706  14.568 -0.4808 -0.1954 -0.8762
 6605TIP3    H141230   4.671   6.777  14.631 -0.4460  1.0659 -2.2673
 6605TIP3    H241231   4.572   6.669  14.593 -0.5689  0.4189 -0.2175
 6606TIP3   OH241232   4.387   0.227   4.017  0.5091 -0.6037 -0.8003
 6606TIP3    H141233   4.336   0.286   4.073  2.3480  0.4119 -0.0967
 6606TIP3    H241234   4.410   0.279   3.940  0.9000 -0.8674 -0.8688
 6607TIP3   OH241235   1.219   3.632  14.154  0.0818 -0.5350  0.2861
 6607TIP3    H141236   1.139   3.664  14.198  0.5916 -0.5189  1.2294
 6607TIP3    H241237   1.201   3.644  14.061 -0.9399 -0.3358  0.4909
 6608TIP3   OH241238   1.816   3.932   2.808  0.3076 -0.7607  0.4196
 6608TIP3    H141239   1.742   3.888   2.851 -0.0171  0.7747  1.5302
 6608TIP3    H241240   1.890   3.872   2.821 -0.2424 -1.2582  1.3687
 6609TIP3   OH241241   4.286   3.680   1.904 -0.0681  0.0530  0.4360
 6609TIP3    H141242   4.223   3.638   1.962 -3.2656  0.2517 -2.5934
 6609TIP3    H241243   4.359   3.618   1.899 -1.5997 -1.9364  1.3730
 6610TIP3   OH241244   5.252   6.657   0.468  0.2424 -0.5181  0.1785
 6610TIP3    H141245   5.288   6.688   0.551  0.7434 -1.3477  0.2785
 6610TIP3    H241246   5.170   6.614   0.493 -0.3205  0.4419  0.0682
 6611TIP3   OH241247   4.800   4.917   0.489  0.3669  0.2747  0.4009
 6611TIP3    H141248   4.811   5.007   0.519  1.0379  0.4155 -0.2394
 6611TIP3    H241249   4.849   4.913   0.407 -1.9586  0.1347 -1.0944
 6612TIP3   OH241250   0.647   3.571   0.999 -0.0830 -0.4121  0.1183
 6612TIP3    H141251   0.657   3.645   0.938  1.9697 -0.0966  0.7731
 6612TIP3    H241252   0.736   3.553   1.029 -0.6598 -2.6164  0.6393
 6613TIP3   OH241253   4.235   6.597  11.385  0.2068  0.4273  0.0949
 6613TIP3    H141254   4.322   6.634  11.404  0.3966  1.0276 -1.7746
 6613TIP3    H241255   4.196   6.658  11.323 -1.2974 -0.2145  0.3639
 6614TIP3   OH241256   1.773   4.096   3.044  0.1669 -0.3765  0.3170
 6614TIP3    H141257   1.808   4.069   2.959  1.3866 -2.4264  1.3826
 6614TIP3    H241258   1.678   4.084   3.036  0.2966 -0.8228 -0.6578
 6615TIP3   OH241259   3.184   1.759   5.017 -0.1889 -0.0994  0.3324
 6615TIP3    H141260   3.119   1.690   5.000  0.4526 -0.4922 -0.6190
 6615TIP3    H241261   3.135   1.841   5.012 -0.5827 -0.3803 -0.5736
 6616TIP3   OH241262   0.779   5.970   1.081  0.5795 -0.4836 -0.2643
 6616TIP3    H141263   0.732   5.904   1.132  3.4145 -0.4551  2.7371
 6616TIP3    H241264   0.860   5.926   1.054  0.3714  0.3820 -2.4404
 6617TIP3   OH241265   3.263   0.647   4.399 -0.0607 -0.7922 -0.1465
 6617TIP3    H141266   3.217   0.578   4.351 -0.5832  0.2010 -1.1516
 6617TIP3    H241267   3.346   0.656   4.353 -0.6289  0.2745 -1.0380
 6618TIP3   OH241268   1.538   4.070  15.897  0.4574 -0.7031  0.5347
 6618TIP3    H141269   1.501   4.016  15.967 -0.2066  1.3855  1.8738
 6618TIP3    H241270   1.608   4.119  15.939 -1.3512  2.2326  0.4394
 6619TIP3   OH241271   2.658   2.147   1.850  0.4532 -0.6422  0.0251
 6619TIP3    H141272   2.657   2.081   1.920 -0.2628 -1.2234 -0.5309
 6619TIP3    H241273   2.720   2.213   1.882 -2.6714  1.1518  3.0936
 6620TIP3   OH241274   2.767   2.686   4.082 -0.2684 -0.2828 -0.9504
 6620TIP3    H141275   2.688   2.716   4.128  0.0352  0.1866 -0.7266
 6620TIP3    H241276   2.736   2.660   3.995 -0.8695 -1.2728 -0.4547
 6621TIP3   OH241277   6.560   2.761  11.188 -0.1472 -0.0203  0.2774
 6621TIP3    H141278   6.508   2.713  11.124  0.0600  1.5861 -1.1540
 6621TIP3    H241279   6.540   2.853  11.172  2.2644  0.5942  0.4228
 6622TIP3   OH241280   5.895   2.802  12.647 -0.0444 -0.3283 -0.2599
 6622TIP3    H141281   5.823   2.808  12.585 -0.5036  0.6637  0.3507
 6622TIP3    H241282   5.970   2.774  12.594 -0.5884 -0.1702 -1.1290
 6623TIP3   OH241283   0.953   1.272  15.440  0.2706 -0.0151  0.1488
 6623TIP3    H141284   0.893   1.209  15.480  0.9190 -0.2579  0.7688
 6623TIP3    H241285   1.035   1.223  15.428 -0.4297 -0.5702 -3.3369
 6624TIP3   OH241286   4.965   1.936  15.241  0.4606  0.0652  0.4201
 6624TIP3    H141287   4.998   1.862  15.291 -0.8075 -1.8368 -1.3587
 6624TIP3    H241288   4.880   1.956  15.281  0.2839 -0.2253  0.1964
 6625TIP3   OH241289   2.265   1.785   5.810  0.4626  0.5147 -0.0930
 6625TIP3    H141290   2.258   1.756   5.901  0.6258 -0.6121 -0.4308
 6625TIP3    H241291   2.175   1.781   5.778  0.8668 -3.1826 -1.1742
 6626TIP3   OH241292   3.074   4.149   0.519 -0.2894  0.2026  0.6830
 6626TIP3    H141293   3.028   4.071   0.550 -1.1737  0.3852 -0.1444
 6626TIP3    H241294   3.033   4.170   0.436  1.1562  0.4955  0.0071
 6627TIP3   OH241295   5.146   4.238  12.588 -0.4335 -0.4845 -0.2437
 6627TIP3    H141296   5.135   4.229  12.683  0.3726  1.5550  0.0983
 6627TIP3    H241297   5.227   4.191  12.569  1.5929  2.2954  0.8201
 6628TIP3   OH241298   3.351   5.542   5.258  0.0764  0.1893  0.5423
 6628TIP3    H141299   3.397   5.461   5.238 -0.8047 -0.2448  0.1959
 6628TIP3    H241300   3.326   5.533   5.350  1.9495  1.0892  1.1937
 6629TIP3   OH241301   3.382   5.118  11.690  0.2571 -0.0075 -0.2981
 6629TIP3    H141302   3.466   5.137  11.732  0.1116 -1.3692  0.6937
 6629TIP3    H241303   3.317   5.140  11.757 -0.0373 -1.1303 -0.1832
 6630TIP3   OH241304   5.439   2.835  13.435 -0.6509  0.5395 -0.4066
 6630TIP3    H141305   5.437   2.787  13.518 -1.5601  0.3205 -0.5440
 6630TIP3    H241306   5.472   2.772  13.371  1.6124  1.1711  0.0468
 6631TIP3   OH241307   1.804   5.283   4.674  0.1143 -0.3434 -0.5132
 6631TIP3    H141308   1.726   5.333   4.698 -0.1598  0.3870 -2.7333
 6631TIP3    H241309   1.876   5.326   4.720 -0.7215 -0.9693  1.4821
 6632TIP3   OH241310   5.266   1.746   3.853  0.1356  0.2684 -0.1365
 6632TIP3    H141311   5.195   1.805   3.879 -2.0074 -1.7131 -1.1567
 6632TIP3    H241312   5.274   1.685   3.927 -1.1864 -1.1559 -1.1005
 6633TIP3   OH241313   5.823   1.246  14.374  0.0015  0.1120  0.9429
 6633TIP3    H141314   5.770   1.199  14.309 -1.2410  2.6171 -0.0124
 6633TIP3    H241315   5.759   1.279  14.437  0.9524 -0.3211  2.1739
 6634TIP3   OH241316   6.385   5.275  14.972  0.0994  0.0627  0.0931
 6634TIP3    H141317   6.476   5.256  14.994 -0.4887 -2.4829  0.6153
 6634TIP3    H241318   6.383   5.273  14.876  0.7439  1.0306  0.0505
 6635TIP3   OH241319   4.612   3.954   3.210 -0.1106  0.4195  0.4547
 6635TIP3    H141320   4.610   3.953   3.306  0.6397 -0.6464  0.4714
 6635TIP3    H241321   4.635   3.865   3.185  1.2302  1.0425 -0.6809
 6636TIP3   OH241322   5.444   3.811  16.090  0.0624  0.2986 -0.3098
 6636TIP3    H141323   5.446   3.776  16.179  2.8556  0.8018 -0.0951
 6636TIP3    H241324   5.363   3.776  16.053  0.0382 -1.9677  1.6141
 6637TIP3   OH241325   6.270   6.388  14.060 -0.0194  0.5372  0.3516
 6637TIP3    H141326   6.322   6.468  14.062 -0.9182  1.1554 -0.2199
 6637TIP3    H241327   6.182   6.417  14.040 -0.3956 -0.5879  0.2881
 6638TIP3   OH241328   6.203   0.517   4.899  0.1020  1.2094 -0.1721
 6638TIP3    H141329   6.197   0.597   4.847  1.3689  0.1700 -2.0088
 6638TIP3    H241330   6.251   0.456   4.844 -0.9205 -0.8779  1.1355
 6639TIP3   OH241331   4.226   1.144  13.566  0.6011  0.3548  0.4453
 6639TIP3    H141332   4.296   1.088  13.601  0.5961  0.7225  1.0411
 6639TIP3    H241333   4.258   1.169  13.479  0.4100 -0.9211 -0.0147
 6640TIP3   OH241334   5.626   1.942  16.441 -0.1596 -0.5782 -0.2353
 6640TIP3    H141335   5.544   1.915  16.483 -1.0363 -1.1837 -2.2253
 6640TIP3    H241336   5.625   1.899  16.355  3.3121 -2.4364  0.4595
 6641TIP3   OH241337   1.966   3.261   4.196 -0.3255 -0.5053  0.0213
 6641TIP3    H141338   2.050   3.217   4.191  0.8659  1.6374  0.1174
 6641TIP3    H241339   1.917   3.211   4.262  1.0251 -1.4929  0.3282
 6642TIP3   OH241340   5.585   3.712  12.026  0.0192 -0.0906  0.1397
 6642TIP3    H141341   5.548   3.793  11.992  1.4751 -0.5649 -2.8884
 6642TIP3    H241342   5.637   3.738  12.102 -0.3719  1.6291 -0.1573
 6643TIP3   OH241343   1.434   3.900   0.849 -0.4749  0.7304  0.4172
 6643TIP3    H141344   1.398   3.821   0.889  0.1465  1.1243  1.8216
 6643TIP3    H241345   1.419   3.969   0.913  2.2231  1.0186  0.8720
 6644TIP3   OH241346   1.506   0.062  17.108  0.2944  0.1025  0.5058
 6644TIP3    H141347   1.586   0.078  17.058  0.1260 -0.0372  0.1900
 6644TIP3    H241348   1.504   0.132  17.173  0.8221 -0.0622  0.7048
 6645TIP3   OH241349   2.004   5.020  15.133  0.3257 -0.1139 -0.2821
 6645TIP3    H141350   1.916   5.054  15.146  0.5831  0.3410  0.3639
 6645TIP3    H241351   1.992   4.935  15.090 -0.4444 -0.2605  0.2152
 6646TIP3   OH241352   4.280   2.606  10.777  0.1490 -0.1711  0.2484
 6646TIP3    H141353   4.302   2.634  10.688 -0.2362 -2.2467 -0.5586
 6646TIP3    H241354   4.230   2.679  10.814  0.6517  0.8875 -1.0760
 6647TIP3   OH241355   5.534   0.559   0.646 -0.1837  0.5365  0.1417
 6647TIP3    H141356   5.466   0.587   0.584 -0.3301 -1.5351 -0.7168
 6647TIP3    H241357   5.561   0.640   0.690 -2.6858  1.5367  0.0143
 6648TIP3   OH241358   4.705   6.328  12.929 -1.0585  1.2591  0.0810
 6648TIP3    H141359   4.725   6.387  12.857 -0.8622  0.4808 -0.5212
 6648TIP3    H241360   4.743   6.370  13.006  1.1061  0.8410 -0.6843
 6649TIP3   OH241361   1.741   3.585  16.525  0.3988 -0.3939  0.6972
 6649TIP3    H141362   1.747   3.563  16.618 -0.8276  1.5478  1.3081
 6649TIP3    H241363   1.683   3.661  16.522  0.9879  0.0531 -1.5995
 6650TIP3   OH241364   0.385   0.450  10.671  0.0193 -0.0376 -0.0553
 6650TIP3    H141365   0.474   0.416  10.677 -0.2526 -1.1784 -1.6490
 6650TIP3    H241366   0.395   0.545  10.671  1.1818 -0.1478  0.3162
 6651TIP3   OH241367   3.703   6.679   3.443 -0.2539 -0.0327 -0.4851
 6651TIP3    H141368   3.644   6.711   3.511 -0.0011 -3.7768  1.8154
 6651TIP3    H241369   3.645   6.651   3.372 -0.8056  0.8943 -0.4111
 6652TIP3   OH241370   6.262   6.666  13.155 -0.1399  0.4533  0.2895
 6652TIP3    H141371   6.260   6.574  13.130  0.4025  0.4767  0.1483
 6652TIP3    H241372   6.170   6.689  13.168 -0.2495 -0.2124  0.7187
 6653TIP3   OH241373   1.119   6.528   3.184  0.1847  0.1955  0.4095
 6653TIP3    H141374   1.141   6.567   3.100  0.0127 -0.6852 -0.0513
 6653TIP3    H241375   1.024   6.537   3.191  0.3455  1.5975  1.1960
 6654TIP3   OH241376   2.457   2.890  11.856  0.1711 -0.3128  0.5118
 6654TIP3    H141377   2.375   2.855  11.821 -0.0608 -0.3972  1.1238
 6654TIP3    H241378   2.502   2.926  11.780 -0.9635  0.8136  0.3457
 6655TIP3   OH241379   3.427   5.977   4.913  0.9041 -0.0009 -0.4327
 6655TIP3    H141380   3.497   6.040   4.931 -0.4706  1.3191  0.6255
 6655TIP3    H241381   3.356   6.003   4.972 -0.8177 -0.7130 -2.0725
 6656TIP3   OH241382   0.273   4.993  15.121  0.1348  0.2832 -0.0291
 6656TIP3    H141383   0.353   5.041  15.099 -0.2739  0.4375 -1.2178
 6656TIP3    H241384   0.205   5.032  15.066 -0.6788 -0.1521  0.6371
 6657TIP3   OH241385   5.837   2.694   5.130 -0.3519 -0.1475  0.0161
 6657TIP3    H141386   5.814   2.688   5.223 -1.0103  1.8352  0.0213
 6657TIP3    H241387   5.924   2.653   5.125  0.8030  1.8354  1.9789
 6658TIP3   OH241388   2.350   2.868   2.427  0.5864  0.1139  0.2365
 6658TIP3    H141389   2.273   2.899   2.474 -0.5292 -1.5428 -0.4178
 6658TIP3    H241390   2.423   2.918   2.466 -1.0112  3.6945 -0.9281
 6659TIP3   OH241391   5.014   3.651   4.367 -0.5804  0.1135 -0.2531
 6659TIP3    H141392   4.971   3.604   4.438  0.5357 -0.6903 -0.0956
 6659TIP3    H241393   4.994   3.600   4.289 -0.5032  0.1387 -0.2887
 6660TIP3   OH241394   6.617   3.235   5.162 -0.1500  0.3402  0.8218
 6660TIP3    H141395   6.678   3.298   5.122 -1.7188  0.4588 -1.5953
 6660TIP3    H241396   6.658   3.211   5.245  1.7654  2.5718  0.6164
 6661TIP3   OH241397   0.559   2.462   3.303 -0.0054 -0.0354 -0.0654
 6661TIP3    H141398   0.652   2.479   3.285  0.4143 -1.5589  0.5402
 6661TIP3    H241399   0.526   2.423   3.222 -0.5334  1.8974 -0.8302
 6662TIP3   OH241400   1.629   0.043   3.989  1.1738 -0.9177 -0.5945
 6662TIP3    H141401   1.661  -0.042   4.022  0.8675 -0.3900  1.1967
 6662TIP3    H241402   1.535   0.042   4.009  0.8758 -0.7415 -1.9319
 6663TIP3   OH241403   3.226   3.705  15.093 -0.5919 -0.6024  0.1130
 6663TIP3    H141404   3.131   3.714  15.082 -0.3439  2.4200 -0.3832
 6663TIP3    H241405   3.241   3.610  15.096 -3.6927 -1.1761  1.1373
 6664TIP3   OH241406   6.603   5.550  14.744 -0.1672 -0.2645 -0.3754
 6664TIP3    H141407   6.582   5.636  14.780  0.2721  0.3245 -1.4562
 6664TIP3    H241408   6.525   5.525  14.695  0.1085  0.0305 -0.9726
 6665TIP3   OH241409   5.224   0.080  14.470  0.0903 -0.3440  0.0471
 6665TIP3    H141410   5.168   0.146  14.512 -0.4300 -0.6593 -0.1431
 6665TIP3    H241411   5.193  -0.004  14.505 -0.2969 -0.6060 -0.8988
 6666TIP3   OH241412   3.700   6.357   3.498  0.1972 -0.3761 -0.0650
 6666TIP3    H141413   3.690   6.438   3.549  0.5911  0.1372 -0.7916
 6666TIP3    H241414   3.794   6.339   3.501 -0.0231 -1.4996  1.1260
 6667TIP3   OH241415   4.307   3.880   5.181 -0.0453  0.3498  0.1415
 6667TIP3    H141416   4.343   3.803   5.225  0.7798  0.6946  0.1072
 6667TIP3    H241417   4.213   3.874   5.193 -0.2852 -2.0200 -2.0251
 6668TIP3   OH241418   1.111   0.280   2.625 -0.5029 -0.4157 -0.1055
 6668TIP3    H141419   1.077   0.259   2.712  2.4958  1.7035  1.7853
 6668TIP3    H241420   1.071   0.364   2.603  0.6389  0.3279  0.5084
 6669TIP3   OH241421   1.527   0.782   6.295 -0.3485 -0.3413 -0.2049
 6669TIP3    H141422   1.534   0.703   6.240 -0.1822 -1.2294  1.0549
 6669TIP3    H241423   1.445   0.823   6.267 -0.6727 -1.2147 -0.5630
 6670TIP3   OH241424   3.958   5.135   3.649  0.0716 -0.1523  0.0687
 6670TIP3    H141425   4.002   5.210   3.608 -1.0820 -0.2081 -1.3241
 6670TIP3    H241426   3.986   5.138   3.741  1.9943  0.5237 -0.4974
 6671TIP3   OH241427   1.454   1.233  13.761 -0.7378 -0.3221  0.3453
 6671TIP3    H141428   1.360   1.225  13.774 -1.3110  0.2694 -2.6416
 6671TIP3    H241429   1.484   1.143  13.750 -1.2384 -0.4269 -0.2142
 6672TIP3   OH241430   3.334   6.777  11.069  0.0808 -0.1004  0.1202
 6672TIP3    H141431   3.340   6.784  10.974  1.5417  0.7857  0.2453
 6672TIP3    H241432   3.241   6.764  11.086 -0.0288 -1.8389 -1.4968
 6673TIP3   OH241433   4.502   1.328   3.059 -0.0499  0.3230 -0.4049
 6673TIP3    H141434   4.567   1.372   3.005 -0.1802  1.5783  0.4246
 6673TIP3    H241435   4.432   1.392   3.070 -0.5355 -0.3114  0.3170
 6674TIP3   OH241436   5.582   3.973  17.092  0.3116 -0.1819  0.2378
 6674TIP3    H141437   5.546   3.955  17.180  1.1703  0.3409  0.7078
 6674TIP3    H241438   5.655   3.912  17.084 -0.2382 -0.7710 -0.4455
 6675TIP3   OH241439   1.886   3.605  13.417 -0.0535 -0.6612  0.3267
 6675TIP3    H141440   1.827   3.530  13.407 -4.2358  2.3825 -0.1710
 6675TIP3    H241441   1.851   3.655  13.490  2.2322  1.1853  0.3035
 6676TIP3   OH241442   3.763   0.856   2.765 -0.1899  0.5179  0.2966
 6676TIP3    H141443   3.856   0.840   2.748 -0.0193  0.1550  1.5325
 6676TIP3    H241444   3.718   0.803   2.699  0.4524  2.1061 -1.5291
 6677TIP3   OH241445   0.334   2.626   0.095  0.3084 -0.6639 -0.4194
 6677TIP3    H141446   0.378   2.641   0.179 -0.0780  0.8949 -0.4755
 6677TIP3    H241447   0.243   2.607   0.118  0.3185 -0.7846 -0.4740
 6678TIP3   OH241448   3.646   5.096  13.303 -0.2446 -0.0841 -0.2658
 6678TIP3    H141449   3.646   5.118  13.210  2.0424 -0.1348 -0.3320
 6678TIP3    H241450   3.656   5.180  13.347  1.3956 -0.2668 -0.2237
 6679TIP3   OH241451   1.276   4.011  12.089 -0.1922  0.1726  0.1523
 6679TIP3    H141452   1.261   4.068  12.165  2.6349  0.1488  0.8137
 6679TIP3    H241453   1.371   4.009  12.078 -0.4311 -1.0379 -2.5051
 6680TIP3   OH241454   1.854   1.263  11.567  0.5313  0.2258  0.3003
 6680TIP3    H141455   1.836   1.217  11.485  0.7935 -1.4001  1.1142
 6680TIP3    H241456   1.768   1.291  11.598  0.4953  1.5520 -0.8794
 6681TIP3   OH241457   3.152   3.032   3.900  0.0465 -0.2877  0.0850
 6681TIP3    H141458   3.084   3.061   3.961  0.0366 -2.6965  1.3251
 6681TIP3    H241459   3.189   2.953   3.940  0.2547 -1.8492 -2.8947
 6682TIP3   OH241460   1.856   2.343  13.946 -0.1347  0.2468 -0.6858
 6682TIP3    H141461   1.790   2.326  13.879  0.8910 -2.0424 -1.2209
 6682TIP3    H241462   1.938   2.351  13.897  0.3770  0.2759  0.1528
 6683TIP3   OH241463   5.425   2.486  14.207 -0.2552 -0.4260 -0.4419
 6683TIP3    H141464   5.428   2.481  14.112  2.1988 -1.0097 -0.4035
 6683TIP3    H241465   5.475   2.564  14.230 -1.0145 -0.1572  0.3673
 6684TIP3   OH241466   2.167   0.266  12.654  0.4853  0.4078 -0.5240
 6684TIP3    H141467   2.208   0.198  12.600  3.0556  0.9692  0.5833
 6684TIP3    H241468   2.148   0.223  12.737 -0.2717  0.4142 -0.6886
 6685TIP3   OH241469   3.588   6.243  15.237  0.4678 -0.3722 -0.0108
 6685TIP3    H141470   3.622   6.154  15.222 -2.6476 -1.8042  0.6083
 6685TIP3    H241471   3.518   6.252  15.172 -0.5799  0.8301  1.2322
 6686TIP3   OH241472   1.216   1.361  16.662  0.5376  0.1552  0.7291
 6686TIP3    H141473   1.186   1.332  16.576  1.9924  2.1533 -0.5339
 6686TIP3    H241474   1.137   1.394  16.705 -0.0801 -0.1568 -0.1385
 6687TIP3   OH241475   5.754   2.180  16.536  0.0284 -0.1544 -0.2536
 6687TIP3    H141476   5.699   2.107  16.509 -0.8900  0.5083 -0.2381
 6687TIP3    H241477   5.841   2.160  16.501 -1.1267  0.8468 -4.1232
 6688TIP3   OH241478   3.546   3.697   2.118 -0.7057 -0.0455 -0.4347
 6688TIP3    H141479   3.568   3.656   2.035 -0.4163  0.7012 -0.7308
 6688TIP3    H241480   3.560   3.629   2.184  0.9965 -0.0487 -0.7787
 6689TIP3   OH241481   0.325   6.038   0.813  0.6865 -0.1148 -0.3389
 6689TIP3    H141482   0.274   6.116   0.832  0.2681 -0.9288  2.3762
 6689TIP3    H241483   0.412   6.071   0.790  0.0340  1.1686 -1.0243
 6690TIP3   OH241484   2.363   6.196   3.813 -0.4058  0.8197 -0.0790
 6690TIP3    H141485   2.446   6.161   3.780 -0.9487  1.6841 -2.5934
 6690TIP3    H241486   2.384   6.231   3.899  1.0689 -1.8662  0.7678
 6691TIP3   OH241487   6.415   4.732   5.630  0.3500  0.3569 -0.5649
 6691TIP3    H141488   6.499   4.749   5.671  0.7332 -0.3020 -1.0665
 6691TIP3    H241489   6.392   4.815   5.587 -0.0547  1.0510  0.9323
 6692TIP3   OH241490   1.110   2.403   4.244  0.8170 -0.0522 -0.6928
 6692TIP3    H141491   1.106   2.498   4.254  0.1267  0.0184 -1.5335
 6692TIP3    H241492   1.082   2.387   4.153 -1.5420 -1.2112  0.1514
 6693TIP3   OH241493   3.925   0.854  13.948  0.4215 -0.1635 -0.4868
 6693TIP3    H141494   3.930   0.796  13.872 -2.0188 -2.3668  0.8442
 6693TIP3    H241495   3.840   0.896  13.940 -0.5134 -1.4771  1.5913
 6694TIP3   OH241496   0.640   2.382   4.849  0.3241 -0.5465 -0.6600
 6694TIP3    H141497   0.667   2.378   4.758 -1.7201 -4.1538 -1.2780
 6694TIP3    H241498   0.576   2.453   4.852  2.1878  1.2615 -1.3714
 6695TIP3   OH241499   3.951   6.015  14.201  0.0797 -0.0528 -0.2719
 6695TIP3    H141500   3.938   6.084  14.136 -1.0650 -1.5084 -1.6675
 6695TIP3    H241501   3.889   6.035  14.270  0.7572  1.0808  0.0362
 6696TIP3   OH241502   2.198   5.575  15.497 -0.5448 -0.1171 -0.7665
 6696TIP3    H141503   2.248   5.520  15.557 -2.8552 -1.6462 -0.1046
 6696TIP3    H241504   2.258   5.593  15.425  2.1666  1.3028  1.6245
 6697TIP3   OH241505   4.028   4.818  11.510 -0.1136 -0.2529  0.0664
 6697TIP3    H141506   4.110   4.770  11.506  0.2016  0.2997 -0.1875
 6697TIP3    H241507   3.961   4.754  11.485  0.5332  0.0334 -2.7263
 6698TIP3   OH241508   0.115   0.473  11.431  0.4549 -0.1544 -0.4010
 6698TIP3    H141509   0.076   0.506  11.350 -0.1195 -2.0214 -0.9360
 6698TIP3    H241510   0.141   0.552  11.479 -0.9570  1.0605 -1.5254
 6699TIP3   OH241511   6.167   6.774   6.974 -0.0565 -0.2450  0.2266
 6699TIP3    H141512   6.090   6.778   7.031  1.1245 -0.2607  1.9109
 6699TIP3    H241513   6.134   6.796   6.887 -1.9626 -0.3229  0.8854
 6700TIP3   OH241514   2.441   5.852  13.883  0.2941 -0.0592 -0.1540
 6700TIP3    H141515   2.504   5.781  13.890 -0.9364 -1.1180  0.6996
 6700TIP3    H241516   2.418   5.854  13.790  1.1545 -0.0140 -0.3787
 6701TIP3   OH241517   5.464   2.693  12.648  0.2244 -0.1713  0.3471
 6701TIP3    H141518   5.442   2.629  12.715 -0.6454 -0.1335  0.1046
 6701TIP3    H241519   5.382   2.709  12.601  0.5901  0.5757 -0.0639
 6702TIP3   OH241520   5.551   2.527   5.088 -0.2260 -0.1486 -0.0363
 6702TIP3    H141521   5.633   2.575   5.105  0.6251 -1.5497  0.0038
 6702TIP3    H241522   5.488   2.564   5.150  0.1092  1.5988 -0.7037
 6703TIP3   OH241523   1.708   4.662   1.533 -0.2323 -0.4977 -0.2754
 6703TIP3    H141524   1.631   4.607   1.547 -1.1292  0.6015 -0.6605
 6703TIP3    H241525   1.717   4.667   1.438 -2.1594  2.5502 -0.4307
 6704TIP3   OH241526   3.192   4.050   3.044  0.2828  0.1451  0.2772
 6704TIP3    H141527   3.176   4.063   2.951 -1.2770  0.0303  0.5076
 6704TIP3    H241528   3.272   3.997   3.048  0.0265 -0.3688 -1.0015
 6705TIP3   OH241529   0.079   0.974   1.191 -0.8219 -0.7206 -0.3581
 6705TIP3    H141530   0.099   0.951   1.282  0.4943  0.5536 -0.2786
 6705TIP3    H241531   0.032   1.057   1.198  1.1698  0.5274 -0.8622
 6706TIP3   OH241532   4.001   5.624   0.573  0.1117  0.0156  0.4126
 6706TIP3    H141533   3.905   5.620   0.575  0.0192  1.5445 -0.1190
 6706TIP3    H241534   4.021   5.684   0.501  1.5123 -1.1955 -0.2626
 6707TIP3   OH241535   3.922   3.138   0.472  0.8371  0.3069 -0.2545
 6707TIP3    H141536   3.888   3.186   0.397  1.4329  0.7920 -0.2169
 6707TIP3    H241537   3.900   3.192   0.548  2.5593  1.1510 -0.3086
 6708TIP3   OH241538   6.619   2.902  12.308 -0.3655  0.0570  0.1931
 6708TIP3    H141539   6.706   2.908  12.269 -0.8229  1.5774 -0.6675
 6708TIP3    H241540   6.570   2.974  12.269 -2.6090 -1.8574 -0.7984
 6709TIP3   OH241541   5.055   1.064  11.735 -0.0419  0.3317 -0.2092
 6709TIP3    H141542   5.098   1.104  11.660 -0.1488  0.0802 -0.4039
 6709TIP3    H241543   5.121   1.007  11.774  1.0145  2.6284  1.6288
 6710TIP3   OH241544   1.234   2.421   2.627 -0.6427 -0.5197  0.0488
 6710TIP3    H141545   1.186   2.429   2.709 -0.0302 -1.0873  0.4748
 6710TIP3    H241546   1.177   2.460   2.561 -1.9123 -1.6121  0.4554
 6711TIP3   OH241547   5.961   3.481   3.988 -0.4116  0.4473  0.4104
 6711TIP3    H141548   6.007   3.456   4.069  1.4514 -0.3210 -0.8170
 6711TIP3    H241549   5.908   3.557   4.013  1.7606  1.5954  1.8730
 6712TIP3   OH241550   6.220   0.994  11.956  0.3217 -0.0945  0.8964
 6712TIP3    H141551   6.163   1.070  11.947 -0.4630 -0.7162  0.5075
 6712TIP3    H241552   6.163   0.919  11.940  1.4589 -0.6899 -0.5301
 6713TIP3   OH241553   1.907   0.738   2.289  0.3232  0.5678  0.5253
 6713TIP3    H141554   1.881   0.823   2.253 -0.0146 -0.0779 -0.7971
 6713TIP3    H241555   1.887   0.746   2.383  0.0319  1.8439  0.3836
 6714TIP3   OH241556   0.304   4.673  13.084  0.2086  0.2103 -0.1475
 6714TIP3    H141557   0.396   4.671  13.059  0.7679  0.7718  1.6875
 6714TIP3    H241558   0.268   4.747  13.035  1.2877  1.3496  0.6831
 6715TIP3   OH241559   3.889   4.573  13.407 -0.1976 -0.6425 -0.2200
 6715TIP3    H141560   3.931   4.578  13.321  0.7388 -1.5261  0.1606
 6715TIP3    H241561   3.801   4.538  13.389 -0.2817 -0.1105 -0.8835
 6716TIP3   OH241562   5.250   2.063  17.219  0.3085  0.1506  0.3883
 6716TIP3    H141563   5.290   1.999  17.160 -0.2078  0.2088 -0.0340
 6716TIP3    H241564   5.182   2.105  17.166  0.9728  1.4015  0.5048
 6717TIP3   OH241565   5.835   5.451  14.027  0.2439  0.0503  0.3652
 6717TIP3    H141566   5.748   5.438  14.065 -0.1728  0.5032 -0.3997
 6717TIP3    H241567   5.870   5.527  14.073 -0.0870  0.3413  0.1444
 6718TIP3   OH241568   5.285   0.815   2.532 -0.1053  0.1856 -0.0746
 6718TIP3    H141569   5.319   0.730   2.508 -0.9936 -0.0937 -0.3832
 6718TIP3    H241570   5.200   0.821   2.488  0.2260  1.4927 -0.5775
 6719TIP3   OH241571   1.317   4.367  11.729 -0.0818  0.5465  0.2442
 6719TIP3    H141572   1.225   4.350  11.746 -0.0035  0.4618  0.5816
 6719TIP3    H241573   1.319   4.396  11.638 -0.4731  0.8313  0.3227
 6720TIP3   OH241574   3.258   1.566   1.902 -0.0723 -0.1325 -0.0596
 6720TIP3    H141575   3.275   1.472   1.897 -0.1264 -0.1733  0.4859
 6720TIP3    H241576   3.163   1.573   1.907 -0.1109 -0.0102 -0.7669
 6721TIP3   OH241577   1.820   0.526  15.471 -0.2419 -0.0826 -0.3008
 6721TIP3    H141578   1.891   0.587  15.452  0.5281 -0.6694  0.6263
 6721TIP3    H241579   1.748   0.555  15.415  0.8357  0.2894 -1.5403
 6722TIP3   OH241580   5.106   0.829   3.154  0.3605  0.4850  0.2952
 6722TIP3    H141581   5.137   0.895   3.092  0.1728  0.4156  0.1224
 6722TIP3    H241582   5.084   0.753   3.098  0.2219  0.4103  0.4499
 6723TIP3   OH241583   5.025   5.906   0.120  0.0256 -0.0668  0.0276
 6723TIP3    H141584   4.963   5.972   0.152 -0.8866 -1.2555  0.7826
 6723TIP3    H241585   5.103   5.957   0.096 -0.5938  1.2753  0.7181
 6724TIP3   OH241586   5.603   2.011   4.894 -0.2686  0.3043  0.0819
 6724TIP3    H141587   5.661   2.084   4.919 -0.5927  0.4553  0.3899
 6724TIP3    H241588   5.586   2.026   4.801 -2.4434  2.1230  0.6964
 6725TIP3   OH241589   4.694   5.571   3.478  0.1238 -0.6436  0.3824
 6725TIP3    H141590   4.756   5.644   3.471 -0.7999  0.2663  1.3769
 6725TIP3    H241591   4.647   5.588   3.559 -0.9672 -1.6839 -0.0210
 6726TIP3   OH241592   1.422   3.287   5.446  0.4214 -0.1539 -0.0691
 6726TIP3    H141593   1.484   3.357   5.464 -0.6917  0.6632  0.7408
 6726TIP3    H241594   1.422   3.234   5.526  1.6551 -1.4338 -0.8705
 6727TIP3   OH241595   2.215   5.717  16.882 -0.0290  0.2612  0.0529
 6727TIP3    H141596   2.175   5.746  16.800 -1.2492 -1.8854 -0.1803
 6727TIP3    H241597   2.151   5.739  16.949 -0.0290 -0.0065  0.1421
 6728TIP3   OH241598   6.428   1.853  16.274  0.2951  0.1302  0.2271
 6728TIP3    H141599   6.400   1.923  16.215 -1.8347 -1.7856 -1.1809
 6728TIP3    H241600   6.515   1.829  16.242  0.6751  1.4852  0.1606
 6729TIP3   OH241601   1.901   1.318   2.846 -0.6070 -0.7244  0.3544
 6729TIP3    H141602   1.902   1.222   2.845 -1.8679 -0.7534 -0.5496
 6729TIP3    H241603   1.946   1.343   2.765 -0.0416 -0.5421  0.7232
 6730TIP3   OH241604   4.127   3.978   2.712  0.3561 -0.0819  0.1142
 6730TIP3    H141605   4.141   4.072   2.710 -0.0548 -0.0285 -2.1729
 6730TIP3    H241606   4.033   3.967   2.726  0.4165 -0.1593  0.4666
 6731TIP3   OH241607   4.196   2.510  16.675  0.5797 -0.2589 -0.1649
 6731TIP3    H141608   4.290   2.527  16.668  1.1345 -0.7704  3.7530
 6731TIP3    H241609   4.173   2.536  16.764 -3.0531 -0.1732 -0.9591
 6732TIP3   OH241610   6.174   6.477   0.231  0.0092  0.0478 -0.1011
 6732TIP3    H141611   6.244   6.444   0.175  1.1865  0.6553  0.9587
 6732TIP3    H241612   6.098   6.483   0.173  0.9013 -0.3555 -1.3594
 6733TIP3   OH241613   0.676   2.703   0.782  0.7413  1.0041  0.5590
 6733TIP3    H141614   0.631   2.695   0.866  0.4760  0.3890  0.3686
 6733TIP3    H241615   0.638   2.633   0.728  1.5841  0.7716  0.2425
 6734TIP3   OH241616   3.031   3.337  15.827 -0.4083  0.1674 -0.3492
 6734TIP3    H141617   2.964   3.390  15.785  0.5095  1.5408 -0.1568
 6734TIP3    H241618   3.023   3.358  15.920 -0.0027  0.0065 -0.2756
 6735TIP3   OH241619   5.353   2.909  12.960 -0.1171  0.3464 -0.5345
 6735TIP3    H141620   5.346   2.983  12.900 -1.2947  2.0644  1.6105
 6735TIP3    H241621   5.446   2.886  12.959  0.2540  1.8016 -1.3068
 6736TIP3   OH241622   5.922   5.026   0.244 -0.3742 -1.1649 -0.7004
 6736TIP3    H141623   5.996   5.032   0.184 -0.5282 -0.3212 -0.8166
 6736TIP3    H241624   5.961   5.001   0.328  0.4191  1.5837 -0.1335
 6737TIP3   OH241625   2.434   5.004   3.155  0.1904  0.0706  0.4446
 6737TIP3    H141626   2.467   4.939   3.093  0.3539  0.3399  0.2488
 6737TIP3    H241627   2.513   5.049   3.186 -0.0059  0.9423 -0.2695
 6738TIP3   OH241628   6.692   2.727   0.836 -0.2516 -0.4402 -0.1249
 6738TIP3    H141629   6.639   2.718   0.915 -1.3969  0.6846 -0.7287
 6738TIP3    H241630   6.765   2.782   0.863 -0.6987  0.0358  0.1347
 6739TIP3   OH241631   1.615   5.938   2.964 -0.6983 -0.2837 -0.2843
 6739TIP3    H141632   1.663   5.938   2.881  0.1164 -1.3758  0.1599
 6739TIP3    H241633   1.582   6.027   2.972  1.4459  0.6067 -0.5260
 6740TIP3   OH241634   5.951   2.800   2.636  0.4002 -0.7745  0.4344
 6740TIP3    H141635   5.985   2.843   2.715  0.3715  1.1033 -0.5241
 6740TIP3    H241636   6.016   2.817   2.569 -1.3389  1.0429 -0.9023
 6741TIP3   OH241637   3.567   5.513   4.214  0.0701  0.1138 -0.6491
 6741TIP3    H141638   3.613   5.475   4.139 -0.3163 -1.4668 -0.1363
 6741TIP3    H241639   3.489   5.458   4.224  0.1444  0.2560  0.9373
 6742TIP3   OH241640   6.626   0.161   0.860 -0.5203 -0.8088  0.3412
 6742TIP3    H141641   6.718   0.185   0.860 -0.2410 -1.8111 -0.0486
 6742TIP3    H241642   6.604   0.149   0.767 -1.3507  0.4946  0.3397
 6743TIP3   OH241643   5.081   6.464   6.010  0.2832  0.2026 -0.6241
 6743TIP3    H141644   5.071   6.451   6.104 -1.8652  0.1614 -0.8139
 6743TIP3    H241645   5.140   6.394   5.982  0.0833 -0.4453  0.5256
 6744TIP3   OH241646   5.679   6.367  10.549 -0.0244  0.1619  1.1384
 6744TIP3    H141647   5.603   6.317  10.579  0.6946 -0.0193  2.7463
 6744TIP3    H241648   5.674   6.449  10.597  0.5223  0.3503  0.8806
 6745TIP3   OH241649   3.402   4.850   5.256  0.5326 -0.0127 -0.5790
 6745TIP3    H141650   3.390   4.878   5.347 -0.6771  1.8789 -1.2731
 6745TIP3    H241651   3.406   4.754   5.261 -1.4232 -0.0834  1.3064
 6746TIP3   OH241652   5.023   5.934   2.934  0.0419 -0.4396  0.3403
 6746TIP3    H141653   4.975   6.017   2.935 -0.3509 -0.5542 -2.1044
 6746TIP3    H241654   4.969   5.875   2.987 -0.5228  0.4335  0.7699
 6747TIP3   OH241655   2.500   4.770   2.286  0.5778  0.3017  0.5027
 6747TIP3    H141656   2.412   4.793   2.256  0.7075  0.6021  0.3476
 6747TIP3    H241657   2.500   4.674   2.289 -0.1234  0.3281  1.6329
 6748TIP3   OH241658   3.148   4.995  11.207  0.2208 -0.8580  0.0028
 6748TIP3    H141659   3.176   5.058  11.140  0.9000 -0.8297  0.2996
 6748TIP3    H241660   3.190   5.027  11.288 -1.8907  0.0540  0.8122
 6749TIP3   OH241661   2.118   0.365   0.426  0.4767  0.1295 -0.3221
 6749TIP3    H141662   2.114   0.453   0.388  1.4082 -0.7908 -2.7052
 6749TIP3    H241663   2.071   0.373   0.509  0.9915  2.9889 -0.2185
 6750TIP3   OH241664   3.568   2.891   0.352 -0.4024 -0.2921  0.0909
 6750TIP3    H141665   3.568   2.977   0.310 -3.4284 -0.3320 -0.2084
 6750TIP3    H241666   3.589   2.830   0.282 -1.1426 -0.0165 -0.3747
 6751TIP3   OH241667   4.407   5.469   5.623  0.9720  0.3566 -0.0220
 6751TIP3    H141668   4.376   5.379   5.612  0.8438  0.5301 -1.1787
 6751TIP3    H241669   4.497   5.468   5.591  0.8203  0.7415 -0.4648
 6752TIP3   OH241670   1.170   6.668   1.011  0.4990 -0.3842 -0.4757
 6752TIP3    H141671   1.130   6.703   1.091 -2.0732 -2.0012 -0.9439
 6752TIP3    H241672   1.099   6.668   0.946  1.9363 -1.1245 -2.1316
 6753TIP3   OH241673   1.683   5.937   4.381  0.2912  0.3310  1.0905
 6753TIP3    H141674   1.607   5.986   4.350  1.2933  1.1855 -0.1258
 6753TIP3    H241675   1.701   5.972   4.468 -1.2912 -0.6050  1.8356
 6754TIP3   OH241676   0.110   6.307   2.246  0.2247  0.1773  0.0096
 6754TIP3    H141677   0.052   6.244   2.203 -1.0158 -0.1516  2.0127
 6754TIP3    H241678   0.053   6.353   2.308  1.3774  2.3969 -0.4909
 6755TIP3   OH241679   0.058   2.229  16.374  0.4248 -0.1062  0.1782
 6755TIP3    H141680   0.131   2.228  16.312  2.6323 -3.9779  2.4464
 6755TIP3    H241681  -0.007   2.170  16.336 -0.7127  1.6991 -0.8295
 6756TIP3   OH241682   2.815   4.093   0.366  0.2586 -0.3188  0.3412
 6756TIP3    H141683   2.852   4.176   0.338 -0.5382 -0.3165 -0.7653
 6756TIP3    H241684   2.818   4.037   0.288 -0.8332 -0.7410  0.5826
 6757TIP3   OH241685   5.460   0.364  13.921 -0.3366  0.4941 -0.2151
 6757TIP3    H141686   5.419   0.352  14.007 -2.4585  0.9342 -1.1000
 6757TIP3    H241687   5.487   0.456  13.919  0.5219  0.2653  0.2780
 6758TIP3   OH241688   4.793   2.672   5.480  0.7232 -0.0315  0.3606
 6758TIP3    H141689   4.846   2.693   5.403 -0.6714  2.0413 -0.1167
 6758TIP3    H241690   4.791   2.576   5.482  1.0538 -0.1478 -2.0223
 6759TIP3   OH241691   4.805   3.456  12.802  0.2327  0.3723 -0.6222
 6759TIP3    H141692   4.755   3.536  12.790  1.1191  0.9821 -0.3394
 6759TIP3    H241693   4.756   3.407  12.869 -0.0529  0.8903 -0.4468
 6760TIP3   OH241694   0.226   2.402   1.905 -0.6366 -0.6951 -0.1652
 6760TIP3    H141695   0.138   2.435   1.888  0.1352  1.3097 -0.5403
 6760TIP3    H241696   0.225   2.376   1.998 -0.9518  1.7384  0.5788
 6761TIP3   OH241697   0.290   1.808  11.121  0.5303 -0.4591 -0.0147
 6761TIP3    H141698   0.224   1.874  11.140  2.5222  1.7704 -0.3041
 6761TIP3    H241699   0.308   1.818  11.027  2.1093 -0.1147  0.2895
 6762TIP3   OH241700   6.682   2.467   1.558 -0.3996 -0.1222  0.1780
 6762TIP3    H141701   6.715   2.408   1.490 -0.7856  1.0234 -1.0272
 6762TIP3    H241702   6.758   2.519   1.583 -0.3075 -0.4031  0.4983
 6763TIP3   OH241703   2.520   2.972   0.796 -0.5736 -0.3325  0.0068
 6763TIP3    H141704   2.614   2.967   0.782 -0.6699 -0.5241 -0.6157
 6763TIP3    H241705   2.489   2.882   0.781 -0.9772 -0.0726 -0.7716
 6764TIP3   OH241706   5.074   3.312   3.415 -0.4304  0.3103 -0.4199
 6764TIP3    H141707   4.991   3.342   3.453  0.3466  2.1752 -0.1297
 6764TIP3    H241708   5.047   3.263   3.337 -1.9176 -1.3374  1.0307
 6765TIP3   OH241709   5.398   0.575  14.834 -0.2824  0.2977  0.0014
 6765TIP3    H141710   5.383   0.482  14.821  2.2715 -0.2710  0.5866
 6765TIP3    H241711   5.429   0.582  14.924 -2.2618  2.0218  0.6342
 6766TIP3   OH241712   3.588   5.450  14.692  0.7248 -0.2834  0.3646
 6766TIP3    H141713   3.588   5.358  14.717  1.0671 -0.0217  1.3557
 6766TIP3    H241714   3.557   5.497  14.769 -0.9265  0.3329 -0.6122
 6767TIP3   OH241715   1.377   5.919   3.676  0.2170  0.6346 -0.1576
 6767TIP3    H141716   1.371   5.871   3.594 -3.1362  1.6485 -0.6499
 6767TIP3    H241717   1.410   6.005   3.652  0.7649  0.4219 -0.1751
 6768TIP3   OH241718   5.825   1.900   3.705  0.5562  0.2173  0.7976
 6768TIP3    H141719   5.792   1.978   3.662  0.8133  0.2286  0.6212
 6768TIP3    H241720   5.755   1.874   3.765 -0.3527 -0.5527 -0.5499
 6769TIP3   OH241721   2.289   0.925  13.684 -0.1257  0.2624 -0.1739
 6769TIP3    H141722   2.302   1.006  13.734 -0.6634  0.0095  0.3797
 6769TIP3    H241723   2.274   0.857  13.750  1.1898 -0.4651 -0.6007
 6770TIP3   OH241724   4.160   5.617  11.762  0.3377  0.0906 -0.0821
 6770TIP3    H141725   4.177   5.699  11.715  0.9116  0.0591  0.0583
 6770TIP3    H241726   4.248   5.582  11.780  0.1607  0.3876  1.5137
 6771TIP3   OH241727   3.588   4.278  16.581 -0.3675  0.4482  0.7999
 6771TIP3    H141728   3.617   4.345  16.518  0.7892  0.3738  1.2330
 6771TIP3    H241729   3.663   4.265  16.639  0.0665 -2.4281 -0.2388
 6772TIP3   OH241730   0.044   5.174  17.130  0.3940  0.7237 -0.3713
 6772TIP3    H141731   0.004   5.122  17.060 -1.0364  2.4799 -0.9459
 6772TIP3    H241732   0.137   5.152  17.125 -0.1620 -1.9795 -0.3332
 6773TIP3   OH241733   5.630   4.303  14.084  0.2843  0.4957 -0.1475
 6773TIP3    H141734   5.625   4.399  14.087  0.5045  0.4972  0.2681
 6773TIP3    H241735   5.546   4.276  14.047 -0.2019  0.8103  0.6764
 6774TIP3   OH241736   2.460   6.369   0.648  0.1302 -0.2186  0.5303
 6774TIP3    H141737   2.541   6.412   0.674  0.5620 -0.9047  0.3462
 6774TIP3    H241738   2.478   6.335   0.560 -0.8172  0.8036 -0.0827
 6775TIP3   OH241739   3.893   1.868   0.786  0.2939 -0.5245  0.4373
 6775TIP3    H141740   3.938   1.920   0.720 -1.4476  1.0451  0.3978
 6775TIP3    H241741   3.902   1.919   0.867 -0.6819 -0.5897  0.5956
 6776TIP3   OH241742   5.255   2.947  16.502 -0.4651 -0.2621  0.4703
 6776TIP3    H141743   5.292   2.862  16.525  0.6281 -0.3786 -1.5420
 6776TIP3    H241744   5.328   3.009  16.512 -0.8890  0.2181  0.6308
 6777TIP3   OH241745   6.208   6.332  16.557  0.5336  0.0838 -0.7911
 6777TIP3    H141746   6.194   6.364  16.468 -0.2911  0.5759 -0.4920
 6777TIP3    H241747   6.124   6.295  16.583  0.9167 -0.5359 -0.3990
 6778TIP3   OH241748   2.161   1.479   2.330 -0.0358  0.2356  0.2016
 6778TIP3    H141749   2.251   1.458   2.354 -0.5700 -0.0520  2.0487
 6778TIP3    H241750   2.109   1.461   2.408 -1.8598 -0.5498 -1.0938
 6779TIP3   OH241751   1.125   3.298  13.594  0.1557 -0.1160  0.3208
 6779TIP3    H141752   1.160   3.380  13.560 -0.6963  0.1266  0.0019
 6779TIP3    H241753   1.089   3.253  13.518 -0.0878 -0.4235  0.6119
 6780TIP3   OH241754   2.873   2.047  16.229 -0.7396  0.2006 -0.1427
 6780TIP3    H141755   2.873   2.011  16.141  0.6794  1.2997 -0.6476
 6780TIP3    H241756   2.887   2.141  16.216  2.7511  0.0535  1.2721
 6781TIP3   OH241757   0.099   0.687  13.166 -0.0190  0.0692 -0.3119
 6781TIP3    H141758   0.073   0.725  13.250 -0.5913  0.9953 -0.8891
 6781TIP3    H241759   0.016   0.658  13.127  0.1754  0.1506 -0.7912
 6782TIP3   OH241760   1.127   3.326  12.597  0.1878  0.0551  0.1181
 6782TIP3    H141761   1.105   3.241  12.634 -1.4591  0.8697  1.1009
 6782TIP3    H241762   1.072   3.388  12.644  1.7789  1.7598 -0.1634
 6783TIP3   OH241763   1.676   5.539   0.180 -0.0437  0.3323  0.0909
 6783TIP3    H141764   1.749   5.479   0.168 -0.5082 -0.0223 -1.1881
 6783TIP3    H241765   1.687   5.604   0.110 -0.4002  0.8543  0.5108
 6784TIP3   OH241766   0.925   0.075   4.109  0.9973 -0.2022 -0.2843
 6784TIP3    H141767   0.865   0.132   4.061  0.8286 -0.9984 -1.0504
 6784TIP3    H241768   0.897   0.082   4.200 -0.2485 -0.5113 -0.6154
 6785TIP3   OH241769   5.853   1.313  13.637  0.4929  0.5450  0.8409
 6785TIP3    H141770   5.774   1.271  13.671  0.0017 -0.0104 -0.8920
 6785TIP3    H241771   5.924   1.253  13.659  0.1080 -0.0819  0.4130
 6786TIP3   OH241772   4.018   5.807   3.875  0.4902 -0.1479  0.2164
 6786TIP3    H141773   3.959   5.881   3.867  0.5496  0.3323  3.3043
 6786TIP3    H241774   3.965   5.731   3.851 -0.5164  0.5605  0.1534
 6787TIP3   OH241775   4.125   1.996   2.164  0.1357 -0.1038  0.1167
 6787TIP3    H141776   4.081   1.980   2.081  1.7628 -1.0603 -0.6045
 6787TIP3    H241777   4.151   2.088   2.160 -0.9418  0.2143  0.1550
 6788TIP3   OH241778   5.211   3.796   4.855 -0.1010 -0.1040 -0.0559
 6788TIP3    H141779   5.139   3.823   4.797  0.1797  3.5005  1.0773
 6788TIP3    H241780   5.288   3.797   4.799 -0.5273 -1.7593 -0.7410
 6789TIP3   OH241781   0.940   4.444   2.967 -0.0746  0.4653 -0.2727
 6789TIP3    H141782   0.986   4.444   3.051  0.3747 -1.5436 -0.4657
 6789TIP3    H241783   0.847   4.449   2.990  0.0308 -0.3852  0.3835
 6790TIP3   OH241784   2.176   5.664  11.564 -1.3027 -0.3055 -0.0894
 6790TIP3    H141785   2.158   5.640  11.473 -0.2978  0.0426 -0.3930
 6790TIP3    H241786   2.270   5.682  11.566 -1.2456 -0.6692  1.1097
 6791TIP3   OH241787   5.187   6.285   4.087 -0.2340  0.5172 -0.2754
 6791TIP3    H141788   5.240   6.361   4.107 -0.4521  0.8515 -0.9564
 6791TIP3    H241789   5.118   6.285   4.155  1.5693 -0.9100  1.7064
 6792TIP3   OH241790   1.940   6.737   3.345  0.2978 -0.0195  0.2596
 6792TIP3    H141791   1.890   6.809   3.384 -1.2352  0.7995 -2.7954
 6792TIP3    H241792   1.897   6.658   3.377 -0.2239  0.5487  0.9947
 6793TIP3   OH241793   4.631   2.192   0.305 -0.4620 -0.0296 -0.5269
 6793TIP3    H141794   4.658   2.179   0.214  0.1813 -0.9160 -0.2179
 6793TIP3    H241795   4.710   2.178   0.357 -1.0053 -0.4149  0.2279
 6794TIP3   OH241796   6.476   5.666  16.134  0.2679  0.2272  0.3821
 6794TIP3    H141797   6.535   5.695  16.064  0.5626 -0.6138  0.2661
 6794TIP3    H241798   6.495   5.573  16.144  0.0394  0.2770  1.4056
 6795TIP3   OH241799   1.979   6.735  13.084 -0.2858 -0.0667 -0.0289
 6795TIP3    H141800   2.024   6.682  13.018 -0.2940 -0.2555  0.1147
 6795TIP3    H241801   1.942   6.670  13.145  0.6776  0.1233  0.7910
 6796TIP3   OH241802   5.036   4.886  11.146 -0.2563 -0.3955  0.4598
 6796TIP3    H141803   5.002   4.798  11.130 -1.4192  0.1022  0.1016
 6796TIP3    H241804   5.114   4.892  11.091  0.0400 -1.3157  0.7607
 6797TIP3   OH241805   4.606   0.167  10.336  0.2577 -0.3627 -0.5111
 6797TIP3    H141806   4.585   0.218  10.258 -1.2969 -0.8870 -0.4661
 6797TIP3    H241807   4.584   0.226  10.409 -0.2435 -0.6073 -0.4636
 6798TIP3   OH241808   1.938   1.437   3.236  0.4312  0.0442 -0.1074
 6798TIP3    H141809   2.012   1.418   3.294  0.6718  1.9609  0.2833
 6798TIP3    H241810   1.869   1.469   3.294  0.0975  0.4126 -0.6978
 6799TIP3   OH241811   6.287   2.480  12.245 -0.0877  0.0459 -0.1899
 6799TIP3    H141812   6.229   2.431  12.186  0.8010  0.6641 -1.6310
 6799TIP3    H241813   6.257   2.571  12.239 -1.3030 -0.1396  1.9600
 6800TIP3   OH241814   5.498   6.213   4.423 -0.5396 -0.4630 -0.0901
 6800TIP3    H141815   5.460   6.300   4.436  0.2554 -0.1674  0.3143
 6800TIP3    H241816   5.586   6.231   4.389 -0.0856 -1.0911  0.7359
 6801TIP3   OH241817   5.394   5.721   5.283  0.0208 -0.2399 -0.9277
 6801TIP3    H141818   5.427   5.731   5.372  2.0008 -0.2738 -1.6015
 6801TIP3    H241819   5.358   5.633   5.280 -1.7499  0.3832  0.3044
 6802TIP3   OH241820   1.604   3.395   4.693 -0.0100  0.4124  0.9188
 6802TIP3    H141821   1.637   3.448   4.765 -0.9704  1.2498  0.7551
 6802TIP3    H241822   1.682   3.373   4.641  0.4413  1.3647  1.1802
 6803TIP3   OH241823   5.662   4.092   4.690  0.0200  0.1522  0.2595
 6803TIP3    H141824   5.756   4.077   4.674  0.0959 -0.0032  0.8248
 6803TIP3    H241825   5.640   4.168   4.637  0.2075 -0.4790 -0.7523
 6804TIP3   OH241826   4.462   5.675   4.751 -0.3046 -0.0307 -0.4326
 6804TIP3    H141827   4.511   5.677   4.833  1.4372 -0.5417 -1.4298
 6804TIP3    H241828   4.457   5.766   4.723 -0.1635  0.0461 -0.2054
 6805TIP3   OH241829   0.820   4.923  16.576 -0.0051 -0.0890 -0.2912
 6805TIP3    H141830   0.898   4.977  16.580  0.4531 -0.6966 -0.7089
 6805TIP3    H241831   0.747   4.984  16.585  0.5251  0.3423  1.4138
 6806TIP3   OH241832   1.034   1.920   4.411 -0.0202  0.2310 -0.2566
 6806TIP3    H141833   0.983   1.949   4.335 -1.2590  0.7202  0.7116
 6806TIP3    H241834   0.981   1.948   4.487 -0.1498 -2.5501  0.7711
 6807TIP3   OH241835   6.325   5.523  11.593 -0.2173 -0.0147 -0.3275
 6807TIP3    H141836   6.247   5.515  11.538  0.6002  0.5905 -1.6507
 6807TIP3    H241837   6.355   5.613  11.580  2.1150 -0.9154 -1.9637
 6808TIP3   OH241838   6.171   1.434   0.572  0.2456  0.1312 -0.0879
 6808TIP3    H141839   6.260   1.409   0.595 -0.3372  0.1256  2.4239
 6808TIP3    H241840   6.155   1.392   0.487  1.9681 -1.4294  0.3110
 6809TIP3   OH241841   3.453   1.426  14.047 -0.1749 -0.0059  0.1940
 6809TIP3    H141842   3.445   1.385  14.133  1.1469 -0.9813 -0.1190
 6809TIP3    H241843   3.448   1.353  13.985 -0.5284  0.6238 -0.5322
 6810TIP3   OH241844   1.118   4.721   2.011 -0.0836 -0.2143  0.3676
 6810TIP3    H141845   1.060   4.770   1.954  0.0669  0.6998  0.9849
 6810TIP3    H241846   1.131   4.637   1.966 -1.4493 -0.2345 -0.0193
 6811TIP3   OH241847   2.941   2.346   1.697 -0.1687 -0.3453 -0.0617
 6811TIP3    H141848   2.958   2.390   1.780  0.4193 -1.0690  0.2045
 6811TIP3    H241849   2.995   2.393   1.633 -1.5457  1.0068 -0.2957
 6812TIP3   OH241850   0.169   1.167  13.986 -0.4120  0.2805  0.4480
 6812TIP3    H141851   0.109   1.155  14.060 -0.4488  1.0750  0.5534
 6812TIP3    H241852   0.147   1.253  13.951  0.4548  0.4426  0.2871
 6813TIP3   OH241853   1.439   2.986  12.629  0.0099  0.1101 -0.0672
 6813TIP3    H141854   1.507   3.051  12.612 -0.8287  0.8570 -0.6563
 6813TIP3    H241855   1.410   2.959  12.542 -0.6693  0.0381  0.1777
 6814TIP3   OH241856   6.688   4.768   3.639  0.4709 -0.2860  0.2795
 6814TIP3    H141857   6.725   4.796   3.555  1.4640 -1.6981  0.2198
 6814TIP3    H241858   6.746   4.807   3.704 -0.1939  0.6583  0.3270
 6815TIP3   OH241859   1.088   2.208  12.258 -0.2411 -0.3698 -0.2342
 6815TIP3    H141860   1.183   2.195  12.253 -0.3101 -0.9527 -0.1148
 6815TIP3    H241861   1.051   2.128  12.223 -0.7148  0.5504 -1.9520
 6816TIP3   OH241862   1.146   4.565   1.261  0.0925 -0.3061  0.0878
 6816TIP3    H141863   1.223   4.603   1.304  0.7189 -0.1739 -1.1158
 6816TIP3    H241864   1.172   4.556   1.170  0.3420 -4.3778  0.3669
 6817TIP3   OH241865   6.233   2.055   5.677 -0.1168  0.0358 -0.5037
 6817TIP3    H141866   6.212   1.962   5.667 -2.4902  0.5246 -0.7042
 6817TIP3    H241867   6.297   2.073   5.608  3.2595 -2.1597  1.7545
 6818TIP3   OH241868   0.877   0.828  15.307  0.1890  0.1344  0.1053
 6818TIP3    H141869   0.887   0.897  15.241  1.5704  0.5545  0.7003
 6818TIP3    H241870   0.786   0.800  15.300 -0.0590  1.1458 -1.0112
 6819TIP3   OH241871   0.904   0.358   0.723  0.1798 -0.0758 -0.2953
 6819TIP3    H141872   0.818   0.338   0.684 -0.8707  2.4962  0.4301
 6819TIP3    H241873   0.963   0.363   0.648 -1.0953  1.4734 -1.2828
 6820TIP3   OH241874   0.528   6.786   6.728  0.1583 -0.0077  0.1838
 6820TIP3    H141875   0.532   6.711   6.669 -0.8097 -0.1829  0.3206
 6820TIP3    H241876   0.571   6.857   6.679  1.7132 -0.7984  0.3342
 6821TIP3   OH241877   6.551   2.447  16.198 -0.0878  0.0944  0.4424
 6821TIP3    H141878   6.499   2.393  16.256  1.5801  0.5060  2.4141
 6821TIP3    H241879   6.632   2.464  16.245 -0.1438  3.6028 -0.3849
 6822TIP3   OH241880   4.377   1.713   2.074  0.1052  0.9252  0.3249
 6822TIP3    H141881   4.357   1.647   2.141 -1.8289 -0.2120 -1.2538
 6822TIP3    H241882   4.372   1.796   2.121 -0.6467  0.1328  1.7283
 6823TIP3   OH241883   3.982   2.093  15.778 -0.2508 -0.2707 -0.1578
 6823TIP3    H141884   4.026   2.170  15.743 -1.4877  0.4709 -0.1271
 6823TIP3    H241885   3.901   2.086  15.727 -1.3315 -0.1066  1.4549
 6824TIP3   OH241886   6.041   6.474  15.737 -0.4096 -0.1077 -0.0593
 6824TIP3    H141887   6.078   6.472  15.649  1.1022 -0.1013  0.5578
 6824TIP3    H241888   6.103   6.525  15.789 -1.3679  0.0442  0.9894
 6825TIP3   OH241889   3.198   1.157   2.323  0.1088  0.2846  0.3546
 6825TIP3    H141890   3.231   1.102   2.252 -3.3408 -0.8944 -0.5540
 6825TIP3    H241891   3.215   1.246   2.294 -0.1621 -0.1992 -1.4190
 6826TIP3   OH241892   6.094   2.204  13.799  0.1701 -0.1334  0.5115
 6826TIP3    H141893   6.015   2.199  13.852  1.0014  0.5521  1.8634
 6826TIP3    H241894   6.079   2.277  13.739 -0.9198 -1.1366 -0.4820
 6827TIP3   OH241895   4.480   2.011   6.652 -0.1293 -0.3100  0.8280
 6827TIP3    H141896   4.553   2.052   6.700  0.7308  0.5150 -1.0885
 6827TIP3    H241897   4.514   1.926   6.626  0.1853  0.0983 -0.1167
 6828TIP3   OH241898   2.081   1.110   1.146  0.6906 -0.3681 -0.4189
 6828TIP3    H141899   1.987   1.118   1.160  0.8064 -2.1504  1.9488
 6828TIP3    H241900   2.093   1.127   1.052 -1.7616  1.3656 -0.5049
 6829TIP3   OH241901   6.572   1.799   2.197  0.6171  0.4921  0.0081
 6829TIP3    H141902   6.546   1.886   2.167  0.6646  0.4239 -0.2333
 6829TIP3    H241903   6.547   1.797   2.289 -1.3592 -0.0160 -0.5109
 6830TIP3   OH241904   3.335   0.915   3.245 -0.0022  0.3980  0.0911
 6830TIP3    H141905   3.310   0.925   3.337  1.0278  0.1382  0.4156
 6830TIP3    H241906   3.424   0.950   3.241 -0.7508  2.2600 -1.2382
 6831TIP3   OH241907   3.209   3.908  14.577 -0.1252  0.0781  0.4271
 6831TIP3    H141908   3.134   3.928  14.634  0.1025  0.5464  0.5714
 6831TIP3    H241909   3.225   3.989  14.529 -0.2447 -0.2835 -0.2316
 6832TIP3   OH241910   5.932   2.114   4.954 -0.3784 -0.2889  0.0374
 6832TIP3    H141911   5.901   2.166   4.880  0.7913 -0.2227 -0.4320
 6832TIP3    H241912   5.879   2.144   5.029 -0.2962  0.9797 -0.3964
 6833TIP3   OH241913   2.450   3.642   4.354 -0.1457  0.0960  0.0538
 6833TIP3    H141914   2.530   3.665   4.402  0.8658 -0.4113 -1.3057
 6833TIP3    H241915   2.394   3.600   4.419  0.8416  0.1436  0.9721
 6834TIP3   OH241916   2.594   3.909   5.743  0.0827 -0.1828 -0.0065
 6834TIP3    H141917   2.584   3.994   5.699  0.9809  0.5221  1.0999
 6834TIP3    H241918   2.537   3.850   5.694 -2.1207  1.4830  0.3654
 6835TIP3   OH241919   1.777   4.566  11.973 -0.2680  0.2457  0.6644
 6835TIP3    H141920   1.705   4.561  11.909 -0.6324 -1.2649  1.1545
 6835TIP3    H241921   1.843   4.621  11.930 -1.7888  1.9140  0.2995
 6836TIP3   OH241922   1.173   4.678   1.628 -0.0764 -0.2782 -0.1811
 6836TIP3    H141923   1.233   4.696   1.700  0.3692  0.3505 -0.7009
 6836TIP3    H241924   1.117   4.607   1.660 -1.2501  1.3528  1.5788
 6837TIP3   OH241925   5.864   6.271  15.831 -0.5166  0.1627 -0.0774
 6837TIP3    H141926   5.928   6.202  15.813 -0.3744  0.7862 -2.1417
 6837TIP3    H241927   5.908   6.352  15.808 -1.9418  0.6250 -1.3058
 6838TIP3   OH241928   5.710   0.364  13.438  0.3340  0.3314  0.6392
 6838TIP3    H141929   5.660   0.354  13.519  0.7209 -2.1333  0.6769
 6838TIP3    H241930   5.782   0.423  13.461  0.5761 -0.5071  2.1982
 6839TIP3   OH241931   5.115   3.520   2.157 -0.5261  0.4467 -0.3817
 6839TIP3    H141932   5.187   3.555   2.105 -0.2015  1.3225  0.6149
 6839TIP3    H241933   5.095   3.589   2.220 -0.3364 -0.8754  1.2086
 6840TIP3   OH241934   4.713   3.326   3.832 -0.1987  0.2663 -0.4621
 6840TIP3    H141935   4.681   3.310   3.743  0.7355  0.8799 -0.9291
 6840TIP3    H241936   4.639   3.364   3.878 -1.6171 -2.6328 -0.1170
 6841TIP3   OH241937   2.111   2.319   3.480  0.3082  0.1191 -0.3621
 6841TIP3    H141938   2.015   2.320   3.473  0.3707  2.4819 -1.9123
 6841TIP3    H241939   2.131   2.395   3.534  1.3260 -1.2200  1.2626
 6842TIP3   OH241940   0.354   3.981   6.380  0.4943 -0.2175 -0.1236
 6842TIP3    H141941   0.409   3.904   6.393  0.9765  0.0715 -0.4197
 6842TIP3    H241942   0.266   3.946   6.367  0.2456 -0.6111  2.2106
 6843TIP3   OH241943   0.525   1.364  13.449  0.2493 -0.1205 -0.1954
 6843TIP3    H141944   0.494   1.424  13.382  0.9881 -0.2094 -0.6242
 6843TIP3    H241945   0.486   1.397  13.530 -2.0483 -1.0021 -0.8630
 6844TIP3   OH241946   3.045   5.118   2.696 -0.1557 -0.2771 -0.0421
 6844TIP3    H141947   3.103   5.194   2.688 -1.1888  0.6257  0.7308
 6844TIP3    H241948   3.046   5.078   2.609  1.8905 -0.5215  0.0341
 6845TIP3   OH241949   2.416   1.823  11.848 -0.4174 -0.1501  0.0981
 6845TIP3    H141950   2.439   1.818  11.755 -2.5658  2.0258 -0.6478
 6845TIP3    H241951   2.472   1.893  11.882  1.4251 -1.9195  0.8750
 6846TIP3   OH241952   5.926   3.739   2.610 -0.0281  0.2381 -0.6125
 6846TIP3    H141953   5.885   3.691   2.682  0.7987  1.5632  0.8062
 6846TIP3    H241954   5.928   3.677   2.538 -1.1361 -1.0570  0.4138
 6847TIP3   OH241955   5.233   3.680   3.006 -0.5344 -0.2183  0.2996
 6847TIP3    H141956   5.147   3.680   2.964  0.1307 -1.9489 -1.1793
 6847TIP3    H241957   5.216   3.648   3.094 -1.6033  1.0345  0.5907
 6848TIP3   OH241958   4.176   2.967  14.201  0.4573 -0.4270 -0.2742
 6848TIP3    H141959   4.156   2.883  14.162 -2.8659  0.2089 -0.1999
 6848TIP3    H241960   4.182   3.028  14.127 -0.2116 -0.2051 -0.1496
 6849TIP3   OH241961   1.535   1.317  17.097 -0.1238 -0.2169  0.3450
 6849TIP3    H141962   1.476   1.301  17.023 -0.5419  1.9565  0.1272
 6849TIP3    H241963   1.609   1.364  17.057 -0.3993  1.0632  1.2943
 6850TIP3   OH241964   4.726   1.563   4.255  0.1198 -0.1046 -0.3656
 6850TIP3    H141965   4.681   1.542   4.173  1.1065  0.1679 -1.0017
 6850TIP3    H241966   4.813   1.593   4.227  0.5318 -0.1745  0.7957
 6851TIP3   OH241967   4.338   3.572   3.183  0.1547  0.3483 -0.2730
 6851TIP3    H141968   4.284   3.516   3.238 -0.2260  0.4386 -0.5533
 6851TIP3    H241969   4.322   3.541   3.093 -0.1376  0.9676 -0.4391
 6852TIP3   OH241970   5.132   4.178   3.244  0.6334  0.1397  0.3937
 6852TIP3    H141971   5.147   4.264   3.203 -0.6897  0.1965 -0.0323
 6852TIP3    H241972   5.124   4.196   3.337 -1.3909  0.7900  0.1545
 6853TIP3   OH241973   1.671   1.700   2.644  0.3681  0.3926  0.1604
 6853TIP3    H141974   1.656   1.618   2.598  2.2466  0.2544 -0.2574
 6853TIP3    H241975   1.713   1.757   2.580  1.5146  0.7607  1.1926
 6854TIP3   OH241976   2.596   5.793  13.343  0.5951 -0.0914  0.0377
 6854TIP3    H141977   2.517   5.804  13.290  0.2846 -0.0434  0.5003
 6854TIP3    H241978   2.668   5.808  13.282  0.4286 -4.0921 -1.4649
 6855TIP3   OH241979   5.937   3.086  15.984  0.3303  0.1621  0.3231
 6855TIP3    H141980   6.025   3.124  15.982 -0.5754  2.4311  0.4921
 6855TIP3    H241981   5.952   2.991  15.985  2.7291  0.4070 -1.8569
 6856TIP3   OH241982   1.079   3.533  16.202  0.6249 -0.4539 -0.3277
 6856TIP3    H141983   1.105   3.573  16.119  3.3385 -1.3696  0.0039
 6856TIP3    H241984   1.086   3.603  16.266 -3.3524  0.8196 -0.9709
 6857TIP3   OH241985   3.143   0.291  10.916 -0.1044 -0.3701  0.3461
 6857TIP3    H141986   3.060   0.265  10.877 -0.8607  2.3059 -0.0138
 6857TIP3    H241987   3.209   0.261  10.854 -1.0679  0.6043 -1.2209
 6858TIP3   OH241988   6.190   0.334  15.781 -0.0675  0.6111  0.1087
 6858TIP3    H141989   6.273   0.305  15.743 -0.6556 -0.5052 -0.3712
 6858TIP3    H241990   6.213   0.409  15.835  1.2215  0.4481 -0.1881
 6859TIP3   OH241991   6.661   0.361   3.518  0.6514  0.5113 -0.3765
 6859TIP3    H141992   6.643   0.381   3.426  0.9482 -0.5672 -0.6781
 6859TIP3    H241993   6.610   0.283   3.536  0.0348  1.1203  0.5950
 6860TIP3   OH241994   0.963   6.556   0.086 -0.8755  0.4790 -0.6589
 6860TIP3    H141995   0.888   6.498   0.103 -1.6632  1.5944 -0.2366
 6860TIP3    H241996   0.925   6.631   0.041  0.2979  0.2300 -2.1470
 6861TIP3   OH241997   5.040   4.055   0.844 -0.2376 -0.0768  0.3622
 6861TIP3    H141998   4.966   4.043   0.903  0.7036 -0.4051  1.5142
 6861TIP3    H241999   5.104   4.106   0.895 -0.6960  2.5745 -1.5104
 6862TIP3   OH242000   2.451   3.364   4.962 -0.1920 -0.2199  0.0246
 6862TIP3    H142001   2.462   3.270   4.950  0.7673 -0.4036  1.8992
 6862TIP3    H242002   2.431   3.398   4.875 -0.4975 -2.1415 -0.6911
 6863TIP3   OH242003   4.278   4.210   3.747  0.2931 -0.0990 -0.3364
 6863TIP3    H142004   4.246   4.121   3.760 -0.4913  0.3602  1.1881
 6863TIP3    H242005   4.257   4.255   3.829  0.2361  1.6136 -1.2327
 6864TIP3   OH242006   2.402   4.075   5.149  0.0512 -0.6168 -0.0163
 6864TIP3    H142007   2.406   4.068   5.053  0.2671 -0.7483  0.0029
 6864TIP3    H242008   2.330   4.137   5.165  1.0562  0.6851 -0.3150
 6865TIP3   OH242009   2.359   2.884  17.143  0.1040  0.7858  0.9218
 6865TIP3    H142010   2.366   2.788  17.150  1.3080  0.6644 -1.1144
 6865TIP3    H242011   2.428   2.917  17.199  0.6334  0.4042  0.5031
 6866TIP3   OH242012   3.416   2.250  14.711  0.2137  0.3065 -0.5603
 6866TIP3    H142013   3.336   2.300  14.693 -0.9919 -1.3566 -0.1148
 6866TIP3    H242014   3.460   2.245  14.627  0.2646  1.8793 -0.6656
 6867TIP3   OH242015   4.479   2.853  11.017  0.2071  0.1175  0.3631
 6867TIP3    H142016   4.394   2.889  11.041  0.6410  0.7786  0.9588
 6867TIP3    H242017   4.513   2.914  10.951  0.5862  0.3506  0.7663
 6868TIP3   OH242018   6.650   4.861  15.122 -0.0510 -0.4513  0.3833
 6868TIP3    H142019   6.557   4.840  15.131 -0.5351  1.3452 -0.0941
 6868TIP3    H242020   6.695   4.782  15.152 -1.7204 -1.5523  0.1245
 6869TIP3   OH242021   6.301   6.157   3.510  0.2396 -0.0402  0.6257
 6869TIP3    H142022   6.226   6.211   3.536  0.1602  0.2426 -0.1529
 6869TIP3    H242023   6.261   6.076   3.479  0.2144  0.3124 -0.2839
 6870TIP3   OH242024   0.033   3.544  14.417 -0.2161 -0.0668 -0.5580
 6870TIP3    H142025  -0.032   3.476  14.397 -0.6400 -0.0777  0.7302
 6870TIP3    H242026   0.115   3.510  14.381 -0.5666 -0.9251 -0.5801
 6871TIP3   OH242027   0.299   1.947   1.243  0.6694  0.6647  0.4272
 6871TIP3    H142028   0.339   1.919   1.325  1.2051 -0.0346 -0.0540
 6871TIP3    H242029   0.205   1.937   1.257  0.7379  0.8869  1.0686
 6872TIP3   OH242030   0.093   0.342   2.268 -0.0083  0.1534 -0.5074
 6872TIP3    H142031   0.182   0.374   2.253  0.0328  0.8554  1.0699
 6872TIP3    H242032   0.036   0.415   2.242 -0.2495 -0.8331 -2.9946
 6873TIP3   OH242033   2.340   6.401   2.533  0.4288  1.0447  0.0087
 6873TIP3    H142034   2.341   6.468   2.465  0.8436  0.6113 -0.4234
 6873TIP3    H242035   2.279   6.335   2.501 -0.9263  1.7622  0.9960
 6874TIP3   OH242036   6.445   6.637   3.885  0.0146 -0.1706  0.3334
 6874TIP3    H142037   6.405   6.724   3.884  1.5998  0.6044 -1.5714
 6874TIP3    H242038   6.374   6.579   3.912 -1.9175  1.3481 -1.1469
 6875TIP3   OH242039   5.941   4.855   5.867  0.1474 -0.3574  0.1649
 6875TIP3    H142040   5.895   4.784   5.912 -0.9858 -1.0078 -1.8643
 6875TIP3    H242041   5.901   4.935   5.900  1.5174 -0.5699  2.5736
 6876TIP3   OH242042   0.289   2.260   0.057 -0.3211  0.2470 -0.1615
 6876TIP3    H142043   0.226   2.299   0.118  0.5956  0.2320  0.8221
 6876TIP3    H242044   0.338   2.198   0.110 -0.4258 -0.7938 -1.2545
 6877TIP3   OH242045   5.963   0.660  11.233  0.5805  0.6771 -0.1589
 6877TIP3    H142046   5.951   0.658  11.138 -0.7401  0.6458 -0.0104
 6877TIP3    H242047   5.885   0.617  11.267  1.6658 -0.5504  0.9089
 6878TIP3   OH242048   6.338   0.471  13.709 -0.1845  0.0637  0.3480
 6878TIP3    H142049   6.300   0.541  13.762 -0.2025 -0.4259  0.9916
 6878TIP3    H242050   6.306   0.488  13.620 -0.5528  0.6122  0.5800
 6879TIP3   OH242051   5.624   5.155  13.342  0.3648  0.3026  0.2983
 6879TIP3    H142052   5.595   5.101  13.415  2.0001  0.5535  1.1682
 6879TIP3    H242053   5.684   5.218  13.380 -1.0296  2.4283 -0.7872
 6880TIP3   OH242054   6.776   5.739   1.181  0.2025 -0.1549 -0.2800
 6880TIP3    H142055   6.786   5.672   1.112  0.5487  0.2970 -0.6747
 6880TIP3    H242056   6.802   5.821   1.139 -2.4530  0.6634 -0.5221
 6881TIP3   OH242057   1.926   2.983  11.972 -0.1740 -0.2622  0.0471
 6881TIP3    H142058   1.959   3.011  12.057 -0.1046 -0.5794  0.1288
 6881TIP3    H242059   1.925   3.062  11.918  0.5117 -0.2021  0.1134
 6882TIP3   OH242060   6.451   4.826   3.803  0.0056 -0.2643  0.6789
 6882TIP3    H142061   6.525   4.832   3.743  0.3267  0.3842  1.1344
 6882TIP3    H242062   6.483   4.772   3.876  0.0353  0.0397  0.8894
 6883TIP3   OH242063   2.215   2.348   1.892 -0.5045 -0.0845  0.4613
 6883TIP3    H142064   2.241   2.391   1.974 -0.6885 -0.4926  0.7376
 6883TIP3    H242065   2.159   2.276   1.920 -2.8816  1.4084 -0.1568
 6884TIP3   OH242066   5.962   5.456   5.881  0.2493  0.2270 -0.5867
 6884TIP3    H142067   6.043   5.407   5.865  1.4199  1.6213  0.7991
 6884TIP3    H242068   5.900   5.418   5.820  1.1606 -2.7624  0.1503
 6885TIP3   OH242069   5.256   4.296  11.245  0.3983  0.5084  0.1493
 6885TIP3    H142070   5.248   4.207  11.281  0.8911  0.9246  1.3211
 6885TIP3    H242071   5.278   4.282  11.153 -1.1662 -0.5909 -0.1020
 6886TIP3   OH242072   3.781   5.317   3.118  0.1366  0.2132  0.7744
 6886TIP3    H142073   3.756   5.274   3.200  0.9261  1.4807  1.6965
 6886TIP3    H242074   3.698   5.352   3.084 -0.3950 -1.3214  0.3902
 6887TIP3   OH242075   2.088   0.896  12.854  0.0213  0.1451  0.2706
 6887TIP3    H142076   2.054   0.854  12.775 -0.8178  2.6926 -0.8255
 6887TIP3    H242077   2.012   0.942  12.891  0.8770  0.7160  1.3893
 6888TIP3   OH242078   6.137   5.752   4.050  0.0261  0.5285  0.1122
 6888TIP3    H142079   6.072   5.792   3.992  1.3726  3.5970  0.5092
 6888TIP3    H242080   6.103   5.769   4.138  0.7522  1.1068  0.2939
 6889TIP3   OH242081   3.146   6.356   1.225 -0.5166 -0.4373  0.3177
 6889TIP3    H142082   3.233   6.383   1.195 -1.7733  2.6227 -0.9550
 6889TIP3    H242083   3.148   6.369   1.320  0.2647  0.1580  0.2307
 6890TIP3   OH242084   5.802   0.437  11.514 -0.4306  0.2709  0.0029
 6890TIP3    H142085   5.774   0.478  11.432 -1.4054  0.2118  0.2873
 6890TIP3    H242086   5.738   0.368  11.529 -0.0930  0.0954  0.6705
 6891TIP3   OH242087   3.918   0.481  15.003 -0.8058  0.0047 -0.2919
 6891TIP3    H142088   3.888   0.528  14.925 -1.6388  0.8042  0.4937
 6891TIP3    H242089   3.908   0.389  14.979  1.0570  0.1530 -1.9325
 6892TIP3   OH242090   0.367   4.206   3.791 -0.0344 -0.3961 -0.2872
 6892TIP3    H142091   0.328   4.152   3.721  0.3163  0.7026 -1.3683
 6892TIP3    H242092   0.401   4.283   3.745  1.2103 -0.1644  0.9644
 6893TIP3   OH242093   1.558   2.651  16.431  0.5782  0.3842 -0.1545
 6893TIP3    H142094   1.588   2.716  16.495 -0.5776  0.6559  0.1264
 6893TIP3    H242095   1.463   2.651  16.439  0.5649 -3.3225  1.8239
 6894TIP3   OH242096   1.778   3.960   0.848  0.0011 -0.3152  0.2172
 6894TIP3    H142097   1.859   3.981   0.801 -0.1863  0.4434  0.2261
 6894TIP3    H242098   1.795   3.874   0.888  1.1076  0.2105  0.9066
 6895TIP3   OH242099   4.748   1.957  17.127 -0.3465 -0.3331 -0.1879
 6895TIP3    H142100   4.741   1.973  17.033 -2.6007 -0.7923 -0.1478
 6895TIP3    H242101   4.842   1.949  17.143  0.0173 -1.7915 -2.6555
 6896TIP3   OH242102   6.048   4.047   3.839 -0.1656  0.0918 -0.0264
 6896TIP3    H142103   6.061   4.093   3.922  0.8068 -1.1887  0.5714
 6896TIP3    H242104   6.114   4.084   3.780  0.3565 -0.2484  0.3366
 6897TIP3   OH242105   5.552   6.766  11.124  0.0013  0.4033 -0.7383
 6897TIP3    H142106   5.585   6.694  11.070 -0.8905 -0.6095  0.0148
 6897TIP3    H242107   5.457   6.759  11.117 -0.1729 -0.1594  1.4060
 6898TIP3   OH242108   2.017   2.502  11.396 -0.4799 -0.4738 -0.3795
 6898TIP3    H142109   1.982   2.417  11.369  1.3346 -1.3630 -0.0874
 6898TIP3    H242110   2.076   2.527  11.326 -0.2369  0.0770  0.0158
 6899TIP3   OH242111   4.666   0.028   0.688  0.5536 -0.4268 -0.5328
 6899TIP3    H142112   4.732   0.050   0.623 -0.1202  2.1381 -0.4578
 6899TIP3    H242113   4.714  -0.013   0.760  2.1199  1.6486 -0.3446
 6900TIP3   OH242114   3.784   2.414   4.521 -0.0589  0.1493  0.5584
 6900TIP3    H142115   3.832   2.492   4.549  1.0911  0.9050 -2.9731
 6900TIP3    H242116   3.847   2.342   4.531 -0.1287  0.1604  1.1086
 6901TIP3   OH242117   6.622   1.237  15.005 -0.3233  0.1443  0.2226
 6901TIP3    H142118   6.573   1.291  14.943 -1.9286 -0.1055  1.2089
 6901TIP3    H242119   6.670   1.301  15.059 -0.6168  0.4818  0.0884
 6902TIP3   OH242120   2.593   0.429  16.127 -0.1730  0.1198  0.0354
 6902TIP3    H142121   2.637   0.356  16.083 -1.6856 -0.4461 -0.6140
 6902TIP3    H242122   2.564   0.392  16.210 -0.9870 -0.0718 -0.3170
 6903TIP3   OH242123   1.653   1.874   1.703 -0.6823 -0.1891  0.4321
 6903TIP3    H142124   1.717   1.888   1.773 -0.7643  1.6329  0.1826
 6903TIP3    H242125   1.644   1.959   1.661 -1.3123 -1.0317 -1.2366
 6904TIP3   OH242126   2.826   2.869  14.576  0.4218  0.2653 -0.3485
 6904TIP3    H142127   2.787   2.875  14.663  0.3888  0.4992 -0.3783
 6904TIP3    H242128   2.865   2.782  14.573 -0.0293  0.0596 -0.2918
 6905TIP3   OH242129   4.861   1.134  12.484  0.6406 -0.2947  0.7648
 6905TIP3    H142130   4.796   1.121  12.416 -0.6947  0.8132  1.7679
 6905TIP3    H242131   4.826   1.087  12.560  2.6295 -2.4475  0.4739
 6906TIP3   OH242132   3.503   1.794   5.240 -0.4285  0.0474 -0.1715
 6906TIP3    H142133   3.541   1.882   5.238  0.1696 -0.2226 -1.7737
 6906TIP3    H242134   3.422   1.805   5.290 -1.7687  2.1237 -2.5378
 6907TIP3   OH242135   1.609   0.064   0.496  0.2163  0.0832  0.4443
 6907TIP3    H142136   1.635   0.133   0.435 -1.1683 -0.8951 -1.3728
 6907TIP3    H242137   1.685   0.005   0.498 -0.3519 -0.8970 -2.0052
 6908TIP3   OH242138   2.939   5.071  12.697 -0.0562 -0.0756 -0.0707
 6908TIP3    H142139   2.965   4.983  12.669  1.2393 -0.0483  0.9558
 6908TIP3    H242140   2.897   5.109  12.619  3.1816 -0.0725 -1.9924
 6909TIP3   OH242141   1.373   0.291  11.563  0.4294 -0.1558  0.2709
 6909TIP3    H142142   1.402   0.365  11.616 -0.1677 -0.6742  1.3662
 6909TIP3    H242143   1.399   0.313  11.474  0.2061  1.3974  0.5592
 6910TIP3   OH242144   3.289   6.686   4.879 -0.4152 -0.3307 -0.3466
 6910TIP3    H142145   3.233   6.652   4.810  2.1684 -0.4294 -2.5455
 6910TIP3    H242146   3.373   6.642   4.867  0.9170  1.5666  1.1989
 6911TIP3   OH242147   5.502   5.083  16.077  0.3034 -0.2555  0.4240
 6911TIP3    H142148   5.443   5.008  16.090 -0.2333  0.2703  1.0762
 6911TIP3    H242149   5.539   5.069  15.990 -0.3932 -0.8654  0.2119
 6912TIP3   OH242150   5.645   1.464   4.777  0.0393 -0.3980  0.4644
 6912TIP3    H142151   5.702   1.449   4.852 -0.9131 -2.4556  0.8409
 6912TIP3    H242152   5.590   1.539   4.803  0.5109 -0.3398  1.3264
 6913TIP3   OH242153   3.425   3.065  11.592 -0.3099 -0.1674  0.1038
 6913TIP3    H142154   3.355   3.005  11.615  0.7667 -1.0389  1.2206
 6913TIP3    H242155   3.444   3.046  11.500 -1.4467  0.0048 -0.1735
 6914TIP3   OH242156   2.302   0.554   1.686 -0.0658 -0.1211 -0.0308
 6914TIP3    H142157   2.322   0.594   1.771  0.4695  2.8861 -1.4501
 6914TIP3    H242158   2.207   0.564   1.677  0.1262  1.3820 -0.5866
 6915TIP3   OH242159   3.149   1.498   3.538  0.2099  0.0021 -0.3710
 6915TIP3    H142160   3.192   1.467   3.618  1.4592 -1.1878 -1.4462
 6915TIP3    H242161   3.195   1.580   3.516 -0.0750  0.2826  0.0736
 6916TIP3   OH242162   5.342   6.375   5.719 -0.1803  0.1645  1.2012
 6916TIP3    H142163   5.282   6.414   5.655  0.9632 -1.2952 -0.8880
 6916TIP3    H242164   5.419   6.431   5.716 -0.5148  0.7021  2.1513
 6917TIP3   OH242165   5.789   0.099   1.878  0.0304 -0.1526  0.3961
 6917TIP3    H142166   5.713   0.119   1.933 -1.7069 -0.2811 -1.7827
 6917TIP3    H242167   5.833   0.183   1.866  1.6598 -0.4171  3.4667
 6918TIP3   OH242168   4.305   6.713   1.200 -0.1554  0.4936  0.1932
 6918TIP3    H142169   4.292   6.660   1.121 -0.7821 -0.0390  0.6469
 6918TIP3    H242170   4.318   6.649   1.270  3.7166  0.8785  0.0767
 6919TIP3   OH242171   1.166   1.025  11.197  0.2444  0.2980 -0.2035
 6919TIP3    H142172   1.161   0.964  11.124 -0.1979  0.4788 -0.3256
 6919TIP3    H242173   1.083   1.014  11.243  0.0105  1.0641 -0.4346
 6920TIP3   OH242174   3.517   3.779   0.205  0.0309 -0.6101 -0.3025
 6920TIP3    H142175   3.592   3.723   0.226  0.9614  0.2728 -1.1995
 6920TIP3    H242176   3.541   3.822   0.123 -0.1822  1.8780  0.8290
 6921TIP3   OH242177   1.556   3.517   2.754  0.5945 -0.1627 -0.6646
 6921TIP3    H142178   1.473   3.564   2.745 -0.5823 -2.1187 -0.6039
 6921TIP3    H242179   1.533   3.436   2.799  2.6723 -0.4895 -0.0619
 6922TIP3   OH242180   1.254   1.361   2.561 -1.0949 -0.1390  0.2945
 6922TIP3    H142181   1.276   1.450   2.533 -0.1082 -0.8795 -1.5082
 6922TIP3    H242182   1.292   1.353   2.649  0.5662  0.6136 -0.3059
 6923TIP3   OH242183   5.632   0.008  16.129  0.2621 -0.0966  0.1766
 6923TIP3    H142184   5.556   0.065  16.123  0.4028  0.0265 -0.4727
 6923TIP3    H242185   5.599  -0.080  16.111  0.4665  0.1064 -1.2369
 6924TIP3   OH242186   2.389   2.301  15.361  0.0406 -0.1944 -0.2064
 6924TIP3    H142187   2.360   2.392  15.359 -1.2148 -0.5205  0.9340
 6924TIP3    H242188   2.434   2.288  15.278 -0.3787  1.2629 -0.6993
 6925TIP3   OH242189   2.295   3.706   0.586  0.4697  0.2911  0.2155
 6925TIP3    H142190   2.286   3.645   0.659  1.4421 -0.3207 -0.1683
 6925TIP3    H242191   2.356   3.664   0.526  1.2226  1.6710 -0.0223
 6926TIP3   OH242192   6.656   5.614   0.506 -0.8861  0.3326 -0.0067
 6926TIP3    H142193   6.662   5.552   0.578  0.6053 -1.5508 -1.6340
 6926TIP3    H242194   6.746   5.641   0.490 -0.9306 -0.5310 -2.0984
 6927TIP3   OH242195   4.501   6.458   2.201 -0.4589  0.2917  0.0884
 6927TIP3    H142196   4.564   6.525   2.227 -0.8972  0.6270  0.2883
 6927TIP3    H242197   4.494   6.468   2.106  0.5564 -0.4248 -0.0841
 6928TIP3   OH242198   2.972   5.293  10.576  0.2754  0.6168  0.2923
 6928TIP3    H142199   2.914   5.369  10.567  2.2167  1.9790 -2.2208
 6928TIP3    H242200   3.027   5.314  10.651 -1.6657 -0.2031  2.0379
 6929TIP3   OH242201   0.226   5.135  11.700  0.9162  0.4791  0.2010
 6929TIP3    H142202   0.159   5.196  11.732  0.7661 -0.1810  1.2086
 6929TIP3    H242203   0.306   5.160  11.747  0.8356 -0.1263  0.6788
 6930TIP3   OH242204   0.024   0.498  13.876 -0.0402  0.6049  0.5759
 6930TIP3    H142205  -0.047   0.463  13.822  2.5278 -2.5385 -1.1102
 6930TIP3    H242206   0.059   0.571  13.824 -0.0575  0.1175 -0.1374
 6931TIP3   OH242207   3.974   5.674  11.972 -0.0716 -0.0286  0.1097
 6931TIP3    H142208   4.068   5.654  11.980 -0.1946 -0.0043  2.1199
 6931TIP3    H242209   3.941   5.610  11.909  1.3226  0.0925 -0.7827
 6932TIP3   OH242210   2.824   5.418  14.959  0.7006  0.0033  0.4342
 6932TIP3    H142211   2.750   5.418  14.899  0.0697 -0.9148  1.1946
 6932TIP3    H242212   2.828   5.508  14.992  0.2028  0.1625  0.0639
 6933TIP3   OH242213   2.912   1.810  16.915 -0.4182  0.5081 -1.0091
 6933TIP3    H142214   2.841   1.866  16.884 -0.2529  0.5222 -1.3664
 6933TIP3    H242215   2.869   1.725  16.931 -0.6441  0.7008 -0.5798
 6934TIP3   OH242216   5.958   0.153  16.128  0.4245  0.1550  0.5399
 6934TIP3    H142217   6.023   0.153  16.058 -1.0600  2.3597 -0.9695
 6934TIP3    H242218   5.995   0.209  16.196 -0.4106  2.7120 -0.9799
 6935TIP3   OH242219   2.358   6.237  11.992 -0.1061 -0.3380 -0.0679
 6935TIP3    H142220   2.377   6.257  12.084  3.3827 -1.3722 -0.4428
 6935TIP3    H242221   2.323   6.319  11.957 -2.3567 -0.1465  2.2739
 6936TIP3   OH242222   5.620   4.618  10.834 -0.1141 -0.3032 -0.3365
 6936TIP3    H142223   5.552   4.552  10.838 -0.0667 -0.4884 -1.8786
 6936TIP3    H242224   5.588   4.682  10.770  1.2878 -0.5920 -1.3789
 6937TIP3   OH242225   6.634   0.130   3.686 -0.1336  0.6317  0.3907
 6937TIP3    H142226   6.691   0.053   3.686  0.3972  0.9829 -1.5030
 6937TIP3    H242227   6.644   0.167   3.774  1.3994 -0.1585  0.5815
 6938TIP3   OH242228   5.898   2.015  15.573 -0.1760 -0.1088 -0.1687
 6938TIP3    H142229   5.823   1.963  15.545 -0.5061  0.1100  0.3004
 6938TIP3    H242230   5.892   2.018  15.668  0.9275 -0.8226 -0.0545
 6939TIP3   OH242231   1.876   2.009   5.991 -0.4311 -0.0896 -0.3405
 6939TIP3    H142232   1.799   2.005   5.934 -0.6984  0.0864  0.0046
 6939TIP3    H242233   1.950   2.012   5.930 -0.7525  1.2353 -0.7197
 6940TIP3   OH242234   6.687   0.964   3.046 -0.5666  0.4429  0.5173
 6940TIP3    H142235   6.653   0.880   3.079  0.0712 -0.8676 -1.9103
 6940TIP3    H242236   6.664   0.963   2.953  4.1938  0.3845 -0.8810
 6941TIP3   OH242237   2.301   6.592  14.642  0.0852  0.1469  0.2135
 6941TIP3    H142238   2.232   6.530  14.619 -1.0965  1.6200 -0.3596
 6941TIP3    H242239   2.313   6.581  14.736 -2.0114  0.8611  0.6166
 6942TIP3   OH242240   5.388   6.734  15.172  0.3546  0.1720 -0.1790
 6942TIP3    H142241   5.465   6.678  15.161 -0.0304 -0.2991 -0.5359
 6942TIP3    H242242   5.346   6.703  15.252 -0.0528 -0.2941 -0.5664
 6943TIP3   OH242243   2.190   5.794  13.395  0.6504 -0.0252  0.1027
 6943TIP3    H142244   2.173   5.770  13.303  1.6396  1.6926 -0.5571
 6943TIP3    H242245   2.258   5.733  13.423 -0.5439 -1.4213  0.1592
 6944TIP3   OH242246   0.813   0.284  11.282  0.2714 -0.0464 -0.1101
 6944TIP3    H142247   0.725   0.300  11.250 -0.8839 -0.1078  2.7597
 6944TIP3    H242248   0.869   0.296  11.206 -2.3098 -1.5027 -2.4032
 6945TIP3   OH242249   2.729   3.279   1.913 -0.0586 -0.5067 -0.1155
 6945TIP3    H142250   2.754   3.241   1.828  0.2247  0.7653 -0.6336
 6945TIP3    H242251   2.634   3.272   1.916 -0.1834  0.4314 -1.0746
 6946TIP3   OH242252   2.840   2.613   3.789  0.3490  0.1240  0.4409
 6946TIP3    H142253   2.925   2.656   3.779  1.4492 -1.6500  1.5483
 6946TIP3    H242254   2.845   2.537   3.731  0.1449 -0.8422  1.6486
 6947TIP3   OH242255   5.954   6.454  14.653 -0.5929  0.2261  0.3157
 6947TIP3    H142256   5.875   6.420  14.696 -1.4080  1.1496 -0.4000
 6947TIP3    H242257   5.946   6.549  14.659  1.2475  0.3387  1.5577
 6948TIP3   OH242258   1.481   5.866   5.941  0.4309 -0.2891  0.4763
 6948TIP3    H142259   1.417   5.794   5.946  1.5640 -1.3906 -0.2535
 6948TIP3    H242260   1.452   5.928   6.008 -0.1189 -1.8110  1.7110
 6949TIP3   OH242261   1.041   3.124   4.031  0.1692 -0.0500 -0.7009
 6949TIP3    H142262   1.044   3.217   4.007  0.2607 -0.2655 -1.5924
 6949TIP3    H242263   0.973   3.087   3.974 -1.1221 -0.2058  0.8931
 6950TIP3   OH242264   3.038   2.958   3.532 -0.6635 -0.5700 -0.1696
 6950TIP3    H142265   3.008   2.923   3.448  0.1849 -0.2257 -0.6365
 6950TIP3    H242266   3.130   2.979   3.516 -0.9903  1.3466  0.2614
 6951TIP3   OH242267   5.302   3.319   2.641 -0.2772 -0.0016  0.1142
 6951TIP3    H142268   5.279   3.328   2.548 -0.8681 -3.8958 -0.3156
 6951TIP3    H242269   5.219   3.329   2.687  0.0235  1.9792  0.3143
 6952TIP3   OH242270   5.767   1.128   3.562 -0.5165  0.0535  0.1661
 6952TIP3    H142271   5.783   1.222   3.547 -0.7306 -0.0339 -0.6670
 6952TIP3    H242272   5.676   1.115   3.537 -0.6571 -0.2684  0.8456
 6953TIP3   OH242273   4.230   0.107   5.765  0.5148  0.4255 -0.0192
 6953TIP3    H142274   4.290   0.155   5.822 -0.4372  3.8206 -1.6027
 6953TIP3    H242275   4.286   0.048   5.714  2.0680  1.2411  0.6961
 6954TIP3   OH242276   6.417   0.589  15.114 -0.0346  0.4353 -0.7053
 6954TIP3    H142277   6.347   0.557  15.172  0.0486  0.4637 -0.5893
 6954TIP3    H242278   6.473   0.513  15.101 -0.2385  0.3355 -1.0256
 6955TIP3   OH242279   2.609   1.277   5.500  0.7993  0.1038 -0.6632
 6955TIP3    H142280   2.524   1.267   5.544  0.3907  1.8616 -0.9956
 6955TIP3    H242281   2.656   1.196   5.521 -0.6027 -0.5007  0.3061
 6956TIP3   OH242282   2.854   6.184  13.734  0.1448  0.1330  0.6920
 6956TIP3    H142283   2.800   6.145  13.665 -1.3031  1.2313  1.1660
 6956TIP3    H242284   2.841   6.278  13.725  1.9289  0.4413  0.9121
 6957TIP3   OH242285   3.026   2.150  15.170  0.4012  0.3990 -0.1664
 6957TIP3    H142286   3.080   2.223  15.200 -0.7364  0.7611  1.0864
 6957TIP3    H242287   2.980   2.120  15.248 -0.4533 -0.5444 -1.0030
 6958TIP3   OH242288   3.815   1.344  15.015 -0.1443 -0.0270  0.0860
 6958TIP3    H142289   3.744   1.380  14.962 -1.8398 -0.8672  1.6886
 6958TIP3    H242290   3.774   1.273  15.065  2.0153 -1.0582  0.4930
 6959TIP3   OH242291   2.852   6.295   0.231 -0.1834  0.0681 -0.0670
 6959TIP3    H142292   2.776   6.243   0.204 -1.4259  2.1277 -0.7411
 6959TIP3    H242293   2.855   6.367   0.168  1.8340  0.5062  0.4713
 6960TIP3   OH242294   6.086   4.454  11.961  0.1051 -0.4724 -0.3175
 6960TIP3    H142295   6.078   4.395  11.886  0.6559 -0.8836 -0.0616
 6960TIP3    H242296   6.180   4.461  11.976  0.0037 -0.3325  0.2844
 6961TIP3   OH242297   5.667   0.004   2.477 -0.6526  0.2673 -0.1736
 6961TIP3    H142298   5.638   0.051   2.399  1.2147 -0.1555 -1.1890
 6961TIP3    H242299   5.618  -0.078   2.475  1.6591 -1.2277 -2.8579
 6962TIP3   OH242300   3.548   5.860   6.302 -0.0547  0.2553 -0.2174
 6962TIP3    H142301   3.622   5.802   6.283 -0.4814  0.6344 -3.9661
 6962TIP3    H242302   3.478   5.800   6.328  0.3618 -0.6311 -1.0335
 6963TIP3   OH242303   6.614   2.268  15.993  0.0232  0.2480  0.4492
 6963TIP3    H142304   6.545   2.274  15.927  0.4206  0.3781  0.0438
 6963TIP3    H242305   6.597   2.342  16.052 -0.5770 -0.1121  0.7346
 6964TIP3   OH242306   1.262   3.381   4.765 -0.0863 -0.2217 -0.4819
 6964TIP3    H142307   1.221   3.364   4.680 -1.9343 -1.9321  0.6648
 6964TIP3    H242308   1.313   3.303   4.783 -1.1497 -0.6627  0.7456
 6965TIP3   OH242309   3.011   1.363  10.954  0.1798 -0.3470  0.5156
 6965TIP3    H142310   3.000   1.325  10.867  0.7379  0.9829 -0.1720
 6965TIP3    H242311   3.073   1.305  10.998 -0.0723 -1.0054  0.0184
 6966TIP3   OH242312   5.456   5.263   4.995  0.0256  0.0865 -0.5025
 6966TIP3    H142313   5.516   5.302   5.058  3.3894 -1.1460 -2.7055
 6966TIP3    H242314   5.411   5.338   4.955  0.6812  1.1134  0.6082
 6967TIP3   OH242315   3.417   3.167   5.671  0.2950  0.4406 -0.0150
 6967TIP3    H142316   3.343   3.184   5.728  1.5115 -0.1795  1.8378
 6967TIP3    H242317   3.478   3.238   5.689  0.3441  0.7179 -1.2148
 6968TIP3   OH242318   6.590   6.170  15.036 -0.3963  0.3150  0.1801
 6968TIP3    H142319   6.684   6.153  15.029 -0.5124  0.4515 -2.3663
 6968TIP3    H242320   6.584   6.264  15.048 -0.2087  0.1912  1.4016
 6969TIP3   OH242321   4.740   2.203   5.250  0.0910 -0.0023 -0.1590
 6969TIP3    H142322   4.729   2.180   5.158  0.1011  0.8506 -0.3825
 6969TIP3    H242323   4.651   2.201   5.286 -0.3625  2.6491 -0.9356
 6970TIP3   OH242324   1.437   6.299  15.820 -0.8182 -0.3716 -0.1957
 6970TIP3    H142325   1.516   6.325  15.773  0.3793 -2.3209  0.6174
 6970TIP3    H242326   1.365   6.332  15.766  0.5217  1.8511 -0.7179
 6971TIP3   OH242327   6.632   5.663   2.741 -0.3279 -0.8529  0.3905
 6971TIP3    H142328   6.686   5.741   2.732  0.2851 -1.3916 -0.8645
 6971TIP3    H242329   6.554   5.682   2.688 -0.4952 -0.8285  0.6434
 6972TIP3   OH242330   4.854   5.028  12.071 -0.4398  0.1948 -0.0741
 6972TIP3    H142331   4.906   4.996  11.998 -1.2233  1.7566 -1.3963
 6972TIP3    H242332   4.850   4.955  12.133  1.3110 -0.7313 -0.9980
 6973TIP3   OH242333   5.141   6.592  12.076 -0.9274  0.6079 -0.2168
 6973TIP3    H142334   5.165   6.551  11.993  0.6586  0.8228  0.1033
 6973TIP3    H242335   5.121   6.683  12.054 -1.7730  0.3574 -0.5300
 6974TIP3   OH242336   3.902   3.669   2.683  0.1672  0.1240 -0.4220
 6974TIP3    H142337   3.817   3.653   2.724 -0.1244  3.2425  0.4889
 6974TIP3    H242338   3.915   3.763   2.691  2.5632  0.1464 -2.8811
 6975TIP3   OH242339   1.113   1.174   5.761 -1.2933  0.7445  0.1068
 6975TIP3    H142340   1.157   1.210   5.838 -0.1041 -0.4809  0.0281
 6975TIP3    H242341   1.162   1.210   5.686 -0.1521 -0.8446  0.0243
 6976TIP3   OH242342   5.095   6.398  11.053  0.0568  0.4571  0.3574
 6976TIP3    H142343   5.089   6.375  10.960  0.0925 -1.4430  0.7868
 6976TIP3    H242344   5.145   6.479  11.055  0.7637  0.0884 -1.2369
 6977TIP3   OH242345   3.256   3.613  11.701 -0.1989 -0.1818  0.0861
 6977TIP3    H142346   3.296   3.700  11.690  0.2018 -0.5040 -1.1969
 6977TIP3    H242347   3.311   3.556  11.648 -0.2462 -1.2949  1.2071
 6978TIP3   OH242348   1.542   1.111  14.249  0.1094 -0.7252  0.0535
 6978TIP3    H142349   1.613   1.076  14.195 -0.6432 -0.0500 -1.4373
 6978TIP3    H242350   1.479   1.147  14.186 -0.3110  1.0625  1.3970
 6979TIP3   OH242351   2.302   5.910  12.016 -0.1885  0.2383 -0.6090
 6979TIP3    H142352   2.316   5.986  11.959  2.3749  1.1314  1.0289
 6979TIP3    H242353   2.234   5.938  12.078  1.2487  1.5683  0.4485
 6980TIP3   OH242354   0.530   3.063   1.151  0.1569 -0.5634 -0.2937
 6980TIP3    H142355   0.480   3.078   1.231 -0.5431  0.4312 -0.8903
 6980TIP3    H242356   0.572   2.978   1.164  0.6996 -0.0717  1.4465
 6981TIP3   OH242357   1.786   3.811  11.640  0.5820 -0.0962 -1.1430
 6981TIP3    H142358   1.842   3.757  11.584  0.4954 -1.5339  0.1073
 6981TIP3    H242359   1.823   3.803  11.727  0.9741  2.4616 -0.9850
 6982TIP3   OH242360   4.751   5.334  13.891 -0.2137  0.1367  0.3578
 6982TIP3    H142361   4.754   5.393  13.815 -0.9800 -0.7142 -0.3564
 6982TIP3    H242362   4.723   5.390  13.963 -1.6575  0.5396 -0.4652
 6983TIP3   OH242363   3.356   1.446  15.650  0.5157 -0.1193 -0.1442
 6983TIP3    H142364   3.304   1.511  15.696 -1.3788 -0.4010 -1.7343
 6983TIP3    H242365   3.404   1.400  15.719 -1.6899 -0.1233  1.4921
 6984TIP3   OH242366   6.135   6.764   4.160  0.3918 -0.2840 -0.5969
 6984TIP3    H142367   6.142   6.707   4.236 -0.3574  0.8853  0.4006
 6984TIP3    H242368   6.153   6.708   4.085  4.1188 -0.8898  0.5580
 6985TIP3   OH242369   6.342   2.428  15.551 -0.0223  0.2035  0.4557
 6985TIP3    H142370   6.296   2.360  15.601  0.2119  0.6286  1.2727
 6985TIP3    H242371   6.328   2.404  15.460  0.3919 -1.1629  0.7242
 6986TIP3   OH242372   0.627   5.992  15.549  0.1438  0.2456  0.0776
 6986TIP3    H142373   0.699   5.929  15.541 -0.6652 -0.8319  0.9031
 6986TIP3    H242374   0.601   5.986  15.641 -0.6162  1.0568 -0.0751
 6987TIP3   OH242375   1.599   0.513  12.875  0.0311 -0.3182  0.6837
 6987TIP3    H142376   1.597   0.609  12.877  1.2712 -0.2741  0.5917
 6987TIP3    H242377   1.507   0.487  12.879 -0.3928  0.8986 -0.4202
 6988TIP3   OH242378   5.584   1.177   3.147  0.0369  0.1068  0.2601
 6988TIP3    H142379   5.497   1.154   3.112 -0.0675 -1.5323  1.5134
 6988TIP3    H242380   5.645   1.135   3.086  0.0000  1.4269 -0.7386
 6989TIP3   OH242381   6.215   0.430  14.742 -0.0408 -0.1812 -0.0977
 6989TIP3    H142382   6.129   0.430  14.699 -0.5743  0.8817  0.9172
 6989TIP3    H242383   6.228   0.521  14.770 -0.1539 -0.9338  2.7602
 6990TIP3   OH242384   0.008   2.639  12.135 -0.0003 -0.3068 -0.1597
 6990TIP3    H142385   0.042   2.718  12.177  1.4311 -1.1156  0.2621
 6990TIP3    H242386   0.023   2.654  12.041  1.9599 -0.8131  0.0414
 6991TIP3   OH242387   0.950   5.378  12.997 -0.5214  0.2565  0.3911
 6991TIP3    H142388   1.035   5.365  13.040 -0.7586  1.2634  1.2318
 6991TIP3    H242389   0.942   5.306  12.935  1.0358  0.2608  0.1558
 6992TIP3   OH242390   2.218   1.165   0.120  0.4641 -0.0136 -0.1615
 6992TIP3    H142391   2.177   1.244   0.086 -1.1073 -0.9730 -0.5705
 6992TIP3    H242392   2.292   1.197   0.173 -0.2137  1.7086 -0.2056
 6993TIP3   OH242393   6.248   6.626  15.847 -0.2625  0.1299  0.3092
 6993TIP3    H142394   6.299   6.579  15.912  1.9010  0.7195 -0.8745
 6993TIP3    H242395   6.246   6.716  15.878  0.5223  0.3543 -0.2777
 6994TIP3   OH242396   0.177   0.265   5.065  0.3525  0.1232 -0.2966
 6994TIP3    H142397   0.192   0.220   5.148 -0.7727 -0.1286 -0.2039
 6994TIP3    H242398   0.086   0.244   5.043  0.3290  0.9871 -1.1008
 6995TIP3   OH242399   3.849   5.399   0.355  0.2525 -1.1925  0.0238
 6995TIP3    H142400   3.903   5.325   0.383 -0.1079 -0.7421  2.0820
 6995TIP3    H242401   3.797   5.421   0.433 -0.0083  0.9160 -0.6920
 6996TIP3   OH242402   1.930   2.114  13.321 -0.1689 -0.3575 -0.1450
 6996TIP3    H142403   1.916   2.204  13.292  0.3626  0.4943  2.0448
 6996TIP3    H242404   2.015   2.089  13.284 -0.7934 -0.3482 -1.6096
 6997TIP3   OH242405   1.138   0.392  15.849  0.1969  0.0354  0.3188
 6997TIP3    H142406   1.226   0.367  15.820 -0.1595 -0.3044 -0.4923
 6997TIP3    H242407   1.138   0.374  15.943  0.7502 -0.6551  0.1942
 6998TIP3   OH242408   4.808   2.997   3.716 -0.1370 -0.3261 -0.1648
 6998TIP3    H142409   4.903   2.998   3.703  0.2717  3.1738  1.9660
 6998TIP3    H242410   4.776   3.070   3.663 -1.9341 -2.1708 -1.8006
 6999TIP3   OH242411   1.765   6.160   1.968  0.1755 -0.4510  0.0319
 6999TIP3    H142412   1.779   6.072   1.932  3.0218 -0.6377  1.3532
 6999TIP3    H242413   1.847   6.206   1.953 -1.6172  2.5210 -1.7412
 7000TIP3   OH242414   5.166   5.319  16.295 -0.2332 -0.2308 -0.4613
 7000TIP3    H142415   5.182   5.327  16.201  1.0095  1.2953 -0.1713
 7000TIP3    H242416   5.142   5.228  16.308 -1.4978 -0.2288 -2.3947
 7001TIP3   OH242417   3.548   5.119   3.392 -0.5074 -0.4614  0.0382
 7001TIP3    H142418   3.514   5.033   3.369 -0.5325 -0.0997 -1.4313
 7001TIP3    H242419   3.490   5.180   3.347 -0.2783  0.3146  0.7685
 7002TIP3   OH242420   1.073   5.870   0.605  0.1401  0.1510  0.1357
 7002TIP3    H142421   1.055   5.778   0.620  0.3734  0.0928  0.0643
 7002TIP3    H242422   1.165   5.881   0.628 -0.0495  0.5009  0.7452
 7003TIP3   OH242423   1.862   1.269  11.033  0.1422  0.3582  0.6581
 7003TIP3    H142424   1.767   1.257  11.029  0.0220  0.8806  1.6852
 7003TIP3    H242425   1.876   1.357  10.997  0.4052 -0.3141 -0.9556
 7004TIP3   OH242426   6.600   0.513  13.206 -0.4533 -0.4057  0.1266
 7004TIP3    H142427   6.572   0.445  13.144 -1.4078 -0.4065  0.5491
 7004TIP3    H242428   6.580   0.595  13.162  0.4160 -0.3827 -0.2536
 7005TIP3   OH242429   6.790   1.542  16.320  0.1885  0.0557  0.3951
 7005TIP3    H142430   6.805   1.462  16.370 -2.4347 -0.6740  0.1581
 7005TIP3    H242431   6.748   1.512  16.239 -0.0733  1.5884 -0.0674
 7006TIP3   OH242432   0.607   4.203  12.073 -0.5361 -0.2703 -0.1342
 7006TIP3    H142433   0.679   4.143  12.055 -1.7287 -0.9391 -3.1280
 7006TIP3    H242434   0.648   4.290  12.073  0.5892 -0.7812  0.4430
 7007TIP3   OH242435   2.849   2.635   3.349  0.2309  0.1095  0.1188
 7007TIP3    H142436   2.936   2.600   3.363 -0.0088 -0.1130  1.0944
 7007TIP3    H242437   2.827   2.610   3.259  0.1315 -2.1011  0.7087
 7008TIP3   OH242438   2.894   0.784  11.765 -0.1377  0.1060 -0.2901
 7008TIP3    H142439   2.948   0.826  11.699 -2.4259  0.7896 -1.8361
 7008TIP3    H242440   2.884   0.850  11.834  1.1131 -0.1119  0.1321
 7009TIP3   OH242441   0.319   4.388  13.013 -0.7537 -0.2014 -0.0863
 7009TIP3    H142442   0.311   4.475  12.973 -1.0855  0.0213  0.4520
 7009TIP3    H242443   0.352   4.406  13.101  2.2468 -0.8229 -0.9480
 7010TIP3   OH242444   5.487   2.221  15.099 -0.3472  0.0511 -0.1456
 7010TIP3    H142445   5.429   2.227  15.023 -0.1401  1.1252 -0.2433
 7010TIP3    H242446   5.565   2.269  15.072  1.0575 -2.2206 -0.4112
 7011TIP3   OH242447   4.262   1.768  15.086 -0.0562 -1.1871 -0.0076
 7011TIP3    H142448   4.322   1.699  15.059  1.9208  1.4040 -2.8153
 7011TIP3    H242449   4.199   1.774  15.014 -1.1517 -1.0381  0.9401
 7012TIP3   OH242450   3.732   1.759   5.488 -0.1493  0.4004  0.1730
 7012TIP3    H142451   3.668   1.775   5.418  2.0288  1.7779 -1.6388
 7012TIP3    H242452   3.712   1.825   5.554 -0.0859  1.3913 -0.7768
 7013TIP3   OH242453   1.008   5.296   2.430  0.4354 -0.0561  0.1937
 7013TIP3    H142454   1.101   5.276   2.433  0.3930 -0.1812  1.0686
 7013TIP3    H242455   0.965   5.210   2.440  0.2213 -0.0676 -0.7727
 7014TIP3   OH242456   0.682   2.139   0.107 -0.5665  0.4737  0.5832
 7014TIP3    H142457   0.605   2.117   0.055 -0.1588  0.2122  0.0731
 7014TIP3    H242458   0.755   2.130   0.045 -0.0327 -0.1823  1.2893
 7015TIP3   OH242459   2.443   2.983   3.938 -0.6454 -0.0047  0.1113
 7015TIP3    H142460   2.512   2.938   3.889  0.1743 -0.1569  1.3586
 7015TIP3    H242461   2.486   3.062   3.973 -1.5559  0.7617 -0.4702
 7016TIP3   OH242462   0.669   0.387  14.140  0.6564 -0.6895 -0.0115
 7016TIP3    H142463   0.691   0.365  14.230 -1.0459  1.0031  0.8854
 7016TIP3    H242464   0.675   0.483  14.136 -1.7779 -0.4936 -0.9262
 7017TIP3   OH242465   2.740   0.103   4.348  0.4053  0.5306 -0.0675
 7017TIP3    H142466   2.672   0.037   4.363  0.9657  0.3379  1.8150
 7017TIP3    H242467   2.818   0.052   4.326  0.4285  0.6563 -0.2769
 7018TIP3   OH242468   0.580   6.396   4.533 -0.4496 -0.6618 -0.5580
 7018TIP3    H142469   0.641   6.374   4.603 -0.3946 -1.0412 -0.7210
 7018TIP3    H242470   0.500   6.422   4.577 -0.4516 -1.0077 -0.3556
 7019TIP3   OH242471   2.205   6.580   1.485 -0.7021 -0.2514  0.2897
 7019TIP3    H142472   2.283   6.531   1.458 -0.4037  0.0014  0.6753
 7019TIP3    H242473   2.132   6.525   1.459 -0.5177  0.5151 -2.1850
 7020TIP3   OH242474   5.366   2.930  15.178 -1.0291 -0.8054  0.8119
 7020TIP3    H142475   5.321   2.986  15.241 -1.1537 -1.1205  1.0066
 7020TIP3    H242476   5.320   2.846  15.183  0.8301 -1.8336  2.5518
 7021TIP3   OH242477   0.697   6.173   2.836  0.2232 -0.1874 -0.1644
 7021TIP3    H142478   0.610   6.176   2.876  0.5481  0.4129  0.5335
 7021TIP3    H242479   0.712   6.081   2.817 -0.5361 -0.3041 -0.2216
 7022TIP3   OH242480   3.834   3.991   1.565  0.6980  0.5352 -0.4363
 7022TIP3    H142481   3.894   4.017   1.495  1.8638 -0.1550  0.2644
 7022TIP3    H242482   3.862   3.902   1.588  0.1000  0.6116  0.6416
 7023TIP3   OH242483   5.717   0.004  16.704 -0.0289  0.2857  0.6628
 7023TIP3    H142484   5.760   0.057  16.637 -1.6072  0.3517 -0.3711
 7023TIP3    H242485   5.712  -0.083  16.666 -1.6339  0.4935  0.2880
 7024TIP3   OH242486   5.737   2.575  11.863 -0.3727  0.1414 -0.1706
 7024TIP3    H142487   5.821   2.621  11.860 -0.8596  1.0558 -0.1976
 7024TIP3    H242488   5.698   2.602  11.947  0.3391 -2.0852  0.9688
 7025TIP3   OH242489   1.898   3.761   3.077  0.3001  0.5829  0.4155
 7025TIP3    H142490   1.803   3.752   3.072  0.0357  0.5476  3.4420
 7025TIP3    H242491   1.929   3.741   2.989 -2.3237 -1.7275 -0.1373
 7026TIP3   OH242492   5.923   0.194   4.927 -0.0049  0.3687 -0.5468
 7026TIP3    H142493   5.891   0.232   4.845  0.0627  0.1243 -0.6869
 7026TIP3    H242494   5.974   0.264   4.968  0.0292  0.4642 -0.7527
 7027TIP3   OH242495   2.736   3.397   4.444  0.5068  0.1982  0.7703
 7027TIP3    H142496   2.717   3.482   4.484  1.8824  0.8332  0.1473
 7027TIP3    H242497   2.831   3.399   4.428  0.2485 -0.5771 -1.1851
 7028TIP3   OH242498   1.175   2.998  10.910  0.0187 -0.0588 -0.9180
 7028TIP3    H142499   1.134   2.915  10.932  2.5837 -1.4416 -0.9461
 7028TIP3    H242500   1.109   3.045  10.860 -2.0512 -1.4008  0.4309
 7029TIP3   OH242501   1.460   2.987  16.345 -0.6567 -0.0586  0.0036
 7029TIP3    H142502   1.436   2.894  16.345 -1.9516  0.2532  1.1348
 7029TIP3    H242503   1.377   3.033  16.352  0.0548  1.1685  0.6379
 7030TIP3   OH242504   3.289   5.284   2.034 -0.1800  0.4643  0.0705
 7030TIP3    H142505   3.308   5.244   2.119 -0.7088 -1.2932 -0.5976
 7030TIP3    H242506   3.195   5.305   2.037  0.0631  1.6016  0.3648
 7031TIP3   OH242507   3.554   0.440   3.619  0.2454 -0.8790 -0.4485
 7031TIP3    H142508   3.579   0.360   3.665  0.8494  0.2122  1.2248
 7031TIP3    H242509   3.634   0.492   3.617 -0.4669  0.2557 -0.2421
 7032TIP3   OH242510   2.548   6.536   3.981  0.0307 -0.5062 -1.0366
 7032TIP3    H142511   2.583   6.625   3.993  1.3029 -1.1781  0.7467
 7032TIP3    H242512   2.515   6.535   3.891 -3.7883  3.0066 -0.0135
 7033TIP3   OH242513   5.570   6.461   0.030 -0.6271  0.3327  0.3690
 7033TIP3    H142514   5.538   6.550   0.047 -1.2859  0.2048 -0.1467
 7033TIP3    H242515   5.608   6.466  -0.058  0.8388  0.4912  0.9953
 7034TIP3   OH242516   4.362   1.131   3.773  0.1420  0.3816  0.0891
 7034TIP3    H142517   4.370   1.186   3.851 -0.0949  0.7801 -0.1653
 7034TIP3    H242518   4.450   1.097   3.758 -0.1675 -1.2235  1.6338
 7035TIP3   OH242519   2.314   5.636   1.954  0.1566  0.7089  0.5117
 7035TIP3    H142520   2.239   5.621   2.012  0.0566  0.2182  0.2612
 7035TIP3    H242521   2.279   5.621   1.866  1.1746 -2.2951  0.5276
 7036TIP3   OH242522   6.092   5.618  14.004  0.5289 -0.0934  0.3825
 7036TIP3    H142523   6.029   5.621  13.931  0.3197 -0.6627  0.5313
 7036TIP3    H242524   6.175   5.642  13.964 -0.0615  2.5152  0.5354
 7037TIP3   OH242525   6.494   2.614  16.569 -0.0644 -0.5867  0.1777
 7037TIP3    H142526   6.516   2.669  16.493  0.0977 -0.7615  0.0986
 7037TIP3    H242527   6.418   2.656  16.607  2.4749  2.1753  2.6516
 7038TIP3   OH242528   2.255   2.727   1.352 -0.3193  0.5173  0.3557
 7038TIP3    H142529   2.302   2.726   1.269  1.7609 -3.0359  1.3659
 7038TIP3    H242530   2.309   2.782   1.409  1.1125 -1.0980  0.6532
 7039TIP3   OH242531   3.213   2.570  11.606  0.5876 -0.8848 -0.3076
 7039TIP3    H142532   3.152   2.504  11.640 -0.3460 -0.5074 -1.1853
 7039TIP3    H242533   3.269   2.522  11.546  0.3026 -0.9973 -0.4848
 7040TIP3   OH242534   4.832   2.903   5.667  0.2923 -0.4701  0.3808
 7040TIP3    H142535   4.911   2.855   5.691  0.0536 -0.3370  1.4815
 7040TIP3    H242536   4.800   2.859   5.588  1.5052 -0.4613 -0.1300
 7041TIP3   OH242537   2.803   3.724  13.248 -0.1582 -0.2476 -0.5557
 7041TIP3    H142538   2.710   3.744  13.242  0.1685  2.3219  1.0911
 7041TIP3    H242539   2.810   3.663  13.321 -0.4050  1.2777  0.7831
 7042TIP3   OH242540   5.691   4.618  11.916  0.0962 -0.0901 -0.4329
 7042TIP3    H142541   5.697   4.629  11.821 -0.5731 -0.7404 -0.5565
 7042TIP3    H242542   5.659   4.702  11.948  1.2418  0.4576 -0.6716
 7043TIP3   OH242543   6.200   4.200   4.645  0.5068 -0.0643  0.5439
 7043TIP3    H142544   6.284   4.173   4.607  0.4868  2.2627 -1.4136
 7043TIP3    H242545   6.135   4.144   4.601  0.7835  0.3678 -0.4441
 7044TIP3   OH242546   1.391   5.476  14.598  0.2308  0.4577 -0.5634
 7044TIP3    H142547   1.342   5.559  14.597 -0.6116 -0.0231 -0.1333
 7044TIP3    H242548   1.483   5.503  14.595  0.1397  1.5847  2.5699
 7045TIP3   OH242549   3.042   2.969  15.662 -0.1709  0.2555  0.2033
 7045TIP3    H142550   3.105   2.957  15.733  0.3566  0.6802 -0.1856
 7045TIP3    H242551   2.967   2.915  15.687 -0.6123  1.5490  1.8050
 7046TIP3   OH242552   1.585   1.717   2.384  0.3786  0.5984  0.3603
 7046TIP3    H142553   1.506   1.759   2.419 -0.4314 -0.9369  0.4293
 7046TIP3    H242554   1.649   1.788   2.380 -0.3282  1.4331  2.3377
 7047TIP3   OH242555   2.948   2.989  12.287 -0.0636  0.1741 -0.6236
 7047TIP3    H142556   2.919   3.079  12.303  0.6484  0.5812 -1.5858
 7047TIP3    H242557   3.039   2.997  12.261  0.2294 -0.9018 -0.0105
 7048TIP3   OH242558   4.667   2.371   5.658  0.2258  0.0830  0.4822
 7048TIP3    H142559   4.610   2.447   5.670  0.0216 -0.1167  0.7946
 7048TIP3    H242560   4.696   2.377   5.567 -1.1991 -0.4103 -0.0344
 7049TIP3   OH242561   4.588   5.613  16.219 -0.0371 -0.3922  0.1252
 7049TIP3    H142562   4.611   5.704  16.239 -0.3497 -0.1560 -0.5429
 7049TIP3    H242563   4.548   5.618  16.132  0.7491 -1.2915 -0.3038
 7050TIP3   OH242564   2.668   2.915   1.439  0.5972  0.1998 -0.7022
 7050TIP3    H142565   2.703   2.921   1.350  1.5816  2.1877 -0.2415
 7050TIP3    H242566   2.724   2.851   1.483  1.8717  1.2207 -0.7900
 7051TIP3   OH242567   5.713   5.432  12.329  0.0576  0.2128  0.1809
 7051TIP3    H142568   5.677   5.514  12.297  0.4057  0.9563  1.6252
 7051TIP3    H242569   5.788   5.458  12.382  0.8203 -1.1155 -0.2008
 7052TIP3   OH242570   5.842   5.326   3.052 -0.3715  0.0156  0.2783
 7052TIP3    H142571   5.763   5.379   3.047  0.5033  1.2845 -0.6445
 7052TIP3    H242572   5.895   5.367   3.121  0.4572  0.5798 -0.6717
 7053TIP3   OH242573   5.741   1.219  16.540  0.0223 -0.0916  0.0825
 7053TIP3    H142574   5.818   1.169  16.514 -0.5315 -0.7422 -0.3333
 7053TIP3    H242575   5.709   1.175  16.618 -2.2316 -2.3587 -1.9410
 7054TIP3   OH242576   0.221   2.983  15.930  0.3710  0.4273  0.1855
 7054TIP3    H142577   0.149   2.922  15.943  1.7667 -1.0221  1.5534
 7054TIP3    H242578   0.238   2.980  15.836 -0.8556  0.2302 -0.0429
 7055TIP3   OH242579   1.798   6.227   0.178  0.0144  0.1905  0.1993
 7055TIP3    H142580   1.738   6.214   0.251  0.5049  0.4856  0.6637
 7055TIP3    H242581   1.882   6.246   0.219  0.2963  0.3706 -0.4420
 7056TIP3   OH242582   0.054   2.570  11.400  0.4168  0.1272 -0.1978
 7056TIP3    H142583  -0.021   2.626  11.376  1.1828  2.0869  1.6443
 7056TIP3    H242584   0.092   2.545  11.317 -1.5134  0.1520 -1.1583
 7057TIP3   OH242585   6.215   5.020  16.249 -0.2419 -0.1524  0.3544
 7057TIP3    H142586   6.268   4.960  16.301 -1.5760 -2.1202 -0.4106
 7057TIP3    H242587   6.136   5.035  16.302 -0.2436  0.3222  0.2181
 7058TIP3   OH242588   0.705   6.441  11.765 -0.5122 -0.3420  0.0643
 7058TIP3    H142589   0.749   6.439  11.679  0.3284  0.3602  0.4643
 7058TIP3    H242590   0.751   6.376  11.817  0.8251  1.1210  0.8168
 7059TIP3   OH242591   5.674   5.437   1.166 -0.1199 -0.5784  0.0528
 7059TIP3    H142592   5.743   5.504   1.162  0.2816 -0.9466  0.6182
 7059TIP3    H242593   5.719   5.359   1.198 -0.4004 -1.3661 -1.3901
 7060TIP3   OH242594   2.816   2.190  15.670 -0.6909  0.0573  0.0591
 7060TIP3    H142595   2.796   2.263  15.729 -0.7511 -1.2124  1.6488
 7060TIP3    H242596   2.731   2.153  15.648 -0.7359  1.0214 -1.5380
 7061TIP3   OH242597   1.803   0.930   2.133 -0.0844  0.5095  0.1643
 7061TIP3    H142598   1.822   0.902   2.044  0.7975  3.3051 -0.6414
 7061TIP3    H242599   1.723   0.981   2.125 -0.4018  0.1819  1.1339
 7062TIP3   OH242600   3.385   5.420  12.642 -0.2973 -0.0225  0.0754
 7062TIP3    H142601   3.408   5.385  12.556 -0.1296 -0.9005  0.4665
 7062TIP3    H242602   3.469   5.434  12.686 -0.4212 -1.6836  0.9025
 7063TIP3   OH242603   6.267   1.309  12.901  0.1450 -0.4610  0.1111
 7063TIP3    H142604   6.259   1.270  12.988  0.0034 -1.5898 -0.3941
 7063TIP3    H242605   6.277   1.235  12.842 -3.0281  0.0424 -1.2701
 7064TIP3   OH242606   5.669   4.991  10.913 -0.3081 -0.1409 -0.1073
 7064TIP3    H142607   5.574   4.996  10.919 -0.3545  0.8134 -1.1778
 7064TIP3    H242608   5.689   4.898  10.921 -1.2405 -0.2697  1.0349
 7065TIP3   OH242609   4.648   4.091   0.892  0.0012  0.4278 -0.0468
 7065TIP3    H142610   4.635   4.162   0.955  0.3117 -0.7558  1.4099
 7065TIP3    H242611   4.578   4.029   0.911  1.4723 -1.0756  0.8351
 7066TIP3   OH242612   4.652   3.439   2.208 -0.3850 -0.9370  0.5177
 7066TIP3    H142613   4.567   3.428   2.250  0.9160 -2.2752  3.0215
 7066TIP3    H242614   4.671   3.354   2.169 -1.7682  0.3879 -3.5419
 7067TIP3   OH242615   4.495   0.568  14.028  0.3079 -0.3822 -0.6811
 7067TIP3    H142616   4.424   0.525  14.076  1.4300 -0.3125  1.1459
 7067TIP3    H242617   4.452   0.640  13.981 -0.7542  0.1436  0.9898
 7068TIP3   OH242618   1.848   6.763   1.044  0.0354 -0.2696 -0.1064
 7068TIP3    H142619   1.817   6.697   1.105 -0.2199 -1.1017 -1.1164
 7068TIP3    H242620   1.919   6.807   1.090  0.0496 -1.0877  0.6692
 7069TIP3   OH242621   2.373   4.909   6.369 -0.0122 -0.0738  0.1773
 7069TIP3    H142622   2.404   4.897   6.458  3.1136  1.0340 -0.6117
 7069TIP3    H242623   2.363   5.004   6.359  1.7410  0.0284 -1.1652
 7070TIP3   OH242624   0.157   3.894  12.668  0.1252  0.8020 -0.1346
 7070TIP3    H142625   0.088   3.959  12.659  1.6060  2.5183  0.3912
 7070TIP3    H242626   0.199   3.892  12.582 -0.3123  0.0518 -0.3375
 7071TIP3   OH242627   4.136   4.806   4.257  0.4977  0.3961 -0.2628
 7071TIP3    H142628   4.222   4.837   4.229  1.2798  0.2599  1.8034
 7071TIP3    H242629   4.152   4.719   4.292 -0.7312 -0.1592 -1.0190
 7072TIP3   OH242630   3.101   0.425   2.586  0.5668  0.0833 -0.4484
 7072TIP3    H142631   3.024   0.465   2.626 -0.2367 -1.1856 -0.6631
 7072TIP3    H242632   3.132   0.490   2.522  0.7153  1.3136  0.8328
 7073TIP3   OH242633   4.634   2.265   1.432  0.2981 -0.3778  0.3993
 7073TIP3    H142634   4.721   2.302   1.422  0.6099 -0.7591  1.5335
 7073TIP3    H242635   4.599   2.261   1.343  1.0378  0.7153  0.0428
 7074TIP3   OH242636   3.434   3.409   1.725  0.3521 -0.2737 -0.7388
 7074TIP3    H142637   3.469   3.326   1.758  0.4949 -0.1392 -0.5514
 7074TIP3    H242638   3.340   3.405   1.744  0.4922 -0.0472 -0.0016
 7075TIP3   OH242639   6.150   1.019   3.321  0.0059 -0.1393  0.5201
 7075TIP3    H142640   6.055   1.027   3.305 -0.2372  1.5697  2.3973
 7075TIP3    H242641   6.158   0.952   3.389  0.2180 -0.6910 -0.0378
 7076TIP3   OH242642   2.801   5.337   4.882  0.0200  0.3306 -0.5693
 7076TIP3    H142643   2.735   5.381   4.936  2.0505  2.5753  0.2596
 7076TIP3    H242644   2.861   5.297   4.945  1.8869  2.1493 -1.0829
 7077TIP3   OH242645   5.299   2.656   3.883  0.4506 -0.3088  0.1214
 7077TIP3    H142646   5.270   2.570   3.912  1.4326 -1.1704 -1.3093
 7077TIP3    H242647   5.394   2.654   3.894  0.6358  0.0554 -1.2360
 7078TIP3   OH242648   3.729   3.131   1.229  0.1073 -0.2958  0.3129
 7078TIP3    H142649   3.748   3.220   1.199  0.6239 -0.2716  0.7027
 7078TIP3    H242650   3.813   3.085   1.224  0.3440 -0.1470  2.2254
 7079TIP3   OH242651   1.384   3.353  13.860  0.6825 -0.2528 -1.1024
 7079TIP3    H142652   1.410   3.415  13.928 -2.3900  0.8327 -0.8009
 7079TIP3    H242653   1.390   3.403  13.778 -3.2461  1.1627 -0.7217
 7080TIP3   OH242654   0.499   5.699  17.016 -0.0573  0.8528  0.0809
 7080TIP3    H142655   0.475   5.643  17.090  0.4389  0.4102 -0.0824
 7080TIP3    H242656   0.472   5.787  17.043  0.2031  0.7143  0.8312
 7081TIP3   OH242657   6.525   4.356  15.069  0.4338  0.5757  0.4379
 7081TIP3    H142658   6.590   4.310  15.016  0.4768  0.0740  0.9174
 7081TIP3    H242659   6.527   4.446  15.037  1.9758  0.7824  1.0182
 7082TIP3   OH242660   4.697   4.313  16.615 -0.4154 -0.3820 -0.1722
 7082TIP3    H142661   4.646   4.392  16.596  0.2009 -0.2727 -1.4856
 7082TIP3    H242662   4.652   4.273  16.690 -1.1126  0.8684  0.1033
 7083TIP3   OH242663   0.311   2.181  12.764 -0.0845 -0.2217  0.6354
 7083TIP3    H142664   0.325   2.224  12.680 -1.6960 -2.0554 -0.6420
 7083TIP3    H242665   0.335   2.247  12.829  1.8496  1.0314 -1.2202
 7084TIP3   OH242666   5.125   5.151   1.562  0.9695  0.4386 -0.0598
 7084TIP3    H142667   5.047   5.176   1.612  0.9749 -2.1378  1.3987
 7084TIP3    H242668   5.198   5.186   1.614  0.8744  1.2650 -0.4607
 7085TIP3   OH242669   4.412   4.602  13.510 -0.8350 -0.0844  0.5061
 7085TIP3    H142670   4.504   4.576  13.522 -0.6808  1.2219  2.5040
 7085TIP3    H242671   4.397   4.589  13.416  0.6814 -2.4881  0.4904
 7086TIP3   OH242672   5.061   1.886  13.015  0.3233 -0.4398  0.0002
 7086TIP3    H142673   5.106   1.801  13.018 -1.0082 -1.1910 -0.4093
 7086TIP3    H242674   5.131   1.950  13.009  1.3435 -1.5634 -0.5449
 7087TIP3   OH242675   5.888   2.163  11.282 -0.6658 -0.1198  0.1480
 7087TIP3    H142676   5.946   2.238  11.265  1.0214 -1.2812  0.5284
 7087TIP3    H242677   5.848   2.183  11.367 -0.4326  0.4798  0.1214
 7088TIP3   OH242678   2.804   0.728   5.099  0.4954  0.1328 -0.2736
 7088TIP3    H142679   2.751   0.781   5.159  0.1892 -0.8264  0.3323
 7088TIP3    H242680   2.892   0.767   5.104  0.8205 -0.7597  1.8955
 7089TIP3   OH242681   2.448   6.225  15.599 -0.6724  0.4808  0.6438
 7089TIP3    H142682   2.407   6.205  15.683 -0.5943 -2.2637  0.1228
 7089TIP3    H242683   2.381   6.208  15.534 -0.1752  0.7737  0.0375
 7090TIP3   OH242684   0.206   4.862  13.516  0.0041 -0.3335  0.1986
 7090TIP3    H142685   0.208   4.797  13.445  2.6451 -1.1438  0.9111
 7090TIP3    H242686   0.158   4.818  13.586  2.0451 -1.7335  0.7913
 7091TIP3   OH242687   6.275   2.650   0.949  0.2719 -0.7340 -0.3054
 7091TIP3    H142688   6.205   2.686   1.003  2.1200  0.6495  1.3031
 7091TIP3    H242689   6.270   2.701   0.868  0.7930  0.9776  0.6846
 7092TIP3   OH242690   1.236   0.709   4.442  0.1765 -0.1404 -0.3016
 7092TIP3    H142691   1.244   0.743   4.531  0.0012  0.2770 -0.4429
 7092TIP3    H242692   1.315   0.741   4.397  0.5617 -0.8402 -0.1449
 7093TIP3   OH242693   2.314   4.695  14.500 -0.0813  0.4887  0.0498
 7093TIP3    H142694   2.409   4.706  14.495 -0.0881  0.6625  0.3014
 7093TIP3    H242695   2.300   4.601  14.488  0.3241  0.0191  2.6556
 7094TIP3   OH242696   0.583   0.156   4.221 -0.2653  0.5663 -0.4360
 7094TIP3    H142697   0.672   0.121   4.216 -0.3922  0.4531 -3.0774
 7094TIP3    H242698   0.529   0.091   4.176 -1.4677  1.3095 -0.1121
 7095TIP3   OH242699   4.417   6.257  14.607 -0.2647  0.1517 -0.6174
 7095TIP3    H142700   4.372   6.320  14.663 -3.0214 -0.2148 -2.2368
 7095TIP3    H242701   4.392   6.171  14.642  0.7913 -0.0880 -0.4087
 7096TIP3   OH242702   2.270   0.388   3.562 -0.3525 -1.1094  0.2642
 7096TIP3    H142703   2.199   0.331   3.533  0.5831 -1.4668 -1.5215
 7096TIP3    H242704   2.348   0.352   3.519  0.3762  1.1339 -0.4266
 7097TIP3   OH242705   1.946   3.642  17.056 -0.1315  0.7627 -0.3033
 7097TIP3    H142706   1.930   3.613  16.967  1.6739  2.2952 -1.1893
 7097TIP3    H242707   1.963   3.561  17.105 -1.9065 -0.1622 -1.0980
 7098TIP3   OH242708   4.777   2.114   3.050 -0.1941  0.0073 -0.3770
 7098TIP3    H142709   4.837   2.187   3.032  1.4702 -1.0859  0.4875
 7098TIP3    H242710   4.756   2.124   3.143  0.7501 -1.1053 -0.0352
 7099TIP3   OH242711   0.772   3.881  12.465  0.7015  0.1704 -0.1214
 7099TIP3    H142712   0.690   3.913  12.501  0.6440  0.1387 -0.2236
 7099TIP3    H242713   0.818   3.959  12.435 -0.2243  0.0237 -2.0376
 7100TIP3   OH242714   6.781   1.803  15.210  0.0280  0.2263 -0.2548
 7100TIP3    H142715   6.759   1.768  15.296  0.5874  1.4714  0.4079
 7100TIP3    H242716   6.857   1.752  15.182  1.2926  1.3272  1.0174
 7101TIP3   OH242717   4.382   0.394   0.203 -0.3158  0.2210 -0.3810
 7101TIP3    H142718   4.435   0.451   0.149  0.9994 -2.1430 -1.7670
 7101TIP3    H242719   4.321   0.452   0.248  1.3584  2.7171 -1.1544
 7102TIP3   OH242720   0.257   0.228  11.399  0.2326  0.0219  0.0856
 7102TIP3    H142721   0.225   0.318  11.405  1.3684  0.5852 -1.5725
 7102TIP3    H242722   0.216   0.183  11.473 -1.1979  1.6318  0.3428
 7103TIP3   OH242723   0.275   1.646  16.846  0.5432  0.2009  0.1136
 7103TIP3    H142724   0.228   1.729  16.858  0.7008  0.2162  0.6531
 7103TIP3    H242725   0.242   1.590  16.917 -1.9805 -1.3326 -2.0934
 7104TIP3   OH242726   6.039   2.158   0.270  0.4223  0.0808  0.8411
 7104TIP3    H142727   6.070   2.163   0.361  0.4196  2.4860  0.7742
 7104TIP3    H242728   6.112   2.189   0.218 -0.3133  0.8058  0.2250
 7105TIP3   OH242729   1.215   0.654   2.548 -0.6408 -0.1233 -0.0070
 7105TIP3    H142730   1.180   0.741   2.567 -2.0720 -0.2875 -1.6638
 7105TIP3    H242731   1.276   0.637   2.620 -2.3611  1.1051  1.8757
 7106TIP3   OH242732   1.189   3.556  12.881 -0.4243 -0.2648 -0.6806
 7106TIP3    H142733   1.283   3.550  12.893  0.2174  1.5258 -3.8072
 7106TIP3    H242734   1.152   3.522  12.963  2.9069  0.8394  1.4771
 7107TIP3   OH242735   6.196   4.902  16.880 -0.1063 -0.4166 -0.5014
 7107TIP3    H142736   6.249   4.824  16.891  1.5346  0.7546  0.3173
 7107TIP3    H242737   6.254   4.974  16.904 -2.3514  0.8753  1.5338
 7108TIP3   OH242738   1.050   2.582  14.252  0.1475 -0.9440 -0.1805
 7108TIP3    H142739   1.112   2.550  14.318  0.3597  1.2431  0.7870
 7108TIP3    H242740   1.056   2.519  14.181  2.1306 -1.7933  0.6579
 7109TIP3   OH242741   6.448   0.956   3.513  0.3631 -0.4161  0.2153
 7109TIP3    H142742   6.538   0.963   3.544  0.4234 -0.2376  0.0005
 7109TIP3    H242743   6.407   1.039   3.537  0.4608 -0.2005 -0.3382
 7110TIP3   OH242744   1.379   3.309  11.542  0.4684  0.0744 -0.8478
 7110TIP3    H142745   1.425   3.377  11.591  0.4399  0.7107 -1.6782
 7110TIP3    H242746   1.448   3.255  11.505  0.4805 -1.1550  0.8737
 7111TIP3   OH242747   0.741   3.800  15.955  0.0964 -0.2458 -0.1052
 7111TIP3    H142748   0.756   3.781  16.048 -3.8688 -2.1621  0.3300
 7111TIP3    H242749   0.762   3.718  15.910 -4.6428 -1.9065  0.1741
 7112TIP3   OH242750   3.423   3.414  12.479 -0.3067 -0.2365  0.4716
 7112TIP3    H142751   3.513   3.405  12.449 -0.1797  0.3301  0.6805
 7112TIP3    H242752   3.370   3.390  12.402  0.0160 -0.5864  0.3557
 7113TIP3   OH242753   1.389   3.745  13.484  0.0078 -0.1830 -0.2941
 7113TIP3    H142754   1.457   3.761  13.419 -0.5523 -0.0196 -0.8459
 7113TIP3    H242755   1.361   3.832  13.512  0.4459 -0.2509  0.3891
 7114TIP3   OH242756   1.173   6.402  12.604  0.0554 -0.1742 -0.4232
 7114TIP3    H142757   1.079   6.405  12.591 -0.2995 -1.9016  1.2597
 7114TIP3    H242758   1.196   6.487  12.640 -0.4679  1.0043 -2.6730
 7115TIP3   OH242759   6.632   5.311  11.372 -0.3417  0.6398 -0.3358
 7115TIP3    H142760   6.629   5.230  11.423 -0.2904  0.7495 -0.1545
 7115TIP3    H242761   6.658   5.284  11.284  0.2482  0.5275 -0.1301
 7116TIP3   OH242762   4.205   2.151   6.632  0.0703  0.1645 -0.0140
 7116TIP3    H142763   4.289   2.107   6.647  0.6139  1.2343  0.1297
 7116TIP3    H242764   4.142   2.079   6.626  1.1548 -0.7232 -1.2481
 7117TIP3   OH242765   3.659   2.716   1.224 -0.3936 -0.2843  0.6592
 7117TIP3    H142766   3.626   2.797   1.262  1.9170  0.6860  0.7341
 7117TIP3    H242767   3.727   2.686   1.284 -1.0718 -2.2420  0.5529
 7118TIP3   OH242768   1.814   4.306  11.603 -0.2621 -0.4837  0.0297
 7118TIP3    H142769   1.789   4.235  11.545 -0.3261 -0.9022  0.5616
 7118TIP3    H242770   1.909   4.315  11.592 -0.3764 -0.0957 -0.6550
 7119TIP3   OH242771   1.523   3.011   2.685 -0.2059 -0.4593  0.1658
 7119TIP3    H142772   1.561   2.954   2.752 -0.5711 -0.5171  0.3287
 7119TIP3    H242773   1.434   3.029   2.717 -0.1201  0.1382  0.0796
 7120TIP3   OH242774   1.502   2.847  14.874 -0.1119 -0.2974  0.3256
 7120TIP3    H142775   1.515   2.780  14.941 -0.4369  1.3319  2.1124
 7120TIP3    H242776   1.584   2.896  14.873  0.0072 -0.4950 -0.7326
 7121TIP3   OH242777   3.644   2.622   5.745 -0.3581 -0.6392 -0.3495
 7121TIP3    H142778   3.674   2.566   5.817 -0.6295 -0.3897 -0.0368
 7121TIP3    H242779   3.703   2.697   5.747  1.1573 -1.7350 -1.9168
 7122TIP3   OH242780   1.956   5.477   5.062  0.0762  0.0199  0.4289
 7122TIP3    H142781   1.936   5.537   4.991 -2.1399 -1.2839 -0.1215
 7122TIP3    H242782   1.924   5.392   5.033  0.5307 -0.8793  2.3394
 7123TIP3   OH242783   6.544   5.820   0.262 -0.2481 -0.2823  0.1212
 7123TIP3    H142784   6.493   5.849   0.337 -1.1576  0.9889 -0.9285
 7123TIP3    H242785   6.500   5.740   0.233 -1.1022  0.2881 -0.2062
 7124TIP3   OH242786   4.919   6.508   4.594 -0.0436  0.0515 -0.0869
 7124TIP3    H142787   5.009   6.479   4.577 -0.4701  0.0814 -3.0925
 7124TIP3    H242788   4.869   6.426   4.599 -0.2135  0.0352 -1.4413
 7125TIP3   OH242789   3.232   0.207  16.222 -0.3850  0.1321  0.0761
 7125TIP3    H142790   3.195   0.171  16.140 -1.3946  0.2577  0.4579
 7125TIP3    H242791   3.229   0.133  16.283 -0.9085  0.4050  0.3850
 7126TIP3   OH242792   1.726   3.666  11.367  0.6916 -0.7147 -0.0652
 7126TIP3    H142793   1.743   3.705  11.281  1.5994 -0.1759  0.3475
 7126TIP3    H242794   1.784   3.591  11.372  0.0203 -1.2596 -0.2532
 7127TIP3   OH242795   6.425   0.548  16.625 -0.2057 -0.0940 -0.2750
 7127TIP3    H142796   6.499   0.545  16.564 -0.9649 -0.7807 -1.1903
 7127TIP3    H242797   6.350   0.570  16.570 -0.6530  0.9377  0.6934
 7128TIP3   OH242798   5.565   2.348   6.084  0.5064  0.4179  0.0644
 7128TIP3    H142799   5.554   2.253   6.075 -2.3348  0.8654 -3.0760
 7128TIP3    H242800   5.592   2.377   5.997  1.1028  2.5650  0.8944
 7129TIP3   OH242801   5.722   5.491   3.377  0.7180  0.2966 -0.1259
 7129TIP3    H142802   5.699   5.453   3.292  0.7761  1.0138 -0.4682
 7129TIP3    H242803   5.697   5.423   3.440  1.4944 -0.6102 -0.7532
 7130TIP3   OH242804   0.056   0.656   2.763  0.7013 -0.1685  0.8868
 7130TIP3    H142805   0.084   0.698   2.845  0.5221  1.1530  0.3006
 7130TIP3    H242806   0.121   0.684   2.698 -0.4995  0.8192  0.0675
 7131TIP3   OH242807   5.173   0.574  11.206  0.2637  0.2261  0.2247
 7131TIP3    H142808   5.202   0.483  11.208  0.3984  0.2597 -0.1833
 7131TIP3    H242809   5.142   0.591  11.295  0.2425 -0.2160  0.3041
 7132TIP3   OH242810   1.324   2.132   5.305 -0.1126  0.1623 -0.0047
 7132TIP3    H142811   1.243   2.180   5.285 -1.3052 -1.1060  1.4549
 7132TIP3    H242812   1.297   2.067   5.370  2.0533 -0.4869  0.3169
 7133TIP3   OH242813   6.017   5.703   5.779 -0.0975 -0.3786  0.3968
 7133TIP3    H142814   6.044   5.743   5.861 -0.5770 -0.7350  0.7370
 7133TIP3    H242815   5.988   5.615   5.803 -1.0887 -0.1781 -0.0161
 7134TIP3   OH242816   0.798   0.140   6.389 -0.1919 -0.0678  0.1832
 7134TIP3    H142817   0.845   0.134   6.306 -0.4625  0.8882 -0.0554
 7134TIP3    H242818   0.831   0.067   6.441  2.5311  1.2609  0.5015
 7135TIP3   OH242819   6.571   5.197   2.927 -0.5093  0.1573 -0.1902
 7135TIP3    H142820   6.572   5.246   3.009 -0.7980 -1.4579  0.8462
 7135TIP3    H242821   6.631   5.123   2.943 -0.9312 -0.4401 -1.2633
 7136TIP3   OH242822   6.224   3.656  16.627  0.3314 -0.3711  0.2353
 7136TIP3    H142823   6.184   3.572  16.651  1.7379 -1.2598 -0.4179
 7136TIP3    H242824   6.303   3.661  16.680  1.1157 -0.2439 -0.9138
 7137TIP3   OH242825   2.988   6.633  16.868 -0.3544  0.0353  0.3648
 7137TIP3    H142826   3.056   6.570  16.892 -1.0878 -1.3833 -1.0284
 7137TIP3    H242827   3.035   6.713  16.846  0.6339 -0.0650  1.9765
 7138TIP3   OH242828   2.848   6.158  12.339 -0.0708 -0.0333  0.1081
 7138TIP3    H142829   2.789   6.083  12.345 -0.0296  0.0071  1.3427
 7138TIP3    H242830   2.873   6.176  12.430  2.6856 -0.6916 -0.4553
 7139TIP3   OH242831   6.093   5.713  16.091  0.3167 -0.0682 -0.7744
 7139TIP3    H142832   6.152   5.787  16.100  0.0695  0.1035 -0.5664
 7139TIP3    H242833   6.115   5.656  16.165 -1.4296  1.1461  0.7530
 7140TIP3   OH242834   3.471   2.453   1.145  0.0064  0.1108 -0.3067
 7140TIP3    H142835   3.528   2.377   1.151  0.4467  0.5531  1.7130
 7140TIP3    H242836   3.526   2.521   1.106  0.9750  0.5775  1.7534
 7141TIP3   OH242837   0.664   0.674  14.185 -0.5481  0.6849 -0.1655
 7141TIP3    H142838   0.619   0.697  14.104  2.1398 -1.8910 -2.6620
 7141TIP3    H242839   0.691   0.757  14.223 -0.9238  2.0037 -2.5882
 7142TIP3   OH242840   1.943   6.508  16.613 -0.3430  0.2010 -0.2014
 7142TIP3    H142841   1.974   6.423  16.582 -1.3029 -0.4117  0.4405
 7142TIP3    H242842   1.857   6.489  16.651 -1.3144  1.7400 -1.5073
 7143TIP3   OH242843   2.760   3.731  14.177 -0.0178  0.2078  0.4410
 7143TIP3    H142844   2.830   3.796  14.165  0.5200 -0.6169 -1.2182
 7143TIP3    H242845   2.805   3.652  14.207 -0.2837 -0.1967 -0.2070
 7144TIP3   OH242846   1.367   3.059   2.228 -0.1504  0.0477 -0.0479
 7144TIP3    H142847   1.303   3.120   2.265  0.5660  1.2914 -0.7909
 7144TIP3    H242848   1.373   3.084   2.136  1.1333 -0.2816 -0.0685
 7145TIP3   OH242849   1.179   4.468  16.419  0.1137 -0.3477  0.3788
 7145TIP3    H142850   1.139   4.400  16.472 -0.8134  0.0259  0.1855
 7145TIP3    H242851   1.259   4.429  16.384 -0.0410 -1.0858  0.8485
 7146TIP3   OH242852   3.810   5.931  13.728  0.2131 -0.1479  0.2621
 7146TIP3    H142853   3.803   6.026  13.737  0.8494 -0.0755  0.0049
 7146TIP3    H242854   3.720   5.903  13.712 -0.0463  0.3610  0.7756
 7147TIP3   OH242855   1.430   2.582  15.692  0.3080 -0.1811  0.3786
 7147TIP3    H142856   1.409   2.563  15.601  1.1206  2.4831 -0.4665
 7147TIP3    H242857   1.361   2.641  15.721 -0.2904 -1.4853  1.7417
 7148TIP3   OH242858   3.986   2.575   3.908  0.5831 -0.0322 -0.1080
 7148TIP3    H142859   3.914   2.552   3.966  0.0127  1.6711 -0.0729
 7148TIP3    H242860   3.947   2.633   3.842  1.5488 -0.5949 -1.2129
 7149TIP3   OH242861   3.810   0.502  16.194  0.3568  0.0821 -0.0715
 7149TIP3    H142862   3.801   0.413  16.225 -0.7247  0.8047  1.8373
 7149TIP3    H242863   3.721   0.537  16.193  0.7319  1.0917 -0.9585
 7150TIP3   OH242864   4.826   1.311  14.348  0.3214  0.4181  0.2284
 7150TIP3    H142865   4.832   1.235  14.407 -2.3234 -2.7444 -3.1341
 7150TIP3    H242866   4.738   1.346  14.363 -0.0020  0.2051 -1.0763
 7151TIP3   OH242867   3.480   0.694   4.243  0.5119 -0.3501  0.0094
 7151TIP3    H142868   3.480   0.659   4.153 -0.7921 -0.5307  0.0597
 7151TIP3    H242869   3.559   0.747   4.247  1.3038 -1.4035 -0.8220
 7152TIP3   OH242870   5.458   5.945   0.871 -0.0747  0.7277 -0.3346
 7152TIP3    H142871   5.373   5.903   0.858 -0.7729  1.4731  1.4063
 7152TIP3    H242872   5.519   5.892   0.820 -1.2584 -1.0884  0.0241
 7153TIP3   OH242873   1.128   0.795  10.635  0.3202 -0.0844 -0.0249
 7153TIP3    H142874   1.195   0.754  10.580  0.1788  0.4336 -0.5900
 7153TIP3    H242875   1.046   0.776  10.590  0.4282  3.2285 -1.9419
 7154TIP3   OH242876   0.042   6.255  16.347 -0.2370 -0.4429  0.4877
 7154TIP3    H142877   0.018   6.164  16.330  0.9001 -0.4651 -1.2264
 7154TIP3    H242878   0.132   6.263  16.315 -0.7633  1.5984 -0.7245
 7155TIP3   OH242879   5.594   0.366  14.334  0.0019 -0.1277  0.3638
 7155TIP3    H142880   5.656   0.310  14.287  0.7975 -1.0901  2.4353
 7155TIP3    H242881   5.644   0.445  14.355  0.2907 -0.5321  1.2614
 7156TIP3   OH242882   0.100   6.341   1.218  0.2204 -0.4451  0.2118
 7156TIP3    H142883   0.132   6.424   1.254  0.9958  0.2637 -1.9566
 7156TIP3    H242884   0.073   6.363   1.128  0.5952 -2.5804 -0.4684
 7157TIP3   OH242885   2.342   5.769  15.373 -0.0251 -0.0508  0.1358
 7157TIP3    H142886   2.424   5.818  15.381  0.9387 -1.7369  1.0534
 7157TIP3    H242887   2.279   5.834  15.342  0.9861  1.9916  2.0622
 7158TIP3   OH242888   0.980   4.904  16.130 -0.2112  0.2161  0.0908
 7158TIP3    H142889   1.075   4.915  16.132 -0.2158  0.0886  1.1677
 7158TIP3    H242890   0.967   4.813  16.102 -0.0326  0.3957 -0.5905
 7159TIP3   OH242891   5.309   5.088   4.514 -0.1799  0.3591  0.4658
 7159TIP3    H142892   5.344   5.104   4.602 -0.8508  0.5582  0.7027
 7159TIP3    H242893   5.308   5.174   4.472 -1.1519  0.5005  0.7546
 7160TIP3   OH242894   5.348   2.942  13.754  0.3191 -0.4755  0.0576
 7160TIP3    H142895   5.352   2.850  13.729  0.0945 -0.7138  0.8609
 7160TIP3    H242896   5.437   2.975  13.739  0.3347 -0.7575 -0.4722
 7161TIP3   OH242897   3.716   2.563  15.784  0.5380 -0.2345  0.1130
 7161TIP3    H142898   3.691   2.502  15.714  0.6174 -1.7294  1.3186
 7161TIP3    H242899   3.810   2.578  15.771 -0.0746  2.4394 -2.2133
 7162TIP3   OH242900   5.620   4.549   5.680 -0.1073  0.3474 -0.3388
 7162TIP3    H142901   5.704   4.571   5.639 -0.6729 -0.6114 -2.1609
 7162TIP3    H242902   5.594   4.467   5.637 -1.6479  0.2472  0.7069
 7163TIP3   OH242903   2.464   0.923   4.888 -0.1504 -0.7655 -0.0342
 7163TIP3    H142904   2.373   0.916   4.858 -0.2790  0.0128  0.1433
 7163TIP3    H242905   2.500   0.997   4.839  1.0469 -2.3348 -1.6461
 7164TIP3   OH242906   1.245   5.143  16.765 -0.1587 -0.6223  0.0946
 7164TIP3    H142907   1.205   5.139  16.851  1.4815 -0.3214  0.9125
 7164TIP3    H242908   1.285   5.057  16.752  1.4079 -0.0053  0.5882
 7165TIP3   OH242909   1.973   4.617   1.964 -0.0309  0.4507 -0.4109
 7165TIP3    H142910   2.036   4.548   1.944  0.4041  1.1654 -1.5843
 7165TIP3    H242911   1.895   4.595   1.913 -0.3426  0.1681  0.1769
 7166TIP3   OH242912   6.712   0.211  14.879  0.2032  0.0095 -0.1598
 7166TIP3    H142913   6.654   0.281  14.848 -0.5390  0.3031  1.7147
 7166TIP3    H242914   6.800   0.245  14.867 -0.1131  0.6991 -0.5579
 7167TIP3   OH242915   6.612   1.305   2.728  0.0383 -0.3013  0.0495
 7167TIP3    H142916   6.556   1.356   2.787 -1.6123 -1.1610 -0.7004
 7167TIP3    H242917   6.566   1.306   2.644  0.3011 -2.4038 -0.1846
 7168TIP3   OH242918   0.023   0.601  10.397 -0.4386  0.0212  0.2192
 7168TIP3    H142919   0.115   0.623  10.379  0.0749 -0.7954  1.6333
 7168TIP3    H242920   0.004   0.527  10.340 -0.2357  0.2176 -0.1061
 7169TIP3   OH242921   2.881   1.625   6.227  0.9544 -0.4577  0.0307
 7169TIP3    H142922   2.931   1.651   6.305 -0.4572  2.0381  0.2171
 7169TIP3    H242923   2.840   1.542   6.251  0.7399  0.1324  1.8808
 7170TIP3   OH242924   4.921   5.068  16.382  0.4798 -1.0024  0.4759
 7170TIP3    H142925   4.964   5.099  16.462  1.2859 -0.3152 -0.1998
 7170TIP3    H242926   4.952   4.978  16.371  1.2225 -0.7426  0.3747
 7171TIP3   OH242927   2.349   5.659  15.044 -0.4755 -0.7476 -0.4727
 7171TIP3    H142928   2.306   5.621  15.120  0.9078  2.2025  2.0192
 7171TIP3    H242929   2.286   5.650  14.973 -4.8566  2.1253  2.5638
 7172TIP3   OH242930   5.696   4.052  16.378 -0.7799  0.0935 -0.0300
 7172TIP3    H142931   5.614   4.083  16.338 -0.3445 -0.3412 -1.3068
 7172TIP3    H242932   5.749   4.130  16.389 -1.0258  0.2592 -0.0176
 7173TIP3   OH242933   2.828   5.747  16.169  0.2547  0.0222  0.1231
 7173TIP3    H142934   2.893   5.778  16.231  0.4210 -1.0395  0.4971
 7173TIP3    H242935   2.815   5.655  16.191 -0.2113 -0.1937 -0.9564
 7174TIP3   OH242936   6.309   0.652  17.021  0.3477  0.2979  0.0943
 7174TIP3    H142937   6.331   0.568  16.981 -2.3379  0.4959 -2.1055
 7174TIP3    H242938   6.234   0.633  17.078  0.6252  0.9727  0.6977
 7175TIP3   OH242939   0.430   6.026   1.575 -0.3676  0.3546 -0.6451
 7175TIP3    H142940   0.456   5.986   1.492  0.6387  1.3328 -0.8250
 7175TIP3    H242941   0.472   6.112   1.575 -0.6482  0.5230  0.7180
 7176TIP3   OH242942   1.588   1.231  14.974 -0.0686 -0.0998 -0.1552
 7176TIP3    H142943   1.642   1.167  14.928 -1.9065 -1.6441 -0.3019
 7176TIP3    H242944   1.520   1.255  14.912 -0.1977  0.9765  0.3741
 7177TIP3   OH242945   4.945   2.757  13.427 -0.5379  0.2939  0.1974
 7177TIP3    H142946   4.989   2.776  13.510  1.9112 -2.3717 -0.3191
 7177TIP3    H242947   4.902   2.673  13.441 -1.1793  0.4178 -0.8937
 7178TIP3   OH242948   3.712   6.403  12.217  0.5813 -0.2537 -0.2722
 7178TIP3    H142949   3.754   6.340  12.275  1.1061  1.7570  1.6412
 7178TIP3    H242950   3.618   6.393  12.234  0.7468  0.5606  1.2519
 7179TIP3   OH242951   1.089   3.122  13.396  0.2668 -0.2198 -0.1373
 7179TIP3    H142952   1.147   3.048  13.380  0.2828  0.1101 -1.8597
 7179TIP3    H242953   1.056   3.145  13.309 -0.7527  0.9628  0.5360
 7180TIP3   OH242954   2.143   6.586  11.324 -0.8681  0.0264 -0.5497
 7180TIP3    H142955   2.202   6.546  11.261  2.1253 -0.4086  2.2457
 7180TIP3    H242956   2.200   6.637  11.382 -3.3502  0.3655  1.8452
 7181TIP3   OH242957   3.933   0.806  13.447 -0.8066  0.0057 -0.3177
 7181TIP3    H142958   3.928   0.884  13.502 -0.5252  0.3360 -0.7526
 7181TIP3    H242959   3.846   0.800  13.406 -0.4971  0.7178 -1.1143
 7182TIP3   OH242960   3.005   2.804  17.079  0.1100  0.0536  0.4501
 7182TIP3    H142961   2.915   2.773  17.065  0.5184 -0.6773 -0.6075
 7182TIP3    H242962   3.007   2.826  17.173 -1.2903  0.5162  0.4072
 7183TIP3   OH242963   5.080   6.432   6.274 -0.3208  0.5059 -0.7404
 7183TIP3    H142964   4.987   6.451   6.285 -0.5477 -1.1034  0.5948
 7183TIP3    H242965   5.123   6.483   6.343 -0.6536 -1.5026  1.0694
 7184TIP3   OH242966   2.136   1.904  12.766 -0.2546 -0.1398  0.4165
 7184TIP3    H142967   2.164   1.851  12.692 -1.7658  0.8879 -0.9501
 7184TIP3    H242968   2.211   1.904  12.826  0.9367 -1.1334 -1.0211
 7185TIP3   OH242969   5.945   1.944   1.712  0.4419 -0.1558  0.1281
 7185TIP3    H142970   5.933   1.872   1.650  0.9188 -1.1414  1.1414
 7185TIP3    H242971   6.038   1.940   1.736  1.0082  2.1402 -1.3546
 7186TIP3   OH242972   3.150   5.270  16.623  0.3578  0.6509  0.0086
 7186TIP3    H142973   3.078   5.320  16.661  0.4710  0.7988  0.0293
 7186TIP3    H242974   3.120   5.248  16.534 -0.6706 -1.2547  0.7638
 7187TIP3   OH242975   6.075   5.524  11.762 -0.2152 -0.2200 -0.0162
 7187TIP3    H142976   6.151   5.476  11.796 -1.6835 -1.5448  1.6048
 7187TIP3    H242977   6.063   5.489  11.674  1.7526  0.9336 -0.8135
 7188TIP3   OH242978   3.887   2.907   0.022 -0.3136 -0.6508  0.2407
 7188TIP3    H142979   3.922   2.825  -0.012  1.4532  0.4609 -0.7524
 7188TIP3    H242980   3.927   2.976  -0.031 -1.9283  0.8826  0.8665
 7189TIP3   OH242981   3.215   5.358  15.972  0.0753  0.6378  0.1084
 7189TIP3    H142982   3.141   5.298  15.969  0.7683 -0.1779 -1.1186
 7189TIP3    H242983   3.292   5.302  15.965  0.7816  1.5693  0.2059
 7190TIP3   OH242984   5.934   1.829  16.113  0.1155 -0.6769  0.0841
 7190TIP3    H142985   5.840   1.843  16.122  0.3745 -0.2809  3.5858
 7190TIP3    H242986   5.971   1.917  16.114  0.5544 -0.8501 -0.7055
 7191TIP3   OH242987   2.968   2.804  10.846  0.1380  0.0668  0.0420
 7191TIP3    H142988   2.898   2.739  10.836 -0.4793  0.4316  1.6452
 7191TIP3    H242989   3.040   2.770  10.793 -0.9016 -0.8295 -0.8494
 7192TIP3   OH242990   5.040   1.806  14.221 -0.0545  0.4849  0.0355
 7192TIP3    H142991   4.990   1.806  14.303  2.7055  1.1347  1.8853
 7192TIP3    H242992   5.010   1.884  14.175 -0.8418  0.7745  1.0009
 7193TIP3   OH242993   3.345   3.878   4.712 -0.2130 -0.1414  0.4217
 7193TIP3    H142994   3.305   3.792   4.719  1.1889 -0.8315  0.2918
 7193TIP3    H242995   3.313   3.925   4.789  1.2025 -1.7446  2.0742
 7194TIP3   OH242996   3.296   6.507  13.762  0.6175  0.1797 -0.0271
 7194TIP3    H142997   3.361   6.515  13.693 -0.7204  1.2292 -1.2246
 7194TIP3    H242998   3.276   6.414  13.765 -0.1038  0.2377 -1.8547
 7195TIP3   OH242999   6.342   2.791   5.176  0.2044  0.1246 -0.4331
 7195TIP3    H143000   6.344   2.884   5.199 -0.3300  0.9302 -3.2148
 7195TIP3    H243001   6.432   2.769   5.155  0.4158 -0.1613  0.7096
 7196TIP3   OH243002   2.061   4.403  17.059 -0.7986 -0.2078  0.0705
 7196TIP3    H143003   2.133   4.409  17.122  1.6727 -0.9703 -2.5164
 7196TIP3    H243004   2.063   4.312  17.029 -0.0573  0.7191 -3.0448
 7197TIP3   OH243005   2.797   4.511   2.849 -0.2397  0.1555 -0.6246
 7197TIP3    H143006   2.762   4.585   2.800 -1.3609  0.6967  0.9292
 7197TIP3    H243007   2.748   4.511   2.931 -0.4244 -2.4460 -0.6599
 7198TIP3   OH243008   6.729   4.497   1.566  0.0063  0.5330  0.1353
 7198TIP3    H143009   6.816   4.461   1.548  0.5867  2.3885 -1.0059
 7198TIP3    H243010   6.714   4.479   1.659 -0.1361 -3.3057 -0.4593
 7199TIP3   OH243011   4.149   0.218   1.807  0.0615 -0.1047 -0.2928
 7199TIP3    H143012   4.157   0.180   1.719 -0.4322 -0.3069 -0.2502
 7199TIP3    H243013   4.086   0.162   1.852  0.7803 -0.3719  0.3997
 7200TIP3   OH243014   6.325   4.079   2.508 -0.9293 -0.4614 -0.5000
 7200TIP3    H143015   6.304   3.998   2.462  0.1173 -1.3484  0.5101
 7200TIP3    H243016   6.345   4.142   2.439 -0.8654 -1.3335 -1.2909
 7201TIP3   OH243017   6.400   2.311  15.801 -0.2555 -0.6541  0.5225
 7201TIP3    H143018   6.315   2.301  15.844 -0.4538 -1.2264  0.0247
 7201TIP3    H243019   6.404   2.403  15.776  0.3297 -0.0493  2.6730
 7202TIP3   OH243020   1.331   1.538   5.817 -0.0070  0.4519  0.0626
 7202TIP3    H143021   1.261   1.562   5.756 -1.0649 -0.8862  0.6945
 7202TIP3    H243022   1.387   1.616   5.821 -1.3458  1.4955 -0.6002
 7203TIP3   OH243023   4.234   6.731   2.780 -0.2809  0.0025  0.4856
 7203TIP3    H143024   4.159   6.784   2.806 -0.1840 -0.5433  1.9594
 7203TIP3    H243025   4.195   6.647   2.753 -0.2593  0.0088  0.4346
 7204TIP3   OH243026   6.675   2.972  10.827 -0.1992  0.0712 -0.5541
 7204TIP3    H143027   6.704   2.922  10.751  1.1232  1.4794 -1.0529
 7204TIP3    H243028   6.757   2.999  10.870 -0.9016  0.3558  0.6466
 7205TIP3   OH243029   1.644   2.279   4.899  0.6030  0.1487 -0.5904
 7205TIP3    H143030   1.660   2.300   4.991  0.7171 -1.9944 -0.0612
 7205TIP3    H243031   1.617   2.187   4.900 -0.8376  0.4753 -2.5701
 7206TIP3   OH243032   4.126   1.178   1.472 -0.0344  0.1088 -0.2072
 7206TIP3    H143033   4.169   1.128   1.403  0.8841 -0.6071  0.8567
 7206TIP3    H243034   4.073   1.243   1.425  1.3490  0.3037 -1.5792
 7207TIP3   OH243035   2.720   3.905  15.908 -0.1961  0.4502  0.3835
 7207TIP3    H143036   2.659   3.972  15.877 -0.4055 -0.0707 -0.3792
 7207TIP3    H243037   2.805   3.949  15.911 -0.2225  0.6153 -0.6757
 7208TIP3   OH243038   0.665   0.611   3.218  0.0981  0.1216  0.0322
 7208TIP3    H143039   0.618   0.655   3.148 -0.5800  1.2978  1.1863
 7208TIP3    H243040   0.754   0.600   3.184 -0.4667 -0.3443 -1.4082
 7209TIP3   OH243041   2.549   5.457   1.646  1.0991 -0.0379 -0.2306
 7209TIP3    H143042   2.520   5.366   1.642 -0.6759  0.4992 -0.4099
 7209TIP3    H243043   2.553   5.477   1.740 -2.1284  0.7219 -0.1557
 7210TIP3   OH243044   4.544   6.455  12.047  0.5218 -0.0898  0.6388
 7210TIP3    H143045   4.635   6.469  12.021  0.1495  0.2039 -0.5842
 7210TIP3    H243046   4.495   6.460  11.965 -0.6685  0.3676  1.3522
 7211TIP3   OH243047   3.639   4.979  14.568  0.1956 -0.0154  0.3725
 7211TIP3    H143048   3.671   5.069  14.571  0.1311  0.0245 -0.0501
 7211TIP3    H243049   3.649   4.946  14.657 -0.5190  0.6667  0.7184
 7212TIP3   OH243050   2.790   0.245   1.807 -0.1452 -0.6749  0.7386
 7212TIP3    H143051   2.772   0.339   1.799 -1.4513 -0.9636  0.0715
 7212TIP3    H243052   2.791   0.229   1.901  3.0541  0.5165  1.0239
 7213TIP3   OH243053   4.024   3.423   1.550  0.2046  0.0610  0.2360
 7213TIP3    H143054   3.961   3.494   1.541 -1.0316 -1.1268 -1.0866
 7213TIP3    H243055   4.091   3.441   1.484 -0.4436 -0.3151 -0.5373
 7214TIP3   OH243056   0.870   0.041   1.016  0.7821 -0.1209 -0.3768
 7214TIP3    H143057   0.881   0.028   1.110  1.7742 -0.3302 -0.5115
 7214TIP3    H243058   0.792   0.095   1.009  2.5894  2.9120  0.7993
 7215TIP3   OH243059   2.015   1.934   0.577  0.0347 -0.1817 -0.2708
 7215TIP3    H143060   2.047   1.962   0.491 -0.7849  0.5832 -0.3436
 7215TIP3    H243061   2.033   2.009   0.634 -1.2040  0.1080 -0.2221
 7216TIP3   OH243062   2.153   2.428   0.264  0.2110 -0.4605 -0.1679
 7216TIP3    H143063   2.214   2.378   0.209  0.2963  0.9164 -1.3991
 7216TIP3    H243064   2.080   2.450   0.206 -0.0141  0.4847  0.4368
 7217TIP3   OH243065   0.698   4.440   0.475 -0.9081  0.3018  0.6577
 7217TIP3    H143066   0.675   4.347   0.465  1.4682 -0.5012  1.7311
 7217TIP3    H243067   0.676   4.480   0.391 -1.0573 -1.4705 -0.1987
 7218TIP3   OH243068   5.979   1.598  16.497 -0.5629 -0.1813 -0.6182
 7218TIP3    H143069   5.934   1.629  16.576  0.0222 -1.4506  0.2414
 7218TIP3    H243070   5.980   1.502  16.506  1.3444 -0.2426 -1.1460
 7219TIP3   OH243071   5.184   1.150  14.888  0.7076 -0.6086  0.7643
 7219TIP3    H143072   5.163   1.213  14.958  0.7286 -0.7920  0.9349
 7219TIP3    H243073   5.279   1.152  14.882  0.6486  0.3884 -0.1596
 7220TIP3   OH243074   1.076   2.422   0.386 -0.1393  0.4576 -0.4917
 7220TIP3    H143075   1.045   2.512   0.376 -0.4995  0.5560  1.1846
 7220TIP3    H243076   1.150   2.429   0.447 -1.6140 -0.5904  1.5298
 7221TIP3   OH243077   3.928   1.147  13.431 -0.4269  0.0106 -0.3297
 7221TIP3    H143078   3.984   1.175  13.504  0.9005  1.0013 -1.6505
 7221TIP3    H243079   3.893   1.229  13.396  0.8604 -0.1873 -2.2363
 7222TIP3   OH243080   4.509   1.276  15.853 -0.2687  0.0547 -0.3184
 7222TIP3    H143081   4.446   1.299  15.922  2.0503 -1.0390  2.3696
 7222TIP3    H243082   4.479   1.191  15.821  0.8257 -1.5506  2.4931
 7223TIP3   OH243083   3.104   6.738   5.832  0.3939  0.2585 -0.2391
 7223TIP3    H143084   3.112   6.789   5.913  1.2013 -0.1680 -0.0376
 7223TIP3    H243085   3.159   6.661   5.847 -1.0095 -0.8118 -0.4457
 7224TIP3   OH243086   5.840   2.605  12.263  0.2939  0.3500 -0.6974
 7224TIP3    H143087   5.805   2.678  12.314 -0.4267 -0.5051  0.0615
 7224TIP3    H243088   5.782   2.599  12.187 -0.5489 -0.3288 -0.0265
 7225TIP3   OH243089   2.342   4.164  14.607  0.1731 -0.6808  0.0112
 7225TIP3    H143090   2.255   4.148  14.642  0.2566  1.6140  1.5283
 7225TIP3    H243091   2.327   4.200  14.520 -0.2894 -1.8763 -0.4148
 7226TIP3   OH243092   1.142   4.726   3.038  0.2652 -0.6746 -0.1638
 7226TIP3    H143093   1.226   4.715   3.082  0.2662  1.7112  0.5978
 7226TIP3    H243094   1.163   4.773   2.957 -0.3444  0.1969  0.1689
 7227TIP3   OH243095   4.583   3.606  14.317 -0.0803 -0.5016 -0.6919
 7227TIP3    H143096   4.649   3.562  14.370 -0.3060  0.1725  0.1654
 7227TIP3    H243097   4.630   3.681  14.279 -0.3269 -0.0579 -0.1321
 7228TIP3   OH243098   3.798   0.180   6.365  0.5354 -0.2022  0.2621
 7228TIP3    H143099   3.745   0.243   6.317  0.6316 -0.4022 -0.1104
 7228TIP3    H243100   3.885   0.187   6.327  0.7389 -0.0006  0.7525
 7229TIP3   OH243101   4.162   5.886  14.064  0.1014  0.4137  0.5208
 7229TIP3    H143102   4.092   5.945  14.092  1.0688  1.5965  0.5622
 7229TIP3    H243103   4.122   5.830  13.997 -1.7903 -1.2886  2.9095
 7230TIP3   OH243104   2.305   0.717  12.857 -0.2670 -0.2618  0.4004
 7230TIP3    H143105   2.246   0.643  12.845  0.7405 -1.3436  1.7386
 7230TIP3    H243106   2.256   0.793  12.825 -2.6886 -0.9796  2.0820
 7231TIP3   OH243107   4.171   4.884   1.801 -0.2532  0.6221 -0.2278
 7231TIP3    H143108   4.122   4.806   1.774 -1.4138  1.8370 -1.9033
 7231TIP3    H243109   4.148   4.950   1.735  1.6545  2.0293  0.4250
 7232TIP3   OH243110   2.978   5.477   5.552  0.3130 -0.4961 -0.3153
 7232TIP3    H143111   2.978   5.498   5.646 -0.0161 -0.7864 -0.2470
 7232TIP3    H243112   2.899   5.519   5.518 -0.2052 -1.3708 -0.2280
 7233TIP3   OH243113   3.984   1.895   2.529  0.4055  0.9957  0.7700
 7233TIP3    H143114   3.988   1.812   2.576 -0.3457  0.4295 -0.1362
 7233TIP3    H243115   3.993   1.962   2.597  1.1145  0.1821  1.5011
 7234TIP3   OH243116   6.311   2.681  13.433 -0.1210  0.4323  0.4428
 7234TIP3    H143117   6.234   2.722  13.473 -1.5982 -2.0322  0.2934
 7234TIP3    H243118   6.303   2.701  13.340  0.6977  2.0736  0.6876
 7235TIP3   OH243119   1.303   1.556  12.688 -0.5866  0.1790 -0.1393
 7235TIP3    H143120   1.301   1.492  12.759  0.0828  1.6622  1.2973
 7235TIP3    H243121   1.316   1.640  12.732  0.1000  1.1386 -2.0401
 7236TIP3   OH243122   2.770   6.599  10.990 -0.0470  0.0816 -0.2032
 7236TIP3    H143123   2.732   6.515  11.015  0.2918 -0.2291 -0.7009
 7236TIP3    H243124   2.825   6.578  10.914 -0.8992  0.9534 -1.0871
 7237TIP3   OH243125   5.739   2.674  15.937 -0.0690 -0.6724 -0.2817
 7237TIP3    H143126   5.718   2.764  15.960  1.1543 -0.6241  0.7462
 7237TIP3    H243127   5.699   2.621  16.007  0.2703 -0.8306 -0.2056
 7238TIP3   OH243128   2.665   3.821   3.396 -0.0308  0.1113 -0.2718
 7238TIP3    H143129   2.659   3.761   3.471  1.8243 -1.1278 -1.0393
 7238TIP3    H243130   2.746   3.796   3.351 -0.4084  1.6813 -1.9716
 7239TIP3   OH243131   1.119   5.368   0.764  0.1313 -0.3820 -0.3945
 7239TIP3    H143132   1.112   5.343   0.856  4.2043 -1.1270 -0.0867
 7239TIP3    H243133   1.079   5.296   0.716 -0.5250 -0.7956  0.7488
 7240TIP3   OH243134   5.889   3.158  14.646  0.2661 -0.0177 -0.7088
 7240TIP3    H143135   5.825   3.087  14.643  1.8165 -1.8567  3.0365
 7240TIP3    H243136   5.969   3.121  14.609 -0.1251  1.6278 -3.5224
 7241TIP3   OH243137   0.041   5.358  13.171  0.4513 -0.0652 -0.0550
 7241TIP3    H143138  -0.022   5.424  13.143  1.1248  0.3224 -0.6679
 7241TIP3    H243139   0.058   5.378  13.263  1.3082  1.1566 -0.4635
 7242TIP3   OH243140   3.028   1.063  12.631 -0.4532  0.1158 -0.4945
 7242TIP3    H143141   3.004   1.066  12.538 -0.2577  0.1861 -0.5436
 7242TIP3    H243142   2.996   0.978  12.661 -0.3821  0.0268 -0.6640
 7243TIP3   OH243143   6.717   5.811   0.732  0.3820 -0.4695 -0.5924
 7243TIP3    H143144   6.757   5.893   0.702  1.9388 -0.9079  0.2000
 7243TIP3    H243145   6.788   5.747   0.730 -0.1156 -1.1581  1.4061
 7244TIP3   OH243146   3.499   0.077   2.230  0.0486 -0.1235 -0.2145
 7244TIP3    H143147   3.463   0.049   2.314 -1.4660 -0.4725 -0.9542
 7244TIP3    H243148   3.592   0.093   2.248  0.0847 -1.6757  1.1654
 7245TIP3   OH243149   2.928   5.675   5.757  0.2557  0.0811 -0.2789
 7245TIP3    H143150   2.978   5.607   5.802 -1.6585 -1.4503 -0.3440
 7245TIP3    H243151   2.836   5.651   5.770 -0.4768  2.2134 -1.0147
 7246TIP3   OH243152   4.471   6.428  12.740  0.1259 -0.1674  0.0180
 7246TIP3    H143153   4.554   6.463  12.773  0.2140  0.0639 -0.4515
 7246TIP3    H243154   4.467   6.339  12.775  1.1089 -0.5822 -0.8759
 7247TIP3   OH243155   0.146   5.729  13.617  0.0219  0.1868  0.1344
 7247TIP3    H143156   0.233   5.748  13.651 -0.3801  0.3033  1.1180
 7247TIP3    H243157   0.129   5.638  13.643  0.1040 -0.0553 -0.6237
 7248TIP3   OH243158   1.460   1.259   5.198 -0.0158  0.0288 -0.3224
 7248TIP3    H143159   1.452   1.164   5.185  0.4785  0.1002 -1.2452
 7248TIP3    H243160   1.383   1.295   5.156 -0.5494  0.0080  0.6083
 7249TIP3   OH243161   4.572   4.852  12.144  0.2808 -0.1258 -0.5047
 7249TIP3    H143162   4.623   4.867  12.224 -0.5433 -0.8172  0.1635
 7249TIP3    H243163   4.539   4.763  12.153  0.3568 -0.2874 -1.7281
 7250TIP3   OH243164   2.667   0.155   2.448 -0.2923 -0.0955  0.0043
 7250TIP3    H143165   2.659   0.248   2.427  0.4597 -0.4443 -2.0985
 7250TIP3    H243166   2.590   0.135   2.500 -0.8854  1.5271 -0.1940
 7251TIP3   OH243167   1.365   1.562   1.380  0.3976 -0.7662 -0.2576
 7251TIP3    H143168   1.417   1.586   1.457  0.0872  1.3128 -0.6401
 7251TIP3    H243169   1.292   1.512   1.416 -0.2857  1.0032  1.0036
 7252TIP3   OH243170   5.758   3.352   5.615 -0.0792 -0.3207  0.4776
 7252TIP3    H143171   5.690   3.286   5.612  0.2864 -0.6542 -1.0885
 7252TIP3    H243172   5.745   3.396   5.700 -0.2531 -2.4437  1.6123
 7253TIP3   OH243173   3.004   5.767  14.762  0.2702  0.2310 -0.5141
 7253TIP3    H143174   2.939   5.792  14.695 -0.5982 -0.7575 -0.0760
 7253TIP3    H243175   3.003   5.671  14.761 -0.3427  0.1708  1.4293
 7254TIP3   OH243176   2.326   0.782  12.262 -0.7538 -0.2810 -0.2499
 7254TIP3    H143177   2.390   0.713  12.282 -0.5231 -0.1561 -0.5350
 7254TIP3    H243178   2.353   0.813  12.175 -0.2766  0.8230  0.2810
 7255TIP3   OH243179   2.448   2.342  15.854  0.1562  0.0084  0.8284
 7255TIP3    H143180   2.372   2.336  15.912 -0.3458 -0.5625  0.1299
 7255TIP3    H243181   2.502   2.266  15.877 -1.8234 -2.4638 -1.8713
 7256TIP3   OH243182   4.409   3.547  13.343  0.3570 -0.3212  0.0913
 7256TIP3    H143183   4.320   3.547  13.380  1.0306  0.0621  1.7836
 7256TIP3    H243184   4.451   3.470  13.381  1.7591  1.2703  1.9779
 7257TIP3   OH243185   5.631   1.267  14.610 -0.6542  0.0928 -0.1371
 7257TIP3    H143186   5.699   1.278  14.677 -0.3968 -3.7600  0.4762
 7257TIP3    H243187   5.560   1.325  14.637  0.8780  1.3608  1.3731
 7258TIP3   OH243188   4.210   2.501   1.767  0.2213  0.0471  0.3214
 7258TIP3    H143189   4.288   2.517   1.714  0.1924 -0.6414  0.0610
 7258TIP3    H243190   4.148   2.459   1.707  0.7194 -2.1409  1.2264
 7259TIP3   OH243191   4.891   2.917   4.604  0.0383  0.6283 -0.2992
 7259TIP3    H143192   4.840   2.878   4.675  2.0222 -1.4073  0.1509
 7259TIP3    H243193   4.934   2.993   4.644 -0.5823  0.8104  0.0349
 7260TIP3   OH243194   2.226   1.735  12.275  0.2514 -0.2436 -0.4048
 7260TIP3    H143195   2.138   1.760  12.245 -0.6120 -0.5638  1.6898
 7260TIP3    H243196   2.234   1.643  12.251  0.2714 -0.0606 -1.1258
 7261TIP3   OH243197   4.070   5.869   1.446 -0.6620 -0.2818  0.1871
 7261TIP3    H143198   4.155   5.900   1.477 -0.7060  2.0426 -1.6944
 7261TIP3    H243199   4.084   5.778   1.422  0.5100 -0.7982  2.5263
 7262TIP3   OH243200   2.739   2.113   1.185  0.3515  0.5498  0.3750
 7262TIP3    H143201   2.728   2.023   1.215 -1.5911  0.7127  0.2372
 7262TIP3    H243202   2.716   2.166   1.261 -0.7796  0.9251 -0.2058
 7263TIP3   OH243203   0.464   5.451  15.429 -0.5904 -0.5609 -0.2628
 7263TIP3    H143204   0.539   5.452  15.369 -0.5182  0.3657 -0.1721
 7263TIP3    H243205   0.407   5.521  15.396  0.3785  1.3533  1.8819
 7264TIP3   OH243206   2.519   2.713  16.749  0.1099  0.0821 -0.6600
 7264TIP3    H143207   2.502   2.795  16.796 -1.1681 -1.5321  1.9263
 7264TIP3    H243208   2.433   2.670  16.745  1.3597 -3.3024  2.6066
 7265TIP3   OH243209   0.317   1.191  11.702 -0.2649 -0.1608  0.0511
 7265TIP3    H143210   0.383   1.235  11.755 -1.2227  1.6176 -0.1650
 7265TIP3    H243211   0.292   1.255  11.635 -0.4673 -1.6609 -1.3900
 7266TIP3   OH243212   6.109   3.432  12.990 -0.2198  0.2900  0.3128
 7266TIP3    H143213   6.122   3.514  12.942  2.7780 -0.6367 -0.6638
 7266TIP3    H243214   6.182   3.427  13.050 -0.5734 -1.4747  0.6470
 7267TIP3   OH243215   6.608   0.407  13.714  0.0653 -0.7940 -0.1836
 7267TIP3    H143216   6.520   0.444  13.714  0.1139 -0.5477  2.3609
 7267TIP3    H243217   6.652   0.449  13.640 -1.5530  0.0396 -0.7010
 7268TIP3   OH243218   2.200   3.791  17.148 -0.6154 -0.1383 -0.0574
 7268TIP3    H143219   2.158   3.876  17.161 -0.3910  0.3220 -1.9442
 7268TIP3    H243220   2.135   3.727  17.177 -0.8530  0.6492  1.2384
 7269TIP3   OH243221   1.968   5.063  10.963  0.3441  0.1322 -0.4253
 7269TIP3    H143222   1.882   5.025  10.980 -0.7430  2.5913  0.0319
 7269TIP3    H243223   2.030   4.992  10.979 -1.4922 -1.2589  0.8677
 7270TIP3   OH243224   0.775   3.409   1.382  0.1646 -0.2892 -0.0664
 7270TIP3    H143225   0.681   3.410   1.364  0.0256 -0.7197  0.5966
 7270TIP3    H243226   0.816   3.420   1.296 -0.4856 -0.6134 -0.4249
 7271TIP3   OH243227   0.516   1.315  11.841 -0.0934 -0.3632 -0.2043
 7271TIP3    H143228   0.552   1.377  11.779 -2.5481 -0.5315 -1.9622
 7271TIP3    H243229   0.493   1.368  11.917  0.2818  0.3955 -0.6067
 7272TIP3   OH243230   3.171   3.008   4.966  0.0841 -0.4457  0.3335
 7272TIP3    H143231   3.247   3.026   4.911 -0.5535  0.6752 -0.2056
 7272TIP3    H243232   3.107   2.968   4.907  0.4858 -2.0663  0.9372
 7273TIP3   OH243233   3.517   6.347   1.954  0.4351 -0.2507 -0.1920
 7273TIP3    H143234   3.471   6.399   1.889  0.2850  0.0677  0.1676
 7273TIP3    H243235   3.458   6.344   2.029  1.0888  0.3548  0.3588
 7274TIP3   OH243236   3.422   2.538  14.378  0.4731  0.2891 -0.6756
 7274TIP3    H143237   3.405   2.547  14.472  2.1282 -0.6737 -0.2432
 7274TIP3    H243238   3.505   2.584  14.364 -0.1305  1.0809 -1.8433
 7275TIP3   OH243239   6.228   3.067  16.049  0.5256  0.7285 -0.1496
 7275TIP3    H143240   6.263   3.138  16.103  0.3940  0.8573 -0.2329
 7275TIP3    H243241   6.212   2.996  16.110  0.2027  0.9396  0.0090
 7276TIP3   OH243242   5.050   6.533  13.870  0.4032  0.3399  0.3150
 7276TIP3    H143243   5.113   6.472  13.907 -2.9492 -1.9650  2.8479
 7276TIP3    H243244   5.040   6.600  13.938 -2.0607 -1.1208  1.5423
 7277TIP3   OH243245   6.015   2.207  12.408  0.1306 -0.0803 -0.4324
 7277TIP3    H143246   5.930   2.250  12.415 -0.8603 -1.8980 -0.4019
 7277TIP3    H243247   6.058   2.223  12.492 -0.0913  1.0096 -0.5136
 7278TIP3   OH243248   3.130   2.729   2.520  0.1022  0.3625  0.2748
 7278TIP3    H143249   3.124   2.823   2.500 -0.1070  0.3817  0.4291
 7278TIP3    H243250   3.045   2.707   2.559 -0.8317 -0.4375 -2.0111
 7279TIP3   OH243251   2.068   1.917   6.193 -0.1469 -0.3085  0.4622
 7279TIP3    H143252   2.027   1.911   6.279 -1.6412 -0.9594 -0.2622
 7279TIP3    H243253   1.997   1.943   6.134  1.2092  1.9868 -0.3148
 7280TIP3   OH243254   3.285   2.992   3.366 -0.1942  0.7375  0.3899
 7280TIP3    H143255   3.213   3.023   3.311  0.9470  1.5890 -0.6785
 7280TIP3    H243256   3.358   3.050   3.345  0.8966 -0.2802  1.2240
 7281TIP3   OH243257   5.359   0.346  14.156  0.2177 -0.4831  0.1387
 7281TIP3    H143258   5.394   0.368  14.242 -0.6026 -0.2940  0.4283
 7281TIP3    H243259   5.266   0.333  14.170 -0.1218  0.6326 -0.9107
 7282TIP3   OH243260   4.628   6.196   1.299 -0.4220  0.1499  0.1328
 7282TIP3    H143261   4.553   6.254   1.316 -1.5089 -0.7721 -1.2549
 7282TIP3    H243262   4.679   6.243   1.234 -0.4681  0.2290  0.1530
 7283TIP3   OH243263   1.364   1.308  12.224  0.0385 -0.1273 -0.3303
 7283TIP3    H143264   1.416   1.283  12.147 -0.0083  2.1585 -1.1811
 7283TIP3    H243265   1.287   1.352  12.187 -0.8727 -0.5586  1.0031
 7284TIP3   OH243266   4.896   3.374  13.353  0.6010  0.0148 -0.0431
 7284TIP3    H143267   4.877   3.306  13.289 -0.5269  1.6849 -1.6026
 7284TIP3    H243268   4.989   3.364  13.373 -0.1163 -3.9922  2.3689
 7285TIP3   OH243269   2.741   2.634  12.339 -0.1966  0.4532  0.3335
 7285TIP3    H143270   2.730   2.541  12.320  0.4356  0.2519  0.8757
 7285TIP3    H243271   2.836   2.647  12.339 -0.2090  0.7553  1.7630
 7286TIP3   OH243272   3.357   5.593   5.764 -0.1972 -0.5898 -0.1762
 7286TIP3    H143273   3.261   5.596   5.769 -0.1988 -1.2720  0.3991
 7286TIP3    H243274   3.384   5.559   5.850  0.6285  0.7658  0.1258
 7287TIP3   OH243275   6.469   0.545   5.044 -0.3201  0.8513  0.7070
 7287TIP3    H143276   6.376   0.552   5.024 -0.4275 -0.8548  0.4871
 7287TIP3    H243277   6.472   0.533   5.139 -0.5456 -1.8025  0.4335
 7288TIP3   OH243278   4.238   2.312   5.731  0.0193  1.0022 -0.0892
 7288TIP3    H143279   4.291   2.291   5.654 -2.0274  0.6956 -1.4750
 7288TIP3    H243280   4.237   2.231   5.782  0.2937  0.7951 -0.4100
 7289TIP3   OH243281   5.898   6.319  12.852  1.0776  0.4823 -0.2957
 7289TIP3    H143282   5.840   6.353  12.784 -1.0723  0.1261  1.2752
 7289TIP3    H243283   5.889   6.380  12.925  1.0380 -0.6989  0.7322
 7290TIP3   OH243284   5.631   6.328  15.957 -0.0873 -0.6711 -0.0476
 7290TIP3    H143285   5.648   6.359  16.045 -0.0071  1.2302 -0.6938
 7290TIP3    H243286   5.717   6.306  15.922  0.4259  2.2615 -0.9074
 7291TIP3   OH243287   4.981   6.200  14.165  0.4332 -0.0924  0.1527
 7291TIP3    H143288   4.909   6.233  14.220  0.1633 -1.2468  0.5098
 7291TIP3    H243289   5.060   6.235  14.206  0.2298 -0.8447  1.2274
 7292TIP3   OH243290   1.383   0.618   1.413 -0.2492 -0.1487  0.4724
 7292TIP3    H143291   1.413   0.636   1.325 -1.1451 -1.1817 -0.0726
 7292TIP3    H243292   1.461   0.624   1.468  0.8456 -2.0761 -0.7766
 7293TIP3   OH243293   5.547   4.487   3.405  0.0233  0.2962  0.5509
 7293TIP3    H143294   5.469   4.537   3.429 -0.1358  0.4087 -0.1597
 7293TIP3    H243295   5.592   4.543   3.341  0.2240 -0.1509  0.2928
 7294TIP3   OH243296   2.191   3.473  15.797 -0.3803  0.3026 -0.4094
 7294TIP3    H143297   2.111   3.433  15.832  0.4857 -0.4938  0.7695
 7294TIP3    H243298   2.177   3.476  15.702 -2.1915  1.0983 -0.1771
 7295TIP3   OH243299   6.731   1.649   5.398  0.1297  0.2200 -0.1426
 7295TIP3    H143300   6.816   1.682   5.371 -0.6626  2.2229 -0.3532
 7295TIP3    H243301   6.678   1.650   5.318 -0.1327 -0.9584 -0.0080
 7296TIP3   OH243302   1.595   3.834  13.301  0.4243 -0.1080 -0.2263
 7296TIP3    H143303   1.570   3.760  13.246 -0.8138 -0.1317  0.3335
 7296TIP3    H243304   1.640   3.895  13.242  1.8386 -1.4574 -0.6086
 7297TIP3   OH243305   3.420   3.295  14.007  0.7080 -0.1235  0.0281
 7297TIP3    H143306   3.324   3.294  14.006  0.6634  1.8148 -0.5957
 7297TIP3    H243307   3.442   3.312  14.099  0.5265 -1.8207  0.4258
 7298TIP3   OH243308   6.447   6.343  11.794  0.2962 -0.0052  0.1087
 7298TIP3    H143309   6.452   6.250  11.774  0.0200 -0.1868  0.8529
 7298TIP3    H243310   6.505   6.355  11.869  0.4066  0.4402 -0.0432
 7299TIP3   OH243311   2.909   1.308   5.687  0.0514 -0.0527  0.1041
 7299TIP3    H143312   2.911   1.338   5.778  2.9615 -3.1590  1.2748
 7299TIP3    H243313   2.821   1.273   5.675 -0.5060  0.7621  1.5788
 7300TIP3   OH243314   1.405   5.604  12.010  0.5863 -0.6397  0.4242
 7300TIP3    H143315   1.388   5.667  12.080  0.5448 -0.7748  0.5367
 7300TIP3    H243316   1.499   5.610  11.994  0.2730  1.2495 -1.2721
 7301TIP3   OH243317   3.332   4.841  13.070  0.3452 -0.2015  0.2628
 7301TIP3    H143318   3.252   4.830  13.019  1.1737 -1.8736 -0.7385
 7301TIP3    H243319   3.388   4.769  13.044  0.8555 -1.1631  3.5389
 7302TIP3   OH243320   5.645   3.746  13.658 -0.5404 -0.8280 -0.2015
 7302TIP3    H143321   5.669   3.790  13.739 -0.3861  0.6280 -0.9861
 7302TIP3    H243322   5.563   3.701  13.677 -0.0817 -1.1891  0.9675
 7303TIP3   OH243323   3.355   4.791  14.906 -0.3356  0.4348  0.4311
 7303TIP3    H143324   3.336   4.718  14.848 -1.2418 -0.1039  1.3743
 7303TIP3    H243325   3.283   4.791  14.970  0.0686  1.6528  0.9245
 7304TIP3   OH243326   6.244   0.003  12.123 -0.1627  0.9955 -0.3216
 7304TIP3    H143327   6.161   0.050  12.108 -0.1737  1.5026  1.1039
 7304TIP3    H243328   6.309   0.073  12.127  0.0099  0.7957  0.5821
 7305TIP3   OH243329   3.644   4.405   3.265  0.8196 -0.3897  0.3529
 7305TIP3    H143330   3.671   4.313   3.259 -1.9979 -1.2642 -0.6759
 7305TIP3    H243331   3.582   4.406   3.339  0.8535  0.6975  0.3768
 7306TIP3   OH243332   4.754   0.947   5.939  0.0191  0.3850  0.4692
 7306TIP3    H143333   4.843   0.950   5.975  0.2565  1.1193 -0.1368
 7306TIP3    H243334   4.697   0.962   6.014  0.4973  1.8410  0.5835
 7307TIP3   OH243335   6.020   3.277  12.079 -0.4305  0.3334 -0.5491
 7307TIP3    H143336   5.936   3.313  12.052 -1.6013 -1.6258  0.2707
 7307TIP3    H243337   6.046   3.220  12.006 -0.5597 -0.1896 -0.1939
 7308TIP3   OH243338   2.801   6.372   1.718  0.0383  0.6140 -0.1585
 7308TIP3    H143339   2.834   6.323   1.642  1.1539  1.5294 -0.2817
 7308TIP3    H243340   2.719   6.411   1.687 -0.1391 -0.0139 -0.5022
 7309TIP3   OH243341   2.075   3.007  15.344 -0.6379 -0.0109 -0.0410
 7309TIP3    H143342   2.051   2.972  15.259 -0.4963 -1.5736  0.5347
 7309TIP3    H243343   1.992   3.028  15.387 -0.7660 -0.5546 -0.0230
 7310TIP3   OH243344   3.313   2.704   4.850  0.1944 -0.3295 -0.1923
 7310TIP3    H143345   3.355   2.680   4.933 -0.9523  1.7786  1.0788
 7310TIP3    H243346   3.367   2.775   4.816 -0.0617 -0.3380 -0.6254
 7311TIP3   OH243347   0.165   3.269  11.712  0.2658  0.3137  0.2419
 7311TIP3    H143348   0.164   3.183  11.671  0.9420  0.1003  0.6621
 7311TIP3    H243349   0.083   3.310  11.684 -0.2437 -0.6143  0.3496
 7312TIP3   OH243350   1.731   6.620   0.001  0.1210  0.0636  0.1606
 7312TIP3    H143351   1.637   6.625   0.014  0.3862  2.1840  1.7142
 7312TIP3    H243352   1.758   6.543   0.051 -0.6930 -0.2825  0.0875
 7313TIP3   OH243353   0.490   0.914   4.224 -0.5118  0.6672  0.4601
 7313TIP3    H143354   0.531   0.841   4.270 -1.9742  0.2395  1.1730
 7313TIP3    H243355   0.454   0.968   4.294 -3.3600 -0.3369 -0.0933
 7314TIP3   OH243356   4.294   3.496   2.890 -0.3414 -0.5425 -0.0225
 7314TIP3    H143357   4.365   3.439   2.862 -0.0049 -1.3348  2.2366
 7314TIP3    H243358   4.230   3.492   2.818  0.6295 -2.0667 -0.8466
 7315TIP3   OH243359   4.768   5.166   3.734 -0.4614  0.4957 -0.5072
 7315TIP3    H143360   4.819   5.156   3.814 -0.3232  1.0447 -0.5221
 7315TIP3    H243361   4.831   5.150   3.663 -0.6024 -0.0717 -0.5104
 7316TIP3   OH243362   6.461   5.281   0.146 -0.4062 -0.4406 -0.6777
 7316TIP3    H143363   6.453   5.243   0.234 -2.2600  0.5518 -0.3785
 7316TIP3    H243364   6.555   5.300   0.137 -0.0526 -1.3626  0.7222
 7317TIP3   OH243365   2.954   2.366  13.798  0.1149 -0.0052 -0.4667
 7317TIP3    H143366   2.959   2.287  13.743  0.5844 -0.2085 -0.1338
 7317TIP3    H243367   2.864   2.366  13.832  0.2657 -0.6795 -0.0562
 7318TIP3   OH243368   0.416   1.851   2.722 -0.0200 -0.4031  0.5691
 7318TIP3    H143369   0.342   1.911   2.726 -0.7818 -1.2373 -0.4529
 7318TIP3    H243370   0.487   1.898   2.766 -0.8709  0.8117  0.7068
 7319TIP3   OH243371   6.458   1.915   5.224  0.0826  0.2918 -0.0175
 7319TIP3    H143372   6.531   1.949   5.275 -0.8972  1.2193  0.7946
 7319TIP3    H243373   6.380   1.951   5.265 -0.8114 -0.0236 -1.3567
 7320TIP3   OH243374   0.769   3.753   2.906 -0.4944 -0.3180 -0.1385
 7320TIP3    H143375   0.755   3.667   2.947 -0.0539  1.2814  3.8777
 7320TIP3    H243376   0.692   3.766   2.851 -2.4257 -1.8747  1.9769
 7321TIP3   OH243377   3.088   4.540   0.346  0.3278  0.1724 -0.6084
 7321TIP3    H143378   3.041   4.607   0.297  1.6238  1.4120 -0.2371
 7321TIP3    H243379   3.147   4.500   0.282 -1.5327 -1.7769 -1.2120
 7322TIP3   OH243380   5.420   6.294   0.174  0.2582  0.2919  0.2121
 7322TIP3    H143381   5.474   6.365   0.139  0.0777 -0.8987 -2.8199
 7322TIP3    H243382   5.336   6.334   0.193  0.4085  1.0760 -0.6954
 7323TIP3   OH243383   4.525   1.716   6.583  0.5242  0.0155  0.1391
 7323TIP3    H143384   4.518   1.689   6.674  1.5354 -1.5969 -0.2228
 7323TIP3    H243385   4.593   1.660   6.546  0.6632  1.1495 -1.4274
 7324TIP3   OH243386   5.277   3.014  17.162 -0.0497 -0.0670  0.5971
 7324TIP3    H143387   5.182   3.025  17.165 -0.1976 -1.3843  1.7552
 7324TIP3    H243388   5.292   2.930  17.205  1.8394  1.2869  2.7673
 7325TIP3   OH243389   5.900   4.403   1.456 -0.0643  0.0099 -0.0237
 7325TIP3    H143390   5.992   4.427   1.465  0.6634 -1.8041 -1.8737
 7325TIP3    H243391   5.860   4.478   1.411  0.6903  0.4407 -0.0005
 7326TIP3   OH243392   5.048   1.517   2.231  0.0350  0.0128 -0.4791
 7326TIP3    H143393   5.049   1.434   2.280  0.5048  0.8818  1.0297
 7326TIP3    H243394   4.957   1.528   2.204  0.1309 -1.4555 -1.5516
 7327TIP3   OH243395   2.239   6.252  13.548  0.0143  0.5944  0.1710
 7327TIP3    H143396   2.264   6.206  13.468 -1.4922 -0.3415  0.2176
 7327TIP3    H243397   2.194   6.331  13.517  3.1271  2.4971  0.0767
 7328TIP3   OH243398   6.102   3.697  14.108 -0.2830 -0.3549  0.1405
 7328TIP3    H143399   6.132   3.613  14.144  0.5998 -0.1231 -0.0310
 7328TIP3    H243400   6.055   3.738  14.181  0.4962 -0.3890  0.6768
 7329TIP3   OH243401   2.670   3.373   0.158 -0.0176  0.4057  0.4020
 7329TIP3    H143402   2.576   3.356   0.163  0.3355 -1.3931  2.2357
 7329TIP3    H243403   2.690   3.365   0.064 -1.6841  0.8752 -0.0275
 7330TIP3   OH243404   5.672   3.471  12.903 -0.1865  0.0459  0.3445
 7330TIP3    H143405   5.653   3.415  12.828  0.0245  1.0177 -0.4569
 7330TIP3    H243406   5.597   3.460  12.962 -0.6610 -0.2335 -0.3056
 7331TIP3   OH243407   0.549   6.479  16.943 -0.2785  0.3804 -0.0026
 7331TIP3    H143408   0.576   6.513  17.028  0.3617  0.7778 -0.3595
 7331TIP3    H243409   0.485   6.543  16.910  1.1571  1.4495 -0.8119
 7332TIP3   OH243410   3.017   0.440  11.294 -0.3979 -0.3680  0.0666
 7332TIP3    H143411   2.921   0.446  11.292 -0.4266 -0.5265  0.5800
 7332TIP3    H243412   3.039   0.463  11.384  0.0502 -0.3158 -0.0582
 7333TIP3   OH243413   4.543   3.463   5.407  0.2092 -0.1522  0.2692
 7333TIP3    H143414   4.576   3.472   5.496  2.5323  0.2995 -0.5501
 7333TIP3    H243415   4.539   3.369   5.392 -0.2306 -0.2306  0.8348
 7334TIP3   OH243416   5.957   4.772  15.363 -0.0823  0.1624 -0.9304
 7334TIP3    H143417   5.996   4.720  15.293 -1.0834  0.1279 -1.4709
 7334TIP3    H243418   5.864   4.775  15.343 -0.7044 -1.3362  1.3456
 7335TIP3   OH243419   2.070   1.750  15.827  0.0166  0.6350 -0.0344
 7335TIP3    H143420   2.154   1.791  15.806  0.4156  0.3875  0.9960
 7335TIP3    H243421   2.015   1.823  15.856  1.0169  0.4374  2.7043
 7336TIP3   OH243422   4.189   3.354   0.371  0.1303  0.6164 -0.5088
 7336TIP3    H143423   4.190   3.353   0.467 -2.1365  1.9624 -0.3932
 7336TIP3    H243424   4.147   3.438   0.349  0.4104  0.2340 -2.6734
 7337TIP3   OH243425   0.224   1.716  16.400  0.4424 -0.5743 -0.0478
 7337TIP3    H143426   0.279   1.669  16.463  0.7171  0.6748  0.6791
 7337TIP3    H243427   0.165   1.649  16.365  0.0681 -1.2696  1.7750
 7338TIP3   OH243428   2.116   6.318   4.846  0.2244  0.0589 -0.2943
 7338TIP3    H143429   2.042   6.366   4.884 -0.5791  0.3728 -2.1566
 7338TIP3    H243430   2.087   6.227   4.845  0.9282 -0.2103  1.3446
 7339TIP3   OH243431   5.465   5.806  15.223 -0.1904 -0.1936  0.7951
 7339TIP3    H143432   5.544   5.756  15.201  0.6340  1.0120  0.9166
 7339TIP3    H243433   5.415   5.808  15.142  0.8730  0.7314  0.1341
 7340TIP3   OH243434   2.013   0.454  17.217 -0.1391 -0.0379 -0.0674
 7340TIP3    H143435   1.935   0.411  17.254  0.1255 -0.5836 -0.1305
 7340TIP3    H243436   2.058   0.384  17.170 -1.8745  1.1082 -3.8567
 7341TIP3   OH243437   3.018   6.443   2.344 -0.7566 -0.4987  0.2244
 7341TIP3    H143438   3.046   6.530   2.373 -0.7797 -0.6574  0.7387
 7341TIP3    H243439   2.956   6.460   2.272 -1.3055 -0.0640  0.7856
 7342TIP3   OH243440   5.032   1.662   5.579  0.1560 -0.4552 -0.5508
 7342TIP3    H143441   5.081   1.639   5.658 -0.2095 -0.5275 -0.3393
 7342TIP3    H243442   5.062   1.601   5.513 -0.9336 -1.6906  0.0495
 7343TIP3   OH243443   3.539   4.583  11.164  0.5524 -0.0808  0.1163
 7343TIP3    H143444   3.504   4.667  11.195 -2.0097 -0.9761 -0.1892
 7343TIP3    H243445   3.491   4.565  11.084  0.0940 -2.4490  0.8519
 7344TIP3   OH243446   3.178   2.370   2.191  0.1207 -0.3091 -0.4349
 7344TIP3    H143447   3.221   2.442   2.145  1.7305  0.2217  1.7030
 7344TIP3    H243448   3.099   2.353   2.141  0.5965  1.7495 -2.0270
 7345TIP3   OH243449   1.457   3.650  13.919 -0.4957 -0.4165  0.1224
 7345TIP3    H143450   1.459   3.733  13.967  2.5271 -1.1896  1.6182
 7345TIP3    H243451   1.368   3.643  13.885 -1.6372  2.1231  2.2720
 7346TIP3   OH243452   1.292   1.261  16.971  0.1351 -0.0768 -0.2892
 7346TIP3    H143453   1.269   1.183  16.919  2.3644  0.0173 -1.5399
 7346TIP3    H243454   1.221   1.323  16.953 -1.1664 -1.4529 -0.0613
 7347TIP3   OH243455   3.435   0.193  11.791 -0.2772  0.3896 -0.1051
 7347TIP3    H143456   3.366   0.139  11.830  0.6099 -2.0510 -1.6196
 7347TIP3    H243457   3.413   0.194  11.697  1.2923  0.1634 -0.5104
 7348TIP3   OH243458   6.710   1.322  12.046 -0.3501 -0.5945  0.4320
 7348TIP3    H143459   6.655   1.280  12.112  0.3876  0.7282  1.9693
 7348TIP3    H243460   6.695   1.416  12.058  0.4891 -0.2962 -0.6831
 7349TIP3   OH243461   6.100   5.721  10.927 -0.5116 -0.1480 -0.3043
 7349TIP3    H143462   6.157   5.648  10.905 -0.5111 -0.4315  0.5874
 7349TIP3    H243463   6.156   5.798  10.923 -0.0196 -0.4396  0.6884
 7350TIP3   OH243464   3.274   0.415  13.782 -0.2482 -0.0788  0.2195
 7350TIP3    H143465   3.319   0.348  13.730  1.6920  0.5657  0.9837
 7350TIP3    H243466   3.216   0.459  13.720  0.7071 -0.4771 -0.9850
 7351TIP3   OH243467   3.974   1.623  13.619 -0.3094 -0.1940 -0.2301
 7351TIP3    H143468   3.880   1.626  13.640 -0.2983 -1.4338  0.0947
 7351TIP3    H243469   4.013   1.690  13.675 -0.8510 -0.5167  0.5657
 7352TIP3   OH243470   1.009   2.093   5.843 -0.0424  0.7087 -0.0612
 7352TIP3    H143471   0.972   2.059   5.924  0.6216 -0.0750 -0.0775
 7352TIP3    H243472   0.933   2.107   5.786 -0.2732 -2.0176 -0.5215
 7353TIP3   OH243473   3.919   2.178   2.321 -0.1532  0.8059 -0.1337
 7353TIP3    H143474   3.844   2.232   2.293 -1.7884 -2.1817 -2.0404
 7353TIP3    H243475   3.987   2.200   2.257 -0.0433  2.0626  0.3759
 7354TIP3   OH243476   2.519   4.536  12.080 -0.7746  0.4902 -0.2391
 7354TIP3    H143477   2.457   4.506  12.013 -0.1904  0.0436 -0.5909
 7354TIP3    H243478   2.483   4.502  12.162 -1.5072  1.0600 -0.3198
 7355TIP3   OH243479   1.655   2.009  15.132  0.7032  0.0202  0.1552
 7355TIP3    H143480   1.713   2.027  15.206  0.8056  1.1561 -0.1763
 7355TIP3    H243481   1.641   2.095  15.091 -0.2445 -0.4173 -0.4848
 7356TIP3   OH243482   3.597   2.267   5.031 -0.1378  0.3542  0.1834
 7356TIP3    H143483   3.620   2.359   5.020  1.9101  0.1829  2.3977
 7356TIP3    H243484   3.566   2.240   4.944  0.5492  2.7471 -0.8846
 7357TIP3   OH243485   6.119   4.381   4.818  0.1054  0.4587 -0.2096
 7357TIP3    H143486   6.028   4.400   4.795 -0.4932 -0.3926  1.2970
 7357TIP3    H243487   6.137   4.295   4.779 -0.1774  0.0500  0.5237
 7358TIP3   OH243488   4.843   4.541   3.030  0.3404 -0.1851  0.5020
 7358TIP3    H143489   4.812   4.525   3.119  0.4966  0.9725  0.7864
 7358TIP3    H243490   4.765   4.569   2.982 -0.0152 -2.0383 -0.0942
 7359TIP3   OH243491   2.479   0.708   2.810  0.1117 -0.0785 -0.2906
 7359TIP3    H143492   2.496   0.755   2.729 -2.6307  0.7672 -0.4905
 7359TIP3    H243493   2.400   0.749   2.846  1.1412 -0.4934  2.7909
 7360TIP3   OH243494   5.991   3.619   0.419 -0.4604  0.0247  0.2976
 7360TIP3    H143495   5.932   3.689   0.394  0.1079  1.0808  1.8082
 7360TIP3    H243496   6.072   3.663   0.443  1.4317 -1.4038 -2.7184
 7361TIP3   OH243497   5.882   4.762  16.089  0.2493  0.2110 -0.5484
 7361TIP3    H143498   5.872   4.824  16.162  1.1463  0.3995 -0.5635
 7361TIP3    H243499   5.819   4.792  16.024 -0.7314 -0.0992  0.2273
 7362TIP3   OH243500   3.126   1.135   4.029 -0.0553  0.1266  0.3689
 7362TIP3    H143501   3.040   1.153   4.067  0.5382  0.3529  1.6589
 7362TIP3    H243502   3.156   1.056   4.075  0.4463  0.0859 -0.0290
 7363TIP3   OH243503   0.022   6.552  12.695  0.1578 -0.3271  0.5286
 7363TIP3    H143504   0.018   6.621  12.628  0.9124  0.3440  1.1459
 7363TIP3    H243505   0.112   6.519  12.689  0.3149 -0.0688  1.3900
 7364TIP3   OH243506   0.913   4.153   1.135 -0.3649  0.3113  0.4316
 7364TIP3    H143507   0.846   4.188   1.076  0.3640  1.6965  0.3777
 7364TIP3    H243508   0.995   4.188   1.101  0.8363 -3.5435 -1.1860
 7365TIP3   OH243509   4.711   2.467  16.538  0.6540  0.0220  0.3284
 7365TIP3    H143510   4.645   2.519  16.583  0.7389  1.2504 -0.9069
 7365TIP3    H243511   4.661   2.400  16.492  0.3253  0.5123 -0.0317
 7366TIP3   OH243512   3.591   4.629   5.880 -0.2217  0.0769 -0.4833
 7366TIP3    H143513   3.515   4.665   5.926  0.5669 -0.8149  1.6898
 7366TIP3    H243514   3.601   4.684   5.803 -3.0006  0.2700 -0.8127
 7367TIP3   OH243515   6.494   6.002  14.256  0.2262 -0.3568  0.0051
 7367TIP3    H143516   6.558   6.058  14.213  1.3223  0.0370  2.0251
 7367TIP3    H243517   6.545   5.927  14.289 -0.3251 -0.0772  1.5739
 7368TIP3   OH243518   1.255   3.654  15.494 -0.1211  0.0469 -0.1620
 7368TIP3    H143519   1.296   3.622  15.413 -0.6069  0.3206 -0.5236
 7368TIP3    H243520   1.188   3.716  15.464 -1.9215 -1.5723  0.3049
 7369TIP3   OH243521   3.924   0.012   2.669  0.5293 -0.4409  0.8906
 7369TIP3    H143522   3.977  -0.036   2.606 -1.3685  1.2013 -2.1668
 7369TIP3    H243523   3.845  -0.042   2.680 -1.5951  1.5847 -2.5307
 7370TIP3   OH243524   0.090   0.095  15.888 -0.2630  0.3541  0.2085
 7370TIP3    H143525   0.108   0.006  15.858 -1.0027  0.2009  0.1812
 7370TIP3    H243526   0.047   0.137  15.814 -1.4909  0.1840  0.7912
 7371TIP3   OH243527   2.326   2.919   3.317  0.2611  0.3533  0.1196
 7371TIP3    H143528   2.283   2.855   3.373  0.7679  0.4637  0.6376
 7371TIP3    H243529   2.276   2.999   3.329 -0.0014  0.2193 -0.0614
 7372TIP3   OH243530   4.628   4.857  14.555 -0.5848 -0.0462 -0.6466
 7372TIP3    H143531   4.603   4.843  14.646  0.2513 -0.4968 -0.4789
 7372TIP3    H243532   4.724   4.858  14.555 -0.5306 -1.3481 -1.6843
 7373TIP3   OH243533   2.830   0.529   3.244  0.2484 -0.0689 -0.1132
 7373TIP3    H143534   2.756   0.533   3.184  1.5779 -0.5625 -1.8512
 7373TIP3    H243535   2.796   0.563   3.327 -1.1501  2.4866 -1.6247
 7374TIP3   OH243536   1.532   1.997  15.583  0.1169 -0.0124  0.6273
 7374TIP3    H143537   1.505   2.080  15.545  0.9922  0.2823  0.6180
 7374TIP3    H243538   1.524   2.010  15.678  0.6567  0.2385  0.6440
 7375TIP3   OH243539   4.024   1.027  16.921 -0.4133 -0.0755  0.0359
 7375TIP3    H143540   3.974   1.068  16.992 -1.2332 -0.8104 -0.0946
 7375TIP3    H243541   3.968   1.035  16.844 -0.4697 -1.1554 -0.0560
 7376TIP3   OH243542   5.755   6.652   5.550  0.4834 -0.2134 -0.4404
 7376TIP3    H143543   5.779   6.564   5.520  0.5135 -0.9183  1.5605
 7376TIP3    H243544   5.675   6.672   5.501 -1.1855 -2.5733  1.1086
 7377TIP3   OH243545   1.185   3.047   3.416  0.6110  0.1257  0.2712
 7377TIP3    H143546   1.202   3.024   3.507  3.2392 -2.3610 -0.6771
 7377TIP3    H243547   1.167   3.141   3.417  2.4743  0.5669  3.1499
 7378TIP3   OH243548   2.455   2.766   2.706 -0.0462 -0.4094  0.4012
 7378TIP3    H143549   2.495   2.848   2.735 -0.0658 -0.7648  1.4838
 7378TIP3    H243550   2.419   2.786   2.620  0.5330  0.5273  0.3585
 7379TIP3   OH243551   3.937   0.224  14.891 -0.1129  0.2512  0.1056
 7379TIP3    H143552   3.848   0.188  14.886 -0.7537  1.8166 -0.6668
 7379TIP3    H243553   3.987   0.160  14.942 -1.2228 -1.5678 -0.9892
 7380TIP3   OH243554   2.337   3.140  11.218 -0.1579 -0.6355  0.6118
 7380TIP3    H143555   2.282   3.152  11.140 -0.5977 -0.6365  0.9229
 7380TIP3    H243556   2.425   3.126  11.182  0.2022  2.1503  0.1670
 7381TIP3   OH243557   0.141   2.107   0.801  0.0661 -0.1461  0.2691
 7381TIP3    H143558   0.147   2.140   0.890  1.2857  0.1467  0.0897
 7381TIP3    H243559   0.190   2.025   0.802  3.2249  1.5769 -0.9103
 7382TIP3   OH243560   5.319   5.180  15.161  0.1954 -0.3445  0.6687
 7382TIP3    H143561   5.379   5.184  15.087 -0.2732 -0.9342  0.2454
 7382TIP3    H243562   5.351   5.247  15.221  0.5913  0.1338 -0.0547
 7383TIP3   OH243563   2.578   6.704   4.502  0.1751 -0.1441  0.5374
 7383TIP3    H143564   2.536   6.626   4.536  0.0033 -0.6401 -0.7578
 7383TIP3    H243565   2.506   6.755   4.464  0.7859 -1.9978 -3.6614
 7384TIP3   OH243566   2.631   3.581   3.202 -0.3745 -0.1253 -0.0324
 7384TIP3    H143567   2.665   3.529   3.274 -1.1447  2.3391  2.2672
 7384TIP3    H243568   2.595   3.516   3.141 -2.3889 -2.3292  3.1935
 7385TIP3   OH243569   5.871   3.243   3.881 -0.1813 -0.0050 -0.7245
 7385TIP3    H143570   5.901   3.330   3.909  0.6712 -0.4089 -0.3578
 7385TIP3    H243571   5.899   3.237   3.789  3.7976 -1.5708  0.3990
 7386TIP3   OH243572   2.308   4.940   5.523  0.2619  0.1869 -0.0241
 7386TIP3    H143573   2.251   4.997   5.575  0.2130 -0.0643  0.1984
 7386TIP3    H243574   2.393   4.946   5.566  0.5492  0.9804 -0.6658
 7387TIP3   OH243575   2.067   3.004  13.434 -0.5296  0.1137  0.4946
 7387TIP3    H143576   2.032   3.016  13.346  2.7016  0.4724 -0.8830
 7387TIP3    H243577   2.132   2.934  13.424 -1.7162 -1.5528  3.1829
 7388TIP3   OH243578   5.906   0.663   6.286  0.1231  0.1603 -0.6760
 7388TIP3    H143579   5.919   0.753   6.316 -1.1900 -0.3053  1.4589
 7388TIP3    H243580   5.833   0.669   6.224  1.6804  0.8583 -2.5765
 7389TIP3   OH243581   3.526   1.051  13.143 -0.0015 -0.1335 -0.3078
 7389TIP3    H143582   3.508   0.960  13.168  1.3538 -0.0127  1.2794
 7389TIP3    H243583   3.457   1.102  13.184 -0.7434 -0.4152 -1.1692
 7390TIP3   OH243584   5.331   4.080  15.691 -0.3387 -0.0477  0.1155
 7390TIP3    H143585   5.266   4.110  15.754  0.4689  0.6950  0.6358
 7390TIP3    H243586   5.348   4.156  15.636  0.7702  0.0901  0.6052
 7391TIP3   OH243587   0.715   4.068  13.286 -0.1076  0.4780  0.0622
 7391TIP3    H143588   0.620   4.077  13.276 -0.2522 -0.8528  0.0114
 7391TIP3    H243589   0.750   4.100  13.203 -0.3884  2.3284  0.6132
 7392TIP3   OH243590   5.583   5.028   3.477  0.4063  1.0087 -0.3692
 7392TIP3    H143591   5.525   5.011   3.551 -0.3839 -0.3185 -1.2730
 7392TIP3    H243592   5.645   4.956   3.478 -0.1129  0.5325 -1.4787
 7393TIP3   OH243593   1.378   1.569   4.308  0.1171  0.1352 -0.2621
 7393TIP3    H143594   1.311   1.578   4.240 -0.3658  0.6069  0.2627
 7393TIP3    H243595   1.361   1.642   4.368  1.2986  0.4508 -0.2856
 7394TIP3   OH243596   3.877   3.687   1.327 -0.3446  0.1333 -0.1413
 7394TIP3    H143597   3.827   3.738   1.262 -0.0705 -1.7529 -1.9645
 7394TIP3    H243598   3.839   3.599   1.322 -0.3184 -0.0809  2.3489
 7395TIP3   OH243599   2.596   4.737  11.881 -1.0216  0.2195 -0.0529
 7395TIP3    H143600   2.618   4.683  11.957 -0.3630 -1.8992 -1.6211
 7395TIP3    H243601   2.504   4.718  11.864 -1.5585  1.7438  0.9489
 7396TIP3   OH243602   0.777   1.759  11.725 -0.1445  0.0427 -0.1901
 7396TIP3    H143603   0.742   1.841  11.761 -1.8098 -0.1376 -1.3196
 7396TIP3    H243604   0.852   1.787  11.672  0.9454  0.5270  1.4967
 7397TIP3   OH243605   1.329   6.165  13.176  0.0346 -0.0482 -0.3269
 7397TIP3    H143606   1.421   6.189  13.185 -0.2676  1.0545  0.0512
 7397TIP3    H243607   1.295   6.226  13.110 -0.8711  0.9538  1.0035
 7398TIP3   OH243608   3.151   6.412   4.363  0.3265  0.3046 -0.6843
 7398TIP3    H143609   3.187   6.477   4.303 -0.9374 -0.5427 -2.4251
 7398TIP3    H243610   3.113   6.345   4.307  0.2637 -1.2170  1.0696
 7399TIP3   OH243611   5.137   1.126   3.277 -0.6972  0.4600 -0.0221
 7399TIP3    H143612   5.163   1.037   3.254  1.6478  0.3137  2.6281
 7399TIP3    H243613   5.056   1.116   3.326 -0.7262 -0.1672 -0.1997
 7400TIP3   OH243614   2.548   2.732  13.390 -0.3316  0.1105  0.4998
 7400TIP3    H143615   2.523   2.672  13.320  0.8578 -0.0671  0.2189
 7400TIP3    H243616   2.594   2.678  13.454 -0.6640  0.4314  1.0187
 7401TIP3   OH243617   0.994   4.524  15.753  0.3406 -0.0707  0.3510
 7401TIP3    H143618   1.001   4.587  15.682 -0.8777  1.7600  1.7681
 7401TIP3    H243619   0.921   4.467  15.728  0.6227 -0.1184 -0.3590
 7402TIP3   OH243620   2.804   2.879   1.927  0.9767 -0.3899  0.1138
 7402TIP3    H143621   2.858   2.957   1.942  1.4029 -0.7606  0.5121
 7402TIP3    H243622   2.721   2.898   1.971  1.1832 -0.2833  0.4570
 7403TIP3   OH243623   2.860   3.829  12.122 -0.0377  0.0869 -0.0266
 7403TIP3    H143624   2.919   3.771  12.074  1.0148  0.5303  0.6922
 7403TIP3    H243625   2.913   3.862  12.195 -1.9356 -1.5794  2.2604
 7404TIP3   OH243626   6.679   0.522   2.147 -0.2000  0.1482 -0.5411
 7404TIP3    H143627   6.709   0.611   2.164 -1.6211  0.4276  0.7670
 7404TIP3    H243628   6.655   0.522   2.055 -0.1971  1.1326 -0.5509
 7405TIP3   OH243629   0.370   4.695   4.225  0.2931 -0.3922  0.2208
 7405TIP3    H143630   0.395   4.783   4.198  0.3580 -0.2856  0.6141
 7405TIP3    H243631   0.452   4.646   4.224  0.3445 -0.3171  0.4770
 7406TIP3   OH243632   1.839   1.275   5.898 -0.7702  0.6881 -0.5574
 7406TIP3    H143633   1.906   1.320   5.950  0.2413  0.7528 -1.8589
 7406TIP3    H243634   1.757   1.321   5.919 -0.5424  0.2903  1.4440
 7407TIP3   OH243635   0.279   6.041  11.945  0.1395  0.3194  0.1017
 7407TIP3    H143636   0.369   6.026  11.917  0.4244  1.4622  0.3342
 7407TIP3    H243637   0.241   6.095  11.876 -0.1333  0.4814  0.3761
 7408TIP3   OH243638   6.417   0.200  12.197  0.3315 -0.3448  0.1563
 7408TIP3    H143639   6.459   0.258  12.133 -1.3107 -0.8311 -1.4294
 7408TIP3    H243640   6.354   0.257  12.242  0.9607 -0.1807  0.8501
 7409TIP3   OH243641   1.240   2.455  11.313 -0.1403 -0.2557 -0.1647
 7409TIP3    H143642   1.279   2.473  11.399 -0.5553  0.4817 -0.1239
 7409TIP3    H243643   1.158   2.411  11.332 -0.8332  1.0214 -0.1237
 7410TIP3   OH243644   4.088   6.223   6.594  0.7539 -0.1909 -0.0316
 7410TIP3    H143645   4.085   6.133   6.628 -0.6518 -1.2074 -2.5695
 7410TIP3    H243646   4.019   6.269   6.641  0.8760 -0.6804  0.6403
 7411TIP3   OH243647   2.333   3.527  11.860 -0.2085  0.5068 -0.2119
 7411TIP3    H143648   2.261   3.587  11.845  0.3711  0.9137 -1.4792
 7411TIP3    H243649   2.316   3.491  11.947 -1.6197  1.0145 -0.2498
 7412TIP3   OH243650   1.863   6.684  13.555  0.4751 -0.1441  0.7058
 7412TIP3    H143651   1.933   6.636  13.510 -0.3796 -1.6989  0.9880
 7412TIP3    H243652   1.809   6.720  13.485 -0.1671 -1.5381  0.4627
 7413TIP3   OH243653   3.570   6.633  14.950 -0.2629 -0.2497  0.2628
 7413TIP3    H143654   3.613   6.627  14.864 -0.9951  0.2098 -0.1468
 7413TIP3    H243655   3.612   6.566  15.003  1.9582  1.0830  0.3142
 7414TIP3   OH243656   0.704   4.285  16.377 -0.0419  0.4295  0.4695
 7414TIP3    H143657   0.627   4.335  16.403  0.3744 -0.0779  2.9108
 7414TIP3    H243658   0.670   4.197  16.360 -0.2503  0.6521 -0.3031
 7415TIP3   OH243659   3.914   2.031  10.495  0.2078 -0.5500 -0.0430
 7415TIP3    H143660   4.002   2.035  10.533  0.3279 -0.4354 -0.3351
 7415TIP3    H243661   3.857   2.072  10.561  0.3086 -1.0052  0.3346
 7416TIP3   OH243662   4.955   6.436   2.821  0.6945 -0.1095 -0.0377
 7416TIP3    H143663   5.033   6.383   2.838  0.4211 -0.2127  0.9405
 7416TIP3    H243664   4.943   6.487   2.901  1.0753  1.6115 -1.0349
 7417TIP3   OH243665   4.998   0.750   3.383  0.1471  0.4405 -0.3054
 7417TIP3    H143666   5.021   0.832   3.427 -1.8903  1.0504 -0.2729
 7417TIP3    H243667   5.039   0.757   3.297 -1.0485  2.1450 -0.7988
 7418TIP3   OH243668   2.158   2.881  15.060  0.4378 -0.0876 -0.7944
 7418TIP3    H143669   2.158   2.954  14.999  1.4343  0.4050 -0.2320
 7418TIP3    H243670   2.066   2.867  15.082  0.1778  0.4882 -1.4877
 7419TIP3   OH243671   4.959   1.595   1.271 -0.4589 -0.2267 -0.3419
 7419TIP3    H143672   4.922   1.552   1.348  1.0207 -0.5007  0.2473
 7419TIP3    H243673   5.054   1.589   1.283 -0.2033  0.9559 -1.5050
 7420TIP3   OH243674   0.316   3.154   2.161 -0.5895  0.2436 -0.6690
 7420TIP3    H143675   0.350   3.065   2.152 -1.5812 -0.2580  0.3384
 7420TIP3    H243676   0.233   3.144   2.208 -0.9453  1.6603 -0.9366
 7421TIP3   OH243677   1.911   6.775   1.579 -0.5777  0.2726  0.3631
 7421TIP3    H143678   1.866   6.858   1.592  0.9282  1.1247  0.2709
 7421TIP3    H243679   2.001   6.798   1.558 -0.4323 -1.3528 -1.0568
 7422TIP3   OH243680   3.477   6.032   5.895 -0.6480 -0.4949  0.3656
 7422TIP3    H143681   3.454   5.993   5.811  0.2718  1.4621 -0.8785
 7422TIP3    H243682   3.424   5.985   5.959 -1.8340 -1.6451 -1.3758
 7423TIP3   OH243683   0.584   3.606  15.787 -0.2169  0.2856  0.2213
 7423TIP3    H143684   0.667   3.561  15.770 -1.1257 -1.3498 -0.1251
 7423TIP3    H243685   0.558   3.576  15.874 -0.3818  0.9072  0.3900
 7424TIP3   OH243686   0.475   3.226  12.807 -0.9026  0.2496  0.2222
 7424TIP3    H143687   0.437   3.205  12.721  0.1888 -0.4986 -0.0991
 7424TIP3    H243688   0.456   3.149  12.861  0.9615 -0.5719 -0.2307
 7425TIP3   OH243689   6.585   0.719   0.737  0.0201  0.1862 -0.3992
 7425TIP3    H143690   6.640   0.714   0.816  0.0024  0.8019 -0.3497
 7425TIP3    H243691   6.548   0.630   0.729  0.3738 -0.0044  0.0301
 7426TIP3   OH243692   4.492   3.785   0.701  0.0266 -0.0498 -0.1576
 7426TIP3    H143693   4.584   3.763   0.688 -0.1090 -1.3001  0.7765
 7426TIP3    H243694   4.445   3.704   0.681 -1.0489  1.0255 -2.2778
 7427TIP3   OH243695   2.990   1.062  14.702  0.3156  0.0763  0.4859
 7427TIP3    H143696   2.959   1.151  14.683  0.9379  0.5754  1.7018
 7427TIP3    H243697   3.082   1.063  14.675 -0.0456 -0.6425 -0.8134
 7428TIP3   OH243698   6.276   1.902   1.466  0.3345 -0.4004  0.7661
 7428TIP3    H143699   6.232   1.985   1.447  0.0043 -0.6155  0.5618
 7428TIP3    H243700   6.276   1.856   1.382  1.6140 -0.1038  0.5925
 7429TIP3   OH243701   3.216   0.957  16.765  0.2271 -0.0829  0.1789
 7429TIP3    H143702   3.158   0.959  16.841  2.2335 -0.0449  1.7598
 7429TIP3    H243703   3.304   0.950  16.801  1.1760 -1.5352 -2.1767
 7430TIP3   OH243704   0.426   2.104  11.947 -0.0689  0.3863 -0.0370
 7430TIP3    H143705   0.438   2.197  11.967 -0.7801  0.7850 -1.3617
 7430TIP3    H243706   0.343   2.082  11.989 -0.2871  0.5533 -0.3797
 7431TIP3   OH243707   6.002   1.538  12.804 -0.1935  0.0750 -0.3673
 7431TIP3    H143708   5.921   1.495  12.777 -0.7404  1.1831 -0.5560
 7431TIP3    H243709   6.070   1.497  12.750 -0.2903 -2.2530  1.1778
 7432TIP3   OH243710   6.381   0.273  13.248  0.2513 -0.1755  0.0638
 7432TIP3    H143711   6.394   0.180  13.266 -0.2752 -0.6013 -1.5869
 7432TIP3    H243712   6.286   0.285  13.253  0.3622  0.4358  0.9120
 7433TIP3   OH243713   0.807   3.079   3.849 -0.1259  0.4502  0.1659
 7433TIP3    H143714   0.832   3.170   3.836  0.0481  0.1757 -1.8118
 7433TIP3    H243715   0.715   3.082   3.875 -0.2976  1.1802 -0.4840
 7434TIP3   OH243716   3.868   0.057   3.569 -0.6568  0.2948  1.0299
 7434TIP3    H143717   3.958   0.032   3.549 -0.3588  1.1205  1.2747
 7434TIP3    H243718   3.815   0.005   3.509  0.0987  1.3469 -0.6526
 7435TIP3   OH243719   3.191   1.598  15.775 -0.8271  0.0604  0.6253
 7435TIP3    H143720   3.187   1.663  15.846  0.9032  0.0710  0.7666
 7435TIP3    H243721   3.103   1.597  15.738 -1.0103  2.2595  0.8482
 7436TIP3   OH243722   0.752   3.782   3.657 -0.1221 -0.0023  0.1713
 7436TIP3    H143723   0.679   3.843   3.671 -0.5900 -0.6724  0.7229
 7436TIP3    H243724   0.737   3.748   3.568 -0.4604 -0.0972  0.2610
 7437TIP3   OH243725   3.164   6.229  14.234 -0.0902 -0.1335  0.2225
 7437TIP3    H143726   3.192   6.321  14.224 -0.1430 -0.2325 -0.9616
 7437TIP3    H243727   3.118   6.209  14.153  0.0167 -1.2496  0.4242
 7438TIP3   OH243728   4.926   1.118  13.166 -0.1711 -0.5529  0.9306
 7438TIP3    H143729   4.925   1.155  13.078  0.4781  1.1663  1.6041
 7438TIP3    H243730   4.909   1.024  13.153 -0.3255 -0.2960 -0.9810
 7439TIP3   OH243731   2.192   4.051  17.035  0.2808  0.9095 -0.4433
 7439TIP3    H143732   2.106   4.086  17.015  0.3421  1.4615  0.2500
 7439TIP3    H243733   2.240   4.058  16.952  0.0808  1.8539 -0.4859
 7440TIP3   OH243734   0.687   2.954  11.250 -0.4233  0.8029 -0.4526
 7440TIP3    H143735   0.775   2.989  11.263 -0.4790  1.7362 -2.3082
 7440TIP3    H243736   0.699   2.880  11.190 -0.8619  0.6369 -0.3380
 7441TIP3   OH243737   2.177   3.258  14.286  0.0186 -0.7227 -0.5026
 7441TIP3    H143738   2.272   3.254  14.300  0.1716  0.4942 -1.1017
 7441TIP3    H243739   2.165   3.229  14.196 -0.1221 -0.3567 -0.6024
 7442TIP3   OH243740   3.926   5.197  15.158 -0.1299 -0.2757 -0.4122
 7442TIP3    H143741   4.017   5.169  15.157 -0.3477 -1.0999 -2.7250
 7442TIP3    H243742   3.929   5.290  15.133  0.0295 -0.5862 -1.5982
 7443TIP3   OH243743   5.373   2.151  16.067  0.3540 -0.1989  0.1304
 7443TIP3    H143744   5.335   2.129  15.982  0.7250 -0.3628  0.0022
 7443TIP3    H243745   5.334   2.235  16.091  1.8071  0.9075 -1.1841
 7444TIP3   OH243746   5.305   3.908   5.287  0.1523  0.0366  0.0453
 7444TIP3    H143747   5.373   3.943   5.229 -0.3326 -1.9923 -1.9113
 7444TIP3    H243748   5.246   3.981   5.302  1.5453  1.2375 -0.0550
 7445TIP3   OH243749   1.071   6.585  14.259  0.3858  0.1634 -0.2844
 7445TIP3    H143750   1.039   6.664  14.303 -0.2602  0.4217 -1.1929
 7445TIP3    H243751   1.148   6.559  14.310 -1.2109 -0.4559  1.9739
 7446TIP3   OH243752   0.441   5.922  13.399  0.4877 -0.1452  0.0040
 7446TIP3    H143753   0.520   5.975  13.396 -0.1154  0.7354 -2.0961
 7446TIP3    H243754   0.430   5.900  13.491  3.1584 -0.3215  0.3541
 7447TIP3   OH243755   5.375   1.649   4.654  0.0479 -0.0292 -0.4794
 7447TIP3    H143756   5.418   1.618   4.574  1.7460  1.1025 -0.0480
 7447TIP3    H243757   5.403   1.740   4.663 -1.1950  0.2663  0.6981
 7448TIP3   OH243758   1.277   6.126   4.521 -0.1032  0.3404  0.2087
 7448TIP3    H143759   1.214   6.106   4.590 -0.6645 -0.0608 -0.4058
 7448TIP3    H243760   1.223   6.156   4.447  0.4665  0.5156 -0.1466
 7449TIP3   OH243761   3.272   4.345   2.910  0.2787  0.6696  0.0385
 7449TIP3    H143762   3.223   4.403   2.851 -1.9336 -0.1214  1.0160
 7449TIP3    H243763   3.248   4.257   2.883  2.6198  0.1496 -0.5938
 7450TIP3   OH243764   3.721   6.210  16.916 -0.0919 -0.2893 -0.3664
 7450TIP3    H143765   3.642   6.238  16.871 -0.5300 -0.6238  0.1845
 7450TIP3    H243766   3.690   6.153  16.986  0.7307 -1.9751 -1.3040
 7451TIP3   OH243767   0.122   1.794  17.139  0.0601  0.2881  0.2251
 7451TIP3    H143768   0.136   1.859  17.070 -2.7550  1.0783  0.2789
 7451TIP3    H243769   0.124   1.710  17.093 -2.1926  0.8160 -0.9841
 7452TIP3   OH243770   3.310   4.421  13.607 -0.1452  0.0834  0.5135
 7452TIP3    H143771   3.316   4.342  13.662 -1.6042 -0.9714 -0.7404
 7452TIP3    H243772   3.398   4.433  13.572 -0.1957 -1.9323 -0.4743
 7453TIP3   OH243773   1.548   1.360  11.681  0.0639  0.4152  0.6682
 7453TIP3    H143774   1.599   1.401  11.751  1.3487  1.6004 -0.8809
 7453TIP3    H243775   1.474   1.419  11.667  0.3554  0.7253  0.3870
 7454TIP3   OH243776   0.628   2.627   2.158  0.7255  0.3038 -0.7692
 7454TIP3    H143777   0.664   2.585   2.080 -0.7077 -1.0928 -0.7474
 7454TIP3    H243778   0.535   2.605   2.155  0.4405  1.1935  0.7455
 7455TIP3   OH243779   4.304   0.147  16.598  0.4392  0.5785  0.3301
 7455TIP3    H143780   4.335   0.211  16.534 -0.0410 -0.3424 -0.8504
 7455TIP3    H243781   4.220   0.182  16.627 -0.4410 -0.1177 -1.2709
 7456TIP3   OH243782   2.895   6.675   3.847 -0.1301  0.3649 -0.1683
 7456TIP3    H143783   2.943   6.751   3.812  0.7885 -0.0302  0.1842
 7456TIP3    H243784   2.832   6.712   3.908 -0.3670  0.9113 -0.7302
 7457TIP3   OH243785   4.913   5.788   0.547  0.4278  0.2421 -0.1561
 7457TIP3    H143786   4.970   5.734   0.492 -0.3681 -0.8168  0.0230
 7457TIP3    H243787   4.844   5.818   0.488  0.4839  0.4750 -0.1014
 7458TIP3   OH243788   2.582   6.596   2.941  0.3306  0.2333  0.8117
 7458TIP3    H143789   2.633   6.654   2.884  0.3146 -0.3076  0.2344
 7458TIP3    H243790   2.515   6.559   2.883 -1.2824  1.5570  1.7055
 7459TIP3   OH243791   0.528   1.090   0.963 -0.1214 -0.3926 -0.3034
 7459TIP3    H143792   0.483   1.006   0.948 -0.5926 -0.5546  1.7346
 7459TIP3    H243793   0.539   1.094   1.058  0.5069  1.5615 -0.4262
 7460TIP3   OH243794   0.192   5.225  10.848 -0.5701  0.7434  0.4032
 7460TIP3    H143795   0.138   5.181  10.783 -2.0082  0.3554  1.7988
 7460TIP3    H243796   0.197   5.315  10.818 -1.9790  0.7762  0.1984
 7461TIP3   OH243797   2.915   5.000  17.115 -0.2302 -0.0907 -0.0379
 7461TIP3    H143798   2.822   5.000  17.097 -0.7787  1.1389  2.3124
 7461TIP3    H243799   2.923   5.043  17.201  2.5617  0.6381 -0.5353
 7462TIP3   OH243800   6.116   6.565   3.808 -0.3423  0.0672 -0.3602
 7462TIP3    H143801   6.024   6.587   3.821 -1.3140 -1.8980 -2.9904
 7462TIP3    H243802   6.139   6.607   3.725  0.8412 -0.2597 -0.2118
 7463TIP3   OH243803   3.864   0.186   0.639  0.1975 -0.5690  0.2042
 7463TIP3    H143804   3.906   0.115   0.687 -1.6930 -1.6197  0.3632
 7463TIP3    H243805   3.867   0.158   0.547 -1.9520 -1.6524  0.4251
 7464TIP3   OH243806   4.811   0.737  13.439 -0.0987  0.1336  0.1721
 7464TIP3    H143807   4.876   0.667  13.438  0.6690  0.7993  1.2360
 7464TIP3    H243808   4.729   0.694  13.415  0.1685 -1.3305  1.7156
 7465TIP3   OH243809   3.753   3.192   3.992  0.4009  0.3407  0.5013
 7465TIP3    H143810   3.743   3.287   3.985  1.7807  0.4951  0.2292
 7465TIP3    H243811   3.848   3.179   3.999  0.3604 -1.1127 -1.0886
 7466TIP3   OH243812   3.815   2.624  13.971  0.4173 -0.0717 -0.1201
 7466TIP3    H143813   3.908   2.611  13.953  0.8029  3.2853 -1.1754
 7466TIP3    H243814   3.813   2.694  14.036 -1.3346  0.7022 -0.9432
 7467TIP3   OH243815   1.732   3.174   2.647  0.1049  0.0435  0.3430
 7467TIP3    H143816   1.768   3.192   2.734 -0.1960 -1.6999  0.8583
 7467TIP3    H243817   1.661   3.112   2.663 -0.1949 -0.0169 -1.1176
 7468TIP3   OH243818   3.266   4.929  10.975  0.2102  0.2690  0.2737
 7468TIP3    H143819   3.255   5.021  10.952 -0.8001  0.3101  0.8867
 7468TIP3    H243820   3.333   4.898  10.914  0.8726  1.5024  0.3253
 7469TIP3   OH243821   6.625   6.689   6.131  0.0211  0.1782  0.2405
 7469TIP3    H143822   6.653   6.599   6.145 -0.8380  0.2124  2.5858
 7469TIP3    H243823   6.571   6.686   6.051  3.4917 -0.5047 -2.2937
 7470TIP3   OH243824   1.459   0.388   4.174 -0.2828  0.2152 -0.2986
 7470TIP3    H143825   1.397   0.403   4.245  0.2094 -0.3089  0.2503
 7470TIP3    H243826   1.406   0.354   4.102 -0.7141  0.3028 -0.0252
 7471TIP3   OH243827   2.691   1.524  10.497 -0.9431  0.3776  0.3954
 7471TIP3    H143828   2.613   1.478  10.466 -1.2550  1.4007 -0.3859
 7471TIP3    H243829   2.656   1.598  10.548 -0.4660  0.3289  0.7976
 7472TIP3   OH243830   2.813   4.972   3.400  0.0984 -0.0641  0.2658
 7472TIP3    H143831   2.858   4.890   3.422 -1.6820 -1.1808 -0.0781
 7472TIP3    H243832   2.743   4.980   3.465 -2.9722 -1.5550 -2.5899
 7473TIP3   OH243833   0.628   0.064   0.410 -0.0529  0.8070 -0.5537
 7473TIP3    H143834   0.648  -0.028   0.395  0.8800  0.3228  2.8236
 7473TIP3    H243835   0.710   0.110   0.390  0.7941  0.3255  1.5291
 7474TIP3   OH243836   6.055   2.233  16.595 -0.4796  0.2182 -0.0411
 7474TIP3    H143837   6.030   2.213  16.504 -2.0381 -0.0587  0.4152
 7474TIP3    H243838   6.085   2.149  16.630 -1.2670  0.0008  0.1197
 7475TIP3   OH243839   3.089   6.271   5.310 -0.0047 -0.4256 -0.3488
 7475TIP3    H143840   3.161   6.210   5.327  0.7122  0.5852  0.3751
 7475TIP3    H243841   3.055   6.293   5.396  0.0857  0.5697 -0.5461
 7476TIP3   OH243842   2.825   0.088   4.927 -0.4593 -0.1409 -0.2564
 7476TIP3    H143843   2.814   0.108   4.834 -1.7000 -2.1261 -0.5991
 7476TIP3    H243844   2.772   0.010   4.941 -2.2889  1.4724  2.6794
 7477TIP3   OH243845   1.233   3.800   1.517  0.1613 -0.1588 -0.4099
 7477TIP3    H143846   1.185   3.791   1.599  1.4385  0.1368  0.4049
 7477TIP3    H243847   1.204   3.883   1.481 -0.9064 -0.6076 -0.6029
 7478TIP3   OH243848   2.832   1.357  11.988 -0.7080  0.3825  0.6240
 7478TIP3    H143849   2.915   1.369  12.033 -1.1462  0.7413  1.3612
 7478TIP3    H243850   2.774   1.319  12.054 -0.3975 -2.4478 -0.6244
 7479TIP3   OH243851   1.598   5.816   1.187 -0.2321  0.4436 -0.7430
 7479TIP3    H143852   1.680   5.804   1.140 -0.5657 -1.9540 -0.8289
 7479TIP3    H243853   1.555   5.889   1.142  0.2167 -0.6531 -3.1260
 7480TIP3   OH243854   5.306   1.791   1.139 -0.1744 -0.2820 -0.5437
 7480TIP3    H143855   5.360   1.758   1.211 -0.0961  2.6625  0.8913
 7480TIP3    H243856   5.367   1.795   1.064  0.7437 -0.0074  0.1974
 7481TIP3   OH243857   1.389   4.823  13.171  0.2694 -0.0038 -0.2275
 7481TIP3    H143858   1.412   4.776  13.251 -0.1787  1.7068  0.9444
 7481TIP3    H243859   1.314   4.775  13.135 -0.6384  0.2037  1.3310
 7482TIP3   OH243860   6.620   0.063  15.553  0.1280  0.2122 -0.1723
 7482TIP3    H143861   6.598   0.047  15.461  0.0920  0.6394 -0.2395
 7482TIP3    H243862   6.695   0.006  15.569  0.1560  0.1577 -0.4765
 7483TIP3   OH243863   1.722   2.041  16.612  0.2645 -0.3379  0.2469
 7483TIP3    H143864   1.801   1.996  16.580 -0.2747 -1.0162 -0.1695
 7483TIP3    H243865   1.680   1.978  16.670  0.8462  0.6199  1.7708
 7484TIP3   OH243866   2.067   2.935   5.351  0.1084 -0.2835  0.1118
 7484TIP3    H143867   2.098   2.848   5.326  0.3090 -0.3307  0.5147
 7484TIP3    H243868   1.977   2.921   5.379  0.8161 -0.7734  2.3551
 7485TIP3   OH243869   0.353   4.775  14.520  0.0556 -0.2660  0.3801
 7485TIP3    H143870   0.425   4.773  14.583  0.5808  0.7985 -0.1571
 7485TIP3    H243871   0.323   4.866  14.521  0.6306 -0.0140 -1.4885
 7486TIP3   OH243872   3.371   4.466   1.052  0.1198  0.7962 -0.5786
 7486TIP3    H143873   3.391   4.376   1.026  0.6316  0.8337 -0.3381
 7486TIP3    H243874   3.377   4.516   0.971 -0.2032  0.6097 -0.7204
 7487TIP3   OH243875   0.240   1.220   3.764 -0.4627  0.7971  0.0311
 7487TIP3    H143876   0.202   1.198   3.679 -0.1015  1.2435 -0.2543
 7487TIP3    H243877   0.332   1.194   3.756 -0.6776 -0.2362  0.6982
 7488TIP3   OH243878   3.654   3.687   4.097  0.8022  0.2144  0.2441
 7488TIP3    H143879   3.634   3.730   4.180 -0.8642 -1.0000  0.5294
 7488TIP3    H243880   3.689   3.757   4.042 -1.0031  1.7705  0.9518
 7489TIP3   OH243881   3.906   5.862   2.744  0.2189  0.3783 -0.2009
 7489TIP3    H143882   3.975   5.815   2.697  0.3990  0.3698  0.0688
 7489TIP3    H243883   3.836   5.873   2.680  0.4124  0.2563 -0.4337
 7490TIP3   OH243884   1.825   4.885   1.898 -0.6663 -0.1597  0.2099
 7490TIP3    H143885   1.854   4.961   1.849  1.5269 -0.3383  1.1423
 7490TIP3    H243886   1.857   4.810   1.849 -1.2522 -0.4445  0.2467
 7491TIP3   OH243887   3.757   5.254   4.346  0.0160  0.3690 -0.3574
 7491TIP3    H143888   3.762   5.258   4.441 -1.0702 -0.3338 -0.2542
 7491TIP3    H243889   3.669   5.221   4.328 -0.8263  3.1041 -1.6864
 7492TIP3   OH243890   3.518   0.889   2.173 -0.0426  0.0950 -0.6312
 7492TIP3    H143891   3.521   0.909   2.267 -0.4756 -0.7149 -0.4399
 7492TIP3    H243892   3.608   0.864   2.151  0.0877  0.4093 -0.4632
 7493TIP3   OH243893   2.921   4.765   5.646  0.1066 -0.5330  0.0162
 7493TIP3    H143894   2.882   4.801   5.567 -1.7915  1.2307  1.6327
 7493TIP3    H243895   2.993   4.825   5.667  0.5259 -0.9253 -0.2756
 7494TIP3   OH243896   6.746   5.266   0.128 -0.0643 -0.1131  0.6611
 7494TIP3    H143897   6.788   5.228   0.051 -0.2833 -1.1113  1.0236
 7494TIP3    H243898   6.756   5.200   0.196  2.5841  1.8170  2.3518
 7495TIP3   OH243899   0.498   1.361   2.355  0.0851 -0.0931  0.0518
 7495TIP3    H143900   0.581   1.405   2.369 -0.0453 -0.0444  0.6857
 7495TIP3    H243901   0.482   1.368   2.261  0.2098  0.9490  0.0991
 7496TIP3   OH243902   4.521   4.508   0.134  0.5398 -0.3911 -0.3913
 7496TIP3    H143903   4.573   4.431   0.158  1.0886  0.3493  0.9164
 7496TIP3    H243904   4.455   4.514   0.203  0.6686  0.4598 -0.3367
 7497TIP3   OH243905   4.515   1.182  11.781 -0.5076 -0.0868 -0.2214
 7497TIP3    H143906   4.551   1.170  11.693 -1.9841  1.0704 -1.0332
 7497TIP3    H243907   4.443   1.120  11.787 -2.7710  2.2509 -1.2901
 7498TIP3   OH243908   5.627   5.118  11.271  0.1694  0.6696  0.3828
 7498TIP3    H143909   5.693   5.159  11.215  1.0438 -0.7845  0.2901
 7498TIP3    H243910   5.544   5.151  11.238  0.6370 -0.3133 -2.0137
 7499TIP3   OH243911   2.730   2.697   0.931 -0.4074  0.4263 -0.3640
 7499TIP3    H143912   2.701   2.719   1.019 -0.2730 -0.9915  0.0566
 7499TIP3    H243913   2.789   2.769   0.907 -0.5097  0.8744  0.6587
 7500TIP3   OH243914   3.508   6.615  13.908 -0.0539 -0.1948  0.2774
 7500TIP3    H143915   3.493   6.547  13.973 -0.5903 -0.9420 -0.6057
 7500TIP3    H243916   3.431   6.613  13.852  0.9564 -0.4774 -1.1696
 7501TIP3   OH243917   2.273   2.774  12.119  0.5306 -0.0128  0.2460
 7501TIP3    H143918   2.355   2.733  12.144 -0.0415 -1.3740 -0.0288
 7501TIP3    H243919   2.269   2.766  12.024  0.1261  0.1181  0.2461
 7502TIP3   OH243920   0.118   4.413   4.122 -0.3030  0.2148 -0.1209
 7502TIP3    H143921   0.188   4.350   4.108 -0.8399 -0.0976 -1.6699
 7502TIP3    H243922   0.073   4.382   4.201  2.0724  1.2224  1.7517
 7503TIP3   OH243923   0.355   0.695   3.993 -0.4420 -0.6847 -0.0792
 7503TIP3    H143924   0.351   0.640   4.071 -1.3326 -0.3342  0.1347
 7503TIP3    H243925   0.327   0.781   4.023 -0.1059 -0.3754 -0.6366
 7504TIP3   OH243926   5.009   3.388   3.039  0.3125 -0.5792  0.3720
 7504TIP3    H143927   5.009   3.472   3.086  0.8927 -1.3191  1.7488
 7504TIP3    H243928   5.029   3.323   3.106 -1.8452 -2.0464 -0.2851
 7505TIP3   OH243929   2.345   1.306  12.974  0.1784 -0.1532 -0.1541
 7505TIP3    H143930   2.401   1.382  12.991 -0.2475 -0.2179  1.7700
 7505TIP3    H243931   2.259   1.344  12.955  0.2687 -0.1248 -0.5118
 7506TIP3   OH243932   1.211   3.524   5.507 -0.5401  0.0301  0.3145
 7506TIP3    H143933   1.306   3.527   5.514 -0.6466  0.9234  1.9961
 7506TIP3    H243934   1.194   3.503   5.416  1.2657 -1.5597  0.2939
 7507TIP3   OH243935   6.260   5.933   4.826  0.2730 -0.6844 -0.9882
 7507TIP3    H143936   6.274   5.973   4.912  1.8660  1.5922 -2.2202
 7507TIP3    H243937   6.169   5.902   4.829  0.0003  0.1479  1.1740
 7508TIP3   OH243938   6.638   2.873   5.231 -0.7700 -0.6193 -0.3927
 7508TIP3    H143939   6.620   2.943   5.169  0.2214 -0.7803 -0.8819
 7508TIP3    H243940   6.693   2.913   5.298 -0.1294 -0.9342 -0.7189
 7509TIP3   OH243941   2.956   5.214   5.640  0.1688  0.4166  0.1365
 7509TIP3    H143942   2.868   5.179   5.628 -0.4915  2.2919 -0.9111
 7509TIP3    H243943   2.956   5.296   5.590  1.9718  1.3172  1.4981
 7510TIP3   OH243944   0.477   6.664  13.249 -0.1083 -1.0730 -0.3158
 7510TIP3    H143945   0.381   6.659  13.241 -0.0584 -0.9561 -1.0640
 7510TIP3    H243946   0.494   6.752  13.281 -0.1243 -0.0391 -2.8860
 7511TIP3   OH243947   5.947   0.103  14.223 -0.3286 -0.2980 -0.3717
 7511TIP3    H143948   6.002   0.114  14.145 -0.6025  0.9207 -0.4152
 7511TIP3    H243949   5.866   0.149  14.201 -0.3421  0.2163  0.7020
 7512TIP3   OH243950   5.464   0.323  16.466 -0.3241  0.3927 -0.0461
 7512TIP3    H143951   5.512   0.288  16.541 -0.0053 -0.6173 -0.7033
 7512TIP3    H243952   5.479   0.417  16.470  1.3097  0.1555  0.0568
 7513TIP3   OH243953   4.703   4.847   6.660  0.8134  0.4297 -0.2002
 7513TIP3    H143954   4.796   4.865   6.676  1.4659 -2.2396 -0.5250
 7513TIP3    H243955   4.663   4.933   6.652  3.2977  1.6637 -0.2583
 7514TIP3   OH243956   3.332   0.831   2.436  0.0582 -0.1223 -0.6496
 7514TIP3    H143957   3.277   0.907   2.456  1.2294  0.6357 -0.1618
 7514TIP3    H243958   3.422   0.864   2.444  0.6522 -0.6511 -3.8773
 7515TIP3   OH243959   6.228   4.463  16.749  0.6420 -0.2440 -0.1450
 7515TIP3    H143960   6.268   4.379  16.773 -0.1466 -0.9957 -1.3651
 7515TIP3    H243961   6.135   4.443  16.737 -0.1228  1.4148  2.3387
 7516TIP3   OH243962   4.189   5.379  16.573 -0.5005  0.5871  0.4262
 7516TIP3    H143963   4.217   5.385  16.482 -1.5621  0.2169  0.0596
 7516TIP3    H243964   4.243   5.443  16.619  1.1767 -0.3357 -0.1672
 7517TIP3   OH243965   3.658   4.804   3.698 -0.1322 -0.6536 -0.6455
 7517TIP3    H143966   3.730   4.833   3.753 -1.3658  2.9647 -0.7059
 7517TIP3    H243967   3.700   4.778   3.615  1.2586 -0.9635  0.1202
 7518TIP3   OH243968   2.262   1.039   1.352  0.0239  0.3745 -0.3064
 7518TIP3    H143969   2.216   1.074   1.276 -1.9971  1.2731  1.2212
 7518TIP3    H243970   2.195   0.993   1.402  0.8183  1.3550  1.8309
 7519TIP3   OH243971   5.336   2.836   1.279 -0.2728 -0.5543  0.4871
 7519TIP3    H143972   5.427   2.806   1.270 -0.8329 -1.6554 -2.9510
 7519TIP3    H243973   5.343   2.927   1.306  1.8163 -0.7895  0.9204
 7520TIP3   OH243974   1.424   5.158   4.000 -0.4402  0.2198  0.2792
 7520TIP3    H143975   1.377   5.168   4.082  1.6798  0.0905  1.5942
 7520TIP3    H243976   1.435   5.248   3.968 -0.6965  0.3277  0.4957
 7521TIP3   OH243977   6.138   2.386  15.899  0.2719  0.5116 -1.2680
 7521TIP3    H143978   6.173   2.460  15.949  1.5602 -0.5787 -0.5053
 7521TIP3    H243979   6.070   2.425  15.844 -0.0207  2.0267  0.1013
 7522TIP3   OH243980   5.866   2.376   0.940 -0.2472 -0.2762  0.4042
 7522TIP3    H143981   5.857   2.283   0.920  0.5764 -0.4160  0.6828
 7522TIP3    H243982   5.926   2.379   1.014  0.7773  0.5537 -0.4317
 7523TIP3   OH243983   1.775   2.357  14.765  0.4369  0.2205 -0.4643
 7523TIP3    H143984   1.709   2.371  14.834  0.4670 -0.6800 -0.2471
 7523TIP3    H243985   1.787   2.444  14.727 -0.8005  0.4297 -0.4445
 7524TIP3   OH243986   1.319   6.242  16.974 -0.1105  0.1611  0.1010
 7524TIP3    H143987   1.341   6.176  16.907 -2.3952 -1.1160  0.5210
 7524TIP3    H243988   1.387   6.231  17.041  2.3095  1.5440 -1.9285
 7525TIP3   OH243989   0.492   5.083   0.979 -0.0037  0.2969 -0.4785
 7525TIP3    H143990   0.428   5.028   1.025 -0.5549  0.2915 -1.2352
 7525TIP3    H243991   0.518   5.032   0.903  1.4082  0.0324  0.1592
 7526TIP3   OH243992   0.392   5.378   4.442 -0.2550 -0.2292  0.3917
 7526TIP3    H143993   0.345   5.422   4.513  0.5661  2.0399 -0.3735
 7526TIP3    H243994   0.447   5.314   4.486  0.0969  0.9928  1.8361
 7527TIP3   OH243995   3.729   2.584   3.662 -0.3507  0.2980 -0.3572
 7527TIP3    H143996   3.750   2.493   3.643 -0.8517  0.4072 -1.5258
 7527TIP3    H243997   3.643   2.581   3.703 -1.0277  0.3183 -1.7074
 7528TIP3   OH243998   4.526   2.404  13.182 -0.3892  0.2320  0.3313
 7528TIP3    H143999   4.593   2.343  13.214 -0.5315 -1.1438 -1.7577
 7528TIP3    H244000   4.461   2.348  13.139 -0.7702  1.8018 -1.2852
 7529TIP3   OH244001   6.031   6.348   5.592  0.0456 -0.3611 -0.0153
 7529TIP3    H144002   6.040   6.442   5.604  1.0148 -0.6007  1.3415
 7529TIP3    H244003   5.955   6.323   5.644 -0.4282 -0.2955 -0.6597
 7530TIP3   OH244004   0.542   5.785   2.871  0.9197 -0.2005  0.1407
 7530TIP3    H144005   0.447   5.789   2.881  0.5578 -0.1761 -2.6861
 7530TIP3    H244006   0.561   5.691   2.873  1.0237 -0.1800  1.6920
 7531TIP3   OH244007   4.921   1.684   4.087 -0.1330 -0.2898  0.0958
 7531TIP3    H144008   4.896   1.776   4.085  0.5265 -0.0964  0.3179
 7531TIP3    H244009   5.016   1.686   4.099 -0.2457 -1.0167  1.2453
 7532TIP3   OH244010   1.276   6.066  15.149  0.7717 -0.3224 -0.1818
 7532TIP3    H144011   1.295   5.994  15.209  1.1620 -1.1268 -1.2354
 7532TIP3    H244012   1.311   6.144  15.194  0.7757 -0.8485  0.7582
 7533TIP3   OH244013   2.244   4.088   5.452 -0.2689 -0.0097 -0.2544
 7533TIP3    H144014   2.224   4.047   5.368 -0.5735  0.5498 -0.4574
 7533TIP3    H244015   2.327   4.048   5.479  0.9555  1.3348 -1.8380
 7534TIP3   OH244016   6.668   0.661   3.336  0.1168 -0.5190  0.0404
 7534TIP3    H144017   6.663   0.566   3.334 -1.5338 -0.4556 -0.8585
 7534TIP3    H244018   6.660   0.684   3.428  0.3354 -1.2254  0.2427
 7535TIP3   OH244019   2.344   2.523   3.260 -0.6568 -0.0378 -0.9166
 7535TIP3    H144020   2.311   2.447   3.212  0.2243 -1.1834  0.2037
 7535TIP3    H244021   2.377   2.582   3.192  0.7722 -1.7035 -1.7601
 7536TIP3   OH244022   3.509   3.647   3.402 -0.1994 -0.5240 -0.2172
 7536TIP3    H144023   3.596   3.663   3.438  0.0367 -1.5748 -0.2988
 7536TIP3    H244024   3.460   3.726   3.423  0.9205  0.3140 -0.6368
 7537TIP3   OH244025   3.383   4.416   5.692 -0.3575  0.0066  0.0000
 7537TIP3    H144026   3.453   4.452   5.746  0.1300  0.5645 -0.9787
 7537TIP3    H244027   3.308   4.410   5.751 -0.5619  2.9333  0.2098
 7538TIP3   OH244028   2.432   0.698  14.554  0.2038  0.6261 -0.1455
 7538TIP3    H144029   2.448   0.623  14.612  1.2818  1.6010  0.8774
 7538TIP3    H244030   2.412   0.770  14.613 -1.5302  1.0199 -1.1464
 7539TIP3   OH244031   5.411   6.314  15.425  0.3674 -0.3201 -0.6654
 7539TIP3    H144032   5.457   6.303  15.508  0.6179  0.5883 -0.6824
 7539TIP3    H244033   5.398   6.224  15.393  0.1052 -0.6881  0.4367
 7540TIP3   OH244034   0.857   4.700  15.964 -0.2861 -0.2586  0.1953
 7540TIP3    H144035   0.919   4.647  15.915 -0.7580 -1.1169  0.5152
 7540TIP3    H244036   0.787   4.640  15.988  0.0672  0.0354  2.1887
 7541TIP3   OH244037   1.967   6.085   2.969 -0.2137  0.0882 -0.0049
 7541TIP3    H144038   1.917   6.029   3.029  0.5840 -0.8496 -0.1894
 7541TIP3    H244039   2.055   6.088   3.007 -0.3032  1.4571  0.1411
 7542TIP3   OH244040   4.223   6.390  13.871 -0.0640 -0.5401 -0.2712
 7542TIP3    H144041   4.227   6.308  13.823 -2.8566 -0.4042 -0.9286
 7542TIP3    H244042   4.204   6.456  13.804 -0.1822  0.2614  0.5296
 7543TIP3   OH244043   0.300   0.077  12.693  0.2371 -0.5381 -0.2352
 7543TIP3    H144044   0.364   0.104  12.627 -0.8122  0.5743 -0.8512
 7543TIP3    H244045   0.338  -0.001  12.733  3.0011  1.2166  0.9009
 7544TIP3   OH244046   3.959   1.647   2.625 -0.8054  0.5363  0.5257
 7544TIP3    H144047   4.051   1.625   2.641 -1.0555  0.3730  1.8574
 7544TIP3    H244048   3.930   1.582   2.562 -0.1069  0.3517  0.3795
 7545TIP3   OH244049   4.138   6.551  15.066 -0.0956 -0.2658  0.2842
 7545TIP3    H144050   4.216   6.556  15.121 -0.0412  1.5188  0.0859
 7545TIP3    H244051   4.163   6.595  14.984 -0.5417 -1.8537 -0.7658
 7546TIP3   OH244052   0.693   4.073  12.986  0.8147  0.0158 -0.9429
 7546TIP3    H144053   0.623   4.125  12.946 -1.7754 -1.6260  1.1042
 7546TIP3    H244054   0.702   3.997  12.928 -0.9190 -0.9685  0.0032
 7547TIP3   OH244055   2.083   4.957   1.416 -0.3487  0.2560  0.0465
 7547TIP3    H144056   2.022   5.022   1.383 -1.3008 -0.7323 -0.2067
 7547TIP3    H244057   2.145   5.007   1.470 -1.0969  1.3403 -0.0748
 7548TIP3   OH244058   2.794   5.530  12.236  0.7122  0.9695 -0.0037
 7548TIP3    H144059   2.775   5.457  12.295  0.4080  0.7544 -0.3669
 7548TIP3    H244060   2.727   5.525  12.168  2.8035 -0.6167 -2.1004
 7549TIP3   OH244061   1.055   5.997  16.293  0.0700 -0.1268 -0.1808
 7549TIP3    H144062   1.150   5.994  16.291  0.1059  0.2042  0.5216
 7549TIP3    H244063   1.029   6.007  16.202  0.6590 -1.2593 -0.4897
 7550TIP3   OH244064   5.202   2.195   0.267 -0.4214  0.2870 -0.0999
 7550TIP3    H144065   5.244   2.185   0.182 -1.8444 -0.3351 -0.7531
 7550TIP3    H244066   5.217   2.287   0.290  1.9884 -0.1012  0.1125
 7551TIP3   OH244067   1.825   4.135  15.059 -0.2041  0.2828 -0.0365
 7551TIP3    H144068   1.853   4.197  14.991  1.4772 -1.5124 -1.0867
 7551TIP3    H244069   1.786   4.062  15.011  0.3922 -0.7137  0.9353
 7552TIP3   OH244070   5.881   5.104   4.578  1.0664 -0.7014 -0.0057
 7552TIP3    H144071   5.869   5.170   4.509 -0.1038  1.6768  2.2877
 7552TIP3    H244072   5.812   5.040   4.562  0.8313 -0.2210 -1.0209
 7553TIP3   OH244073   1.187   4.725  11.595  0.3211 -0.7027  0.1037
 7553TIP3    H144074   1.275   4.696  11.568  0.1707 -0.0828 -1.1266
 7553TIP3    H244075   1.127   4.668  11.546 -0.0082 -1.7132  1.5906
 7554TIP3   OH244076   4.056   0.317  13.849 -0.1644  0.2165  0.2803
 7554TIP3    H144077   4.029   0.336  13.939 -3.2861  0.6571 -0.6116
 7554TIP3    H244078   4.063   0.404  13.808 -1.7102 -0.0222 -0.5765
 7555TIP3   OH244079   4.573   4.903   3.912 -0.1633 -0.4695  0.1208
 7555TIP3    H144080   4.646   4.857   3.870  0.3301  0.0564  0.3886
 7555TIP3    H244081   4.538   4.960   3.844  0.9011  0.6932  0.5207
 7556TIP3   OH244082   1.236   0.071  12.577  0.1395  0.2098 -0.1216
 7556TIP3    H144083   1.227   0.157  12.619  3.6468  0.5138  0.3090
 7556TIP3    H244084   1.305   0.083  12.512 -1.2635 -1.6560 -2.0916
 7557TIP3   OH244085   5.554   2.518   0.598  0.3407  0.3884 -0.5975
 7557TIP3    H144086   5.635   2.547   0.640  0.9260 -0.0771 -1.3650
 7557TIP3    H244087   5.577   2.436   0.554  0.0634  1.3237 -2.6490
 7558TIP3   OH244088   3.538   3.186  11.071  0.2922 -0.4731  0.4124
 7558TIP3    H144089   3.480   3.122  11.031 -3.6401  1.9471  1.6747
 7558TIP3    H244090   3.585   3.226  10.997  0.3663 -2.4810 -0.6840
 7559TIP3   OH244091   3.502   6.175   0.213 -0.5950 -0.1254  0.0720
 7559TIP3    H144092   3.431   6.235   0.191 -0.0596 -0.0566 -1.6527
 7559TIP3    H244093   3.483   6.095   0.164  0.5637 -0.0566 -0.5247
 7560TIP3   OH244094   1.564   2.434  11.615  0.4422 -0.9120  0.4019
 7560TIP3    H144095   1.524   2.501  11.559 -2.1346 -2.6147  0.0638
 7560TIP3    H244096   1.631   2.394  11.559 -0.9297 -1.4455 -0.9289
 7561TIP3   OH244097   6.223   0.384  12.270  0.0126 -0.3571 -0.2941
 7561TIP3    H144098   6.128   0.381  12.283  0.0457 -2.7610 -0.2635
 7561TIP3    H244099   6.241   0.476  12.251 -2.2120  0.3023  0.4481
 7562TIP3   OH244100   4.406   2.618  11.158  0.0991 -0.5428 -0.3426
 7562TIP3    H144101   4.358   2.564  11.095  0.8217 -2.3173  0.5649
 7562TIP3    H244102   4.412   2.703  11.116 -1.2415 -1.0895 -1.7652
 7563TIP3   OH244103   0.251   0.912   2.021 -0.4275 -0.4591  0.7505
 7563TIP3    H144104   0.271   0.998   1.984 -0.3225  0.7185  3.3060
 7563TIP3    H244105   0.283   0.849   1.956 -1.6840  1.3777 -1.7987
 7564TIP3   OH244106   4.443   3.686   3.574  0.5433  0.6619  0.2997
 7564TIP3    H144107   4.395   3.757   3.532  0.6765 -0.1294 -1.2580
 7564TIP3    H244108   4.534   3.698   3.546  0.4339 -0.5651 -0.6441
 7565TIP3   OH244109   1.919   1.093  15.685  0.3823  0.4139 -0.1705
 7565TIP3    H144110   1.975   1.167  15.661 -0.3060  0.8462 -0.4605
 7565TIP3    H244111   1.831   1.120  15.659 -0.0558 -0.0081  0.8457
 7566TIP3   OH244112   0.422   4.094   4.880 -0.0825  0.8265  0.0588
 7566TIP3    H144113   0.433   4.111   4.973 -2.7337  1.5126  0.3270
 7566TIP3    H244114   0.365   4.018   4.876  0.5324  0.4010 -1.0369
 7567TIP3   OH244115   3.036   4.537   1.897  0.3429 -0.4685 -0.4424
 7567TIP3    H144116   2.970   4.564   1.961 -0.6408  0.8903 -1.9495
 7567TIP3    H244117   3.117   4.575   1.929 -0.7001  3.0908 -1.6065
 7568TIP3   OH244118   0.323   2.601  12.901 -0.3498 -0.8430  0.2504
 7568TIP3    H144119   0.309   2.588  12.807  0.2132 -0.6340  0.1346
 7568TIP3    H244120   0.244   2.567  12.942 -0.0152 -2.2394 -0.2093
 7569TIP3   OH244121   0.253   1.698  15.260 -0.2691  0.0190  0.3763
 7569TIP3    H144122   0.260   1.793  15.273  4.7878  0.1998 -1.2952
 7569TIP3    H244123   0.270   1.661  15.347 -0.1627  0.7001  0.6538
 7570TIP3   OH244124   2.369   0.872   3.172 -0.1563 -0.1618  0.2431
 7570TIP3    H144125   2.454   0.872   3.216  0.8832  0.2757 -1.6151
 7570TIP3    H244126   2.363   0.785   3.132 -0.7586 -0.3119  0.6508
 7571TIP3   OH244127   0.380   3.136  12.067 -0.3960  0.2800  0.2445
 7571TIP3    H144128   0.429   3.065  12.026 -0.2451  0.3588  0.2892
 7571TIP3    H244129   0.423   3.149  12.151  0.3841  1.2977 -0.3051
 7572TIP3   OH244130   5.310   5.054  14.693  0.1173  0.1731  0.1043
 7572TIP3    H144131   5.329   5.145  14.718  0.4369 -0.3921  2.1016
 7572TIP3    H244132   5.236   5.060  14.633 -0.7576  1.6832  1.2690
 7573TIP3   OH244133   5.871   4.120  12.499 -0.8848 -0.1539  0.0263
 7573TIP3    H144134   5.860   4.041  12.552  3.9243  0.7624  2.9762
 7573TIP3    H244135   5.824   4.188  12.547  0.2473 -0.0922  1.0974
 7574TIP3   OH244136   4.250   4.335  15.453 -0.2842  0.0426 -0.7442
 7574TIP3    H144137   4.261   4.265  15.517 -0.8269 -0.4120 -1.1280
 7574TIP3    H244138   4.332   4.335  15.403 -0.3165 -0.3821 -0.7992
 7575TIP3   OH244139   3.913   6.336  16.243  0.1338  0.2564  0.4789
 7575TIP3    H144140   3.935   6.426  16.268 -1.7226  0.4497  1.6232
 7575TIP3    H244141   3.926   6.334  16.149  2.4622  1.0138  0.7197
 7576TIP3   OH244142   6.306   4.011   2.066  0.1913  0.1463  0.3446
 7576TIP3    H144143   6.219   4.027   2.103  0.3661  0.2719  0.7104
 7576TIP3    H244144   6.313   3.916   2.064  0.5486  0.1287  1.5488
 7577TIP3   OH244145   5.516   3.304   2.789 -0.1946  0.1842 -0.0781
 7577TIP3    H144146   5.540   3.397   2.794  0.1924  0.0875 -0.0989
 7577TIP3    H244147   5.440   3.302   2.732  0.0544  0.4414 -0.4241
 7578TIP3   OH244148   6.334   1.286   3.250 -0.5309 -0.2466  0.8822
 7578TIP3    H144149   6.308   1.228   3.322 -0.2140 -0.5450  0.7554
 7578TIP3    H244150   6.336   1.230   3.173  1.3357 -0.4543  1.0277
 7579TIP3   OH244151   1.741   4.033   2.564  0.0567 -0.4914 -0.1283
 7579TIP3    H144152   1.767   3.996   2.648 -0.2951  2.4923  1.4404
 7579TIP3    H244153   1.756   4.127   2.574 -0.0471 -0.0203 -3.4239
 7580TIP3   OH244154   5.522   1.566  16.997  0.4152 -0.0802  0.0983
 7580TIP3    H144155   5.557   1.477  17.005 -1.6705 -0.9294  0.1757
 7580TIP3    H244156   5.509   1.594  17.088  2.0107  0.7528  0.1151
 7581TIP3   OH244157   0.376   0.343  16.216 -0.4923 -0.1281  0.4156
 7581TIP3    H144158   0.382   0.320  16.124 -0.0708 -3.0100  1.0784
 7581TIP3    H244159   0.284   0.368  16.228 -0.8239 -0.8165 -0.5597
 7582TIP3   OH244160   5.192   4.414   6.038 -0.4842  0.4947 -0.1651
 7582TIP3    H144161   5.280   4.436   6.007 -0.3064  1.2742  0.8382
 7582TIP3    H244162   5.186   4.456   6.124 -1.6977  0.1163 -0.0505
 7583TIP3   OH244163   1.854   1.507  10.921 -0.3500 -0.0933 -0.0923
 7583TIP3    H144164   1.887   1.582  10.971  0.0274 -0.1528 -0.2492
 7583TIP3    H244165   1.897   1.515  10.835 -0.0859 -0.6439 -0.0154
 7584TIP3   OH244166   6.458   0.141   6.100 -0.1408 -0.3596 -0.1355
 7584TIP3    H144167   6.514   0.069   6.129 -0.9011 -0.4730  1.1213
 7584TIP3    H244168   6.388   0.145   6.165 -0.4204  1.1698 -0.4855
 7585TIP3   OH244169   1.100   1.371   4.424 -0.0184 -0.3831  0.3903
 7585TIP3    H144170   1.100   1.458   4.384  2.0252 -0.4230  0.1558
 7585TIP3    H244171   1.094   1.388   4.518 -4.5200 -0.2801  0.2848
 7586TIP3   OH244172   2.433   1.314   0.239  0.2608  1.0690  0.0490
 7586TIP3    H144173   2.524   1.325   0.267  0.5801  1.7432 -1.1704
 7586TIP3    H244174   2.389   1.394   0.270  0.0520  0.7012  0.7185
 7587TIP3   OH244175   5.687   1.929  12.766 -0.0277  0.7408  0.2958
 7587TIP3    H144176   5.639   1.958  12.689  2.0795 -0.0991 -1.4587
 7587TIP3    H244177   5.727   1.846  12.740 -1.6775 -1.2167  3.3748
 7588TIP3   OH244178   6.010   6.055   1.547 -0.7244  0.6176 -0.0429
 7588TIP3    H144179   6.066   6.041   1.624 -2.1236 -0.1777  0.8785
 7588TIP3    H244180   5.922   6.034   1.577 -1.4365  1.1062 -1.6573
 7589TIP3   OH244181   1.145   6.106  13.397  0.0189 -0.1950 -0.1503
 7589TIP3    H144182   1.206   6.121  13.325 -0.3939  1.4757 -0.1840
 7589TIP3    H244183   1.117   6.194  13.424 -1.1440 -0.8587  0.9171
 7590TIP3   OH244184   4.651   1.245  13.714  0.5469 -0.3854  0.4022
 7590TIP3    H144185   4.600   1.244  13.634  1.8413  1.9261 -0.5488
 7590TIP3    H244186   4.591   1.213  13.781 -1.7917  1.0807 -0.8519
 7591TIP3   OH244187   4.988   3.307  11.999  0.4407  0.2788 -0.4018
 7591TIP3    H144188   4.916   3.311  11.935 -0.2132 -0.5463  0.2547
 7591TIP3    H244189   5.027   3.221  11.987  1.5878  0.8622 -1.0076
 7592TIP3   OH244190   6.284   1.413   4.958  0.8034 -0.3933 -0.8165
 7592TIP3    H144191   6.231   1.455   4.890  2.2000  1.7586 -0.6492
 7592TIP3    H244192   6.229   1.416   5.037  1.4243  2.7598 -0.3810
 7593TIP3   OH244193   5.667   1.634   3.550 -0.0305 -0.1970  0.3005
 7593TIP3    H144194   5.572   1.621   3.543  0.1122 -0.5563 -1.3414
 7593TIP3    H244195   5.676   1.713   3.604 -1.1863 -1.1361  1.9772
 7594TIP3   OH244196   4.321   0.809   5.224  0.5770 -0.1919 -0.0088
 7594TIP3    H144197   4.329   0.900   5.251 -0.2850  0.0363 -0.4912
 7594TIP3    H244198   4.392   0.797   5.161  1.6758 -0.3185  1.2113
 7595TIP3   OH244199   6.594   5.000   1.947  1.0668 -0.8252 -0.2987
 7595TIP3    H144200   6.532   5.007   1.874  3.0180 -2.0342 -2.2129
 7595TIP3    H244201   6.540   4.981   2.023 -1.1115  0.8936 -1.2998
 7596TIP3   OH244202   5.299   1.803   0.549 -1.0444 -0.0190  0.1347
 7596TIP3    H144203   5.252   1.863   0.491  0.0581  1.2389  0.4809
 7596TIP3    H244204   5.272   1.830   0.637 -1.4141 -0.7949  0.2614
 7597TIP3   OH244205   0.835   1.346   3.622  0.5064 -0.3780 -0.5438
 7597TIP3    H144206   0.762   1.407   3.612  0.3192 -0.4486  0.3113
 7597TIP3    H244207   0.904   1.399   3.663 -0.0809 -1.0103  1.3750
 7598TIP3   OH244208   2.187   1.457  12.217 -0.1528 -0.1238 -0.4005
 7598TIP3    H144209   2.187   1.414  12.131 -2.6005 -0.9528 -0.0651
 7598TIP3    H244210   2.156   1.389  12.277  0.0842  0.8771  0.8907
 7599TIP3   OH244211   2.952   3.907   6.563  0.1607 -0.0628  0.3738
 7599TIP3    H144212   3.029   3.905   6.505 -1.0355 -0.5804 -1.2519
 7599TIP3    H244213   2.933   4.000   6.573 -0.3454  0.0256 -1.1260
 7600TIP3   OH244214   4.225   3.654   3.811 -0.0427  0.3240 -0.1110
 7600TIP3    H144215   4.317   3.679   3.810  0.2236 -0.6213  0.0764
 7600TIP3    H244216   4.224   3.562   3.787 -0.9298  0.2845  0.0274
 7601TIP3   OH244217   2.147   1.997   0.095  0.3356 -0.2380 -0.1401
 7601TIP3    H144218   2.109   1.926   0.146  0.2737 -0.9287 -1.1226
 7601TIP3    H244219   2.194   1.954   0.024  1.3533  0.6690 -0.0465
 7602TIP3   OH244220   4.576   2.434  16.119 -0.1685 -0.2015 -0.0738
 7602TIP3    H144221   4.510   2.419  16.187 -1.6370  1.5530 -1.0198
 7602TIP3    H244222   4.596   2.346  16.086 -1.6470 -0.8309  0.6051
 7603TIP3   OH244223   3.198   4.840  15.610  0.4253  0.1305  0.1477
 7603TIP3    H144224   3.173   4.915  15.556  1.5775 -0.2460 -0.9593
 7603TIP3    H244225   3.293   4.835  15.602  0.7104  0.3053  2.5832
 7604TIP3   OH244226   0.128   1.297   6.248 -0.1026  0.1466  0.2582
 7604TIP3    H144227   0.211   1.264   6.282 -1.0030 -1.7021  0.7913
 7604TIP3    H244228   0.067   1.290   6.321 -1.3226 -0.9248 -0.8135
 7605TIP3   OH244229   4.727   0.966  15.105  0.2258 -0.1450 -0.0887
 7605TIP3    H144230   4.712   0.894  15.043  1.3600 -1.2901  0.8999
 7605TIP3    H244231   4.649   0.967  15.160 -0.0142 -0.2789 -0.4175
 7606TIP3   OH244232   1.549   0.831   0.056  0.1927  0.4018 -0.2180
 7606TIP3    H144233   1.477   0.791   0.006  1.6778 -1.4209 -0.9934
 7606TIP3    H244234   1.549   0.786   0.140  1.3089 -0.6543 -0.7605
 7607TIP3   OH244235   3.854   2.558   2.623  0.4194 -0.0549 -0.0797
 7607TIP3    H144236   3.833   2.465   2.628 -0.7394  0.2389  1.7291
 7607TIP3    H244237   3.945   2.564   2.653  0.1617 -0.5131  0.8180
 7608TIP3   OH244238   6.783   4.405   5.294  0.3582 -0.3660  0.2063
 7608TIP3    H144239   6.724   4.331   5.281  1.4182 -1.1769 -0.0884
 7608TIP3    H244240   6.828   4.387   5.376  0.0895  0.3343  0.5193
 7609TIP3   OH244241   5.378   6.387   0.623 -0.6349  0.3815  0.3487
 7609TIP3    H144242   5.324   6.352   0.693  0.2241 -0.0336  0.8101
 7609TIP3    H244243   5.348   6.341   0.544 -0.2986 -0.5650  0.7620
 7610TIP3   OH244244   6.649   4.806   6.247  0.4634 -0.1832  0.1589
 7610TIP3    H144245   6.586   4.813   6.175  1.8767  1.9944 -1.0061
 7610TIP3    H244246   6.600   4.768   6.319 -1.6818 -0.2028 -1.2324
 7611TIP3   OH244247   5.962   0.826   0.952 -0.5467  0.3175 -0.3000
 7611TIP3    H144248   5.897   0.894   0.933 -0.5106  0.3195 -0.4184
 7611TIP3    H244249   5.918   0.744   0.929 -1.3146  0.1172  1.7095
 7612TIP3   OH244250   3.427   6.508  17.223 -0.1634  0.5061 -0.5311
 7612TIP3    H144251   3.381   6.580  17.267  1.1409  1.6843 -0.9940
 7612TIP3    H244252   3.405   6.430  17.273 -2.8243  0.9423 -0.8592
 7613TIP3   OH244253   5.876   0.847   4.405  0.0552 -0.0151 -0.7010
 7613TIP3    H144254   5.893   0.754   4.391  0.1779  0.0086 -0.7158
 7613TIP3    H244255   5.811   0.870   4.339  0.0697 -0.0769 -0.7367
 7614TIP3   OH244256   3.520   0.203  13.213  0.3732  0.1247  0.3183
 7614TIP3    H144257   3.476   0.127  13.253  1.0814 -0.2251  0.4553
 7614TIP3    H244258   3.607   0.204  13.254  1.3926 -0.6494 -1.7023
 7615TIP3   OH244259   1.742   6.509  13.719  0.0756  0.2662  0.0382
 7615TIP3    H144260   1.747   6.570  13.792  0.1764 -0.9349  1.0636
 7615TIP3    H244261   1.763   6.562  13.642  3.4433  0.8850  1.2263
 7616TIP3   OH244262   6.649   0.080   1.250  0.2097  0.0287  0.1719
 7616TIP3    H144263   6.651   0.033   1.166 -2.2460 -0.5646  0.3517
 7616TIP3    H244264   6.611   0.165   1.229  1.2937  0.5907  0.4248
 7617TIP3   OH244265   5.901   2.868   3.140  0.5178  0.4669  0.1156
 7617TIP3    H144266   5.940   2.922   3.208 -1.2219  1.3060  0.4955
 7617TIP3    H244267   5.824   2.828   3.182  1.0841 -1.3993 -0.4970
 7618TIP3   OH244268   5.810   6.767   0.633 -0.2480 -0.1611 -0.0958
 7618TIP3    H144269   5.782   6.832   0.570 -1.5739 -1.8148 -1.2939
 7618TIP3    H244270   5.817   6.685   0.583 -0.1386 -1.2753  1.6278
 7619TIP3   OH244271   3.116   3.119   6.050  0.6640 -0.1134  0.3900
 7619TIP3    H144272   3.073   3.033   6.046  1.0148 -0.2445 -1.1302
 7619TIP3    H244273   3.131   3.133   6.144  1.2857 -2.0668  0.6485
 7620TIP3   OH244274   5.087   5.393  14.675 -0.3783 -0.1242  0.2536
 7620TIP3    H144275   5.124   5.447  14.606 -1.6218 -1.7454 -1.8165
 7620TIP3    H244276   5.162   5.354  14.718  0.4222  0.4348 -0.5978
 7621TIP3   OH244277   1.226   6.742  16.634 -0.4702  0.2516  0.0703
 7621TIP3    H144278   1.288   6.815  16.638 -0.9162  0.6065  0.4943
 7621TIP3    H244279   1.282   6.664  16.626  0.0113  0.6155 -0.1697
 7622TIP3   OH244280   1.004   5.351   1.922 -0.1171 -0.0314 -0.0632
 7622TIP3    H144281   0.969   5.267   1.894 -1.3038  0.2274  0.5718
 7622TIP3    H244282   1.010   5.344   2.018 -3.1657  1.6041  0.3786
 7623TIP3   OH244283   2.098   5.463  13.466 -0.2387 -0.1228 -0.2579
 7623TIP3    H144284   2.162   5.518  13.420  0.1008 -0.8231 -0.6369
 7623TIP3    H244285   2.019   5.516  13.469  0.0308  0.3199 -0.7756
 7624TIP3   OH244286   5.458   3.522   2.157  0.4422  0.2868  0.3171
 7624TIP3    H144287   5.419   3.529   2.070  0.9047  0.6732  0.1316
 7624TIP3    H244288   5.525   3.591   2.158  1.6775 -0.8792  0.3261
 7625TIP3   OH244289   1.500   3.532  17.176  0.2193  0.8395  0.0254
 7625TIP3    H144290   1.421   3.480  17.163  0.0588  0.8330  0.9744
 7625TIP3    H244291   1.473   3.603  17.234  0.6094  1.5765 -0.6719
 7626TIP3   OH244292   6.068   3.708  15.494 -0.5990  0.0973 -0.1178
 7626TIP3    H144293   6.006   3.725  15.564 -2.2167  0.6447 -1.5982
 7626TIP3    H244294   6.061   3.785  15.437  0.6673 -0.3165 -0.8841
 7627TIP3   OH244295   2.430   1.905  12.153 -0.0699  0.0387 -0.0117
 7627TIP3    H144296   2.460   1.825  12.109 -0.0795 -0.3899  0.7378
 7627TIP3    H244297   2.346   1.881  12.191 -0.8413  0.8907 -1.1098
 7628TIP3   OH244298   1.912   0.146  15.491  0.1458  0.7343 -0.8759
 7628TIP3    H144299   1.931   0.056  15.465 -1.3123 -0.1312  0.8533
 7628TIP3    H244300   1.980   0.167  15.555  0.7059  1.0139 -1.5534
 7629TIP3   OH244301   5.220   0.398   3.631 -0.7057  0.2348 -0.5276
 7629TIP3    H144302   5.213   0.487   3.666 -0.1767 -0.1620  0.6601
 7629TIP3    H244303   5.269   0.408   3.550 -0.6912  1.0427 -0.4307
 7630TIP3   OH244304   4.180   6.010  11.970  0.0946  0.2468 -0.1137
 7630TIP3    H144305   4.086   6.010  11.951 -0.1651 -0.1203  1.0819
 7630TIP3    H244306   4.200   6.102  11.989  0.1273  0.4329 -1.0085
 7631TIP3   OH244307   1.113   0.754   2.303 -0.3676  0.4291  0.4275
 7631TIP3    H144308   1.187   0.784   2.250 -1.2960  2.1062 -0.0043
 7631TIP3    H244309   1.146   0.677   2.350  0.7525 -0.6234 -1.9204
 7632TIP3   OH244310   6.167   2.005  15.453  0.0191  0.0006  0.0282
 7632TIP3    H144311   6.150   2.032  15.362  0.4427 -0.7366 -0.2829
 7632TIP3    H244312   6.083   1.973  15.485 -0.2514  0.7452  0.0682
 7633TIP3   OH244313   0.230   4.295   4.770 -0.3131  0.3868  0.3720
 7633TIP3    H144314   0.281   4.366   4.807  0.6120  0.1000 -0.3052
 7633TIP3    H244315   0.295   4.228   4.747 -0.9537  0.1284 -0.7652
 7634TIP3   OH244316   4.554   1.614   4.469 -0.3687  0.5836  0.2374
 7634TIP3    H144317   4.559   1.556   4.545 -1.5477  0.4665  0.2287
 7634TIP3    H244318   4.606   1.570   4.402 -0.5321 -0.0305  0.5102
 7635TIP3   OH244319   4.968   6.307  12.023 -0.3989  0.3316  0.2310
 7635TIP3    H144320   4.923   6.227  11.994 -0.5826  0.7516 -0.6755
 7635TIP3    H244321   5.051   6.306  11.975 -0.1922  0.4388  0.5879
 7636TIP3   OH244322   2.853   2.690  12.736  0.4609  0.4205  0.7054
 7636TIP3    H144323   2.813   2.745  12.804  0.0609 -1.0491  1.7122
 7636TIP3    H244324   2.780   2.639  12.701  0.9229  0.0539  0.2673
 7637TIP3   OH244325   4.539   6.609  12.263  0.3887 -0.4438 -0.0475
 7637TIP3    H144326   4.448   6.624  12.287  0.2816 -2.3464  0.9040
 7637TIP3    H244327   4.535   6.574  12.174  0.3130  0.5654 -0.4608
 7638TIP3   OH244328   3.232   5.446  13.291  0.3146 -0.8235 -0.2226
 7638TIP3    H144329   3.153   5.473  13.244  0.6378  0.9388  0.2062
 7638TIP3    H244330   3.211   5.459  13.384  1.5743  1.0910 -0.1569
 7639TIP3   OH244331   0.778   0.927  10.685 -0.1234  0.0805 -0.3003
 7639TIP3    H144332   0.781   0.864  10.758 -1.2978 -0.7658 -0.9555
 7639TIP3    H244333   0.837   0.997  10.712  0.2967 -0.7335  0.9891
 7640TIP3   OH244334   6.529   3.830   4.250 -0.0493  0.9044  0.3262
 7640TIP3    H144335   6.471   3.873   4.312  1.3414  0.7336  1.8087
 7640TIP3    H244336   6.471   3.793   4.184 -1.7188 -0.1401  2.2816
 7641TIP3   OH244337   0.119   0.606  16.376  0.4934  0.5111  0.1905
 7641TIP3    H144338   0.054   0.667  16.409  1.2375  0.0386  2.7203
 7641TIP3    H244339   0.192   0.662  16.348 -0.4515  0.9597 -1.5781
 7642TIP3   OH244340   0.948   0.486  17.120 -0.2397 -0.7861 -0.0563
 7642TIP3    H144341   0.987   0.465  17.036 -0.9590  1.9460 -1.1562
 7642TIP3    H244342   0.856   0.458  17.112 -0.1082 -1.3186  0.1868
 7643TIP3   OH244343   0.972   1.849  11.547  0.3850  0.1295 -0.2181
 7643TIP3    H144344   1.013   1.874  11.464 -1.8043  0.4125 -1.2848
 7643TIP3    H244345   0.904   1.915  11.560  0.1437 -0.3984  1.4131
 7644TIP3   OH244346   5.047   6.661   4.002  0.2399 -0.4324 -0.7770
 7644TIP3    H144347   5.013   6.744   4.035 -3.1718 -1.6796 -0.8022
 7644TIP3    H244348   5.025   6.660   3.909 -0.9549 -1.8513 -0.5159
 7645TIP3   OH244349   1.074   6.096   1.224 -0.4881 -0.6555  0.3751
 7645TIP3    H144350   1.073   6.081   1.319 -0.4704  3.0270  1.1218
 7645TIP3    H244351   0.982   6.099   1.199 -0.5697  0.3540  0.7352
 7646TIP3   OH244352   5.055   5.951  11.873 -0.7332  0.4455  0.2859
 7646TIP3    H144353   5.139   5.963  11.918 -0.4538 -0.4038 -0.0035
 7646TIP3    H244354   5.060   5.864  11.833 -1.1363  0.9993 -1.0472
 7647TIP3   OH244355   0.734   4.102   0.074 -0.0050 -0.0076  0.5063
 7647TIP3    H144356   0.751   4.164   0.004 -0.7168  0.8345  1.0696
 7647TIP3    H244357   0.655   4.135   0.118  0.3901 -0.5478  1.6630
 7648TIP3   OH244358   6.134   1.391   5.622  0.0895 -0.4914 -0.4928
 7648TIP3    H144359   6.229   1.399   5.618  0.5361 -2.2337  2.8111
 7648TIP3    H244360   6.106   1.463   5.679 -0.3699 -0.7731 -0.3547
 7649TIP3   OH244361   5.201   0.803  15.892  0.5407  0.2801  0.3336
 7649TIP3    H144362   5.218   0.883  15.942  0.8013 -1.1750  2.6897
 7649TIP3    H244363   5.285   0.757  15.890  0.3914  0.0053 -0.9888
 7650TIP3   OH244364   3.946   6.566   3.424  0.3395 -0.4036 -0.3383
 7650TIP3    H144365   3.981   6.636   3.368  0.1880  0.5177  0.6720
 7650TIP3    H244366   3.859   6.597   3.450 -0.2369 -1.5485 -0.8607
 7651TIP3   OH244367   6.521   2.080   2.444 -0.0779  0.0939  0.1074
 7651TIP3    H144368   6.437   2.124   2.458 -2.0183 -2.7324 -1.6039
 7651TIP3    H244369   6.515   1.999   2.495  1.9422  0.1237  0.4969
 7652TIP3   OH244370   2.286   1.260   3.484  0.5469  0.4144 -0.0109
 7652TIP3    H144371   2.378   1.256   3.459 -0.0447  2.0805 -2.9310
 7652TIP3    H244372   2.261   1.169   3.502  1.5609 -0.9109 -4.2722
 7653TIP3   OH244373   4.334   5.153  16.655 -0.0790 -0.0447  0.7265
 7653TIP3    H144374   4.387   5.225  16.621 -0.8552  0.6554  0.9345
 7653TIP3    H244375   4.244   5.181  16.639 -0.4221 -0.4453  1.8597
 7654TIP3   OH244376   3.946   5.397  16.010 -0.0642  0.1495 -0.4532
 7654TIP3    H144377   3.976   5.474  16.057 -0.6828  0.3528 -0.3785
 7654TIP3    H244378   3.913   5.430  15.926  0.9822 -0.2037 -1.0212
 7655TIP3   OH244379   4.880   2.958   6.033 -0.3630 -0.0639  0.1604
 7655TIP3    H144380   4.841   2.965   5.945 -1.4210 -0.3698  0.5922
 7655TIP3    H244381   4.849   2.874   6.066  1.0896 -0.5512  0.3428
 7656TIP3   OH244382   5.162   6.216  13.768 -0.0627  0.9350 -0.2918
 7656TIP3    H144383   5.208   6.290  13.807  4.3974 -1.4140 -0.4165
 7656TIP3    H244384   5.111   6.178  13.840 -1.3443  3.2059  0.0789
 7657TIP3   OH244385   5.197   2.367  13.173 -0.8407  0.6361  0.0347
 7657TIP3    H144386   5.208   2.456  13.141  1.2808  0.0270 -1.1371
 7657TIP3    H244387   5.239   2.366  13.259 -2.5728  1.1823  0.9331
 7658TIP3   OH244388   4.711   0.728  12.695  0.5466 -0.0089 -0.9037
 7658TIP3    H144389   4.651   0.709  12.767  1.5732  1.4960  0.4174
 7658TIP3    H244390   4.764   0.649  12.686 -0.3498 -0.6340 -0.8019
 7659TIP3   OH244391   0.871   2.694  14.660  0.4967  0.4175 -0.2383
 7659TIP3    H144392   0.828   2.667  14.741 -0.1057  0.2742 -0.5933
 7659TIP3    H244393   0.891   2.787  14.673 -0.8913  0.7805 -0.4439
 7660TIP3   OH244394   0.915   0.619   1.530 -0.2404  0.1676  0.4094
 7660TIP3    H144395   0.919   0.556   1.602 -0.9826  0.3623  0.6328
 7660TIP3    H244396   0.891   0.702   1.572 -1.5400  0.1003 -0.1572
 7661TIP3   OH244397   4.628   1.599  14.843  0.2464 -0.0922  0.3945
 7661TIP3    H144398   4.687   1.674  14.848  0.7704 -0.2668 -2.2343
 7661TIP3    H244399   4.675   1.529  14.888  0.5735  0.6028  1.1804
 7662TIP3   OH244400   3.982   1.372   1.253 -0.2471 -0.0274  0.6119
 7662TIP3    H144401   4.016   1.324   1.178 -0.6676 -1.6715  1.4274
 7662TIP3    H244402   3.901   1.326   1.276 -1.1843  1.6625  0.8630
 7663TIP3   OH244403   5.319   2.171  14.595 -0.0289 -0.2432  0.3727
 7663TIP3    H144404   5.280   2.166  14.508 -0.9068 -1.1336  0.8030
 7663TIP3    H244405   5.342   2.264  14.605  0.5042 -0.2057 -0.9665
 7664TIP3   OH244406   0.792   4.312  11.639 -0.3072 -0.4749 -0.3859
 7664TIP3    H144407   0.789   4.406  11.620 -2.1136  0.8469  4.7400
 7664TIP3    H244408   0.702   4.282  11.624 -0.2884 -0.8015  0.1207
 7665TIP3   OH244409   5.549   3.676  17.204  0.5350 -0.1627 -0.7803
 7665TIP3    H144410   5.458   3.673  17.174  0.3167  0.5332 -0.2186
 7665TIP3    H244411   5.548   3.736  17.279  0.9443 -2.1920  0.9791
 7666TIP3   OH244412   4.620   5.665  15.401  0.1319 -0.6970  0.2179
 7666TIP3    H144413   4.638   5.719  15.324  0.1698 -1.4879 -0.3377
 7666TIP3    H244414   4.681   5.697  15.468 -1.0071  1.0874  0.4563
 7667TIP3   OH244415   1.280   5.593  11.068 -0.9759  0.0639 -0.1503
 7667TIP3    H144416   1.335   5.514  11.068 -0.8223  0.1717 -0.4931
 7667TIP3    H244417   1.193   5.562  11.093 -0.6417 -0.0288  0.9769
 7668TIP3   OH244418   6.604   3.588  11.193 -0.0627 -0.4216  0.2085
 7668TIP3    H144419   6.589   3.529  11.119  3.0312  0.1748 -1.0396
 7668TIP3    H244420   6.615   3.530  11.268 -1.3535 -1.1384 -0.1183
 7669TIP3   OH244421   3.710   4.065   0.313 -0.1505  0.0876 -0.5594
 7669TIP3    H144422   3.743   4.055   0.224 -0.6095 -1.9424 -0.5446
 7669TIP3    H244423   3.694   3.976   0.344 -1.2150  0.7866  1.1053
 7670TIP3   OH244424   1.511   0.490  13.485 -0.9898 -0.2276  0.4159
 7670TIP3    H144425   1.595   0.494  13.531 -0.8703 -1.2715  0.3189
 7670TIP3    H244426   1.499   0.577  13.448  0.1787 -0.1406  0.2080
 7671TIP3   OH244427   4.752   0.972   5.205 -0.0738  0.3202  0.2246
 7671TIP3    H144428   4.826   0.983   5.264  0.6450  0.9938 -0.7594
 7671TIP3    H244429   4.713   0.888   5.231 -0.1370  0.8611  1.9852
 7672TIP3   OH244430   0.098   6.019   0.642  0.5913  0.3510  0.0315
 7672TIP3    H144431   0.136   6.016   0.554  0.3934 -1.6500 -0.0233
 7672TIP3    H244432   0.174   6.018   0.701  0.7410 -2.6088 -0.0933
 7673TIP3   OH244433   5.823   0.375   1.888  0.3193 -0.2096 -0.4070
 7673TIP3    H144434   5.913   0.387   1.857  0.3035 -1.3638 -0.9475
 7673TIP3    H244435   5.777   0.454   1.861  1.3268  0.7148  0.4954
 7674TIP3   OH244436   4.794   4.426   4.791  0.6516  0.3383  0.1956
 7674TIP3    H144437   4.835   4.487   4.731  0.4455  0.9825  0.7021
 7674TIP3    H244438   4.703   4.419   4.760  0.5095  0.7735  0.5077
 7675TIP3   OH244439   1.385   6.463   2.838  0.6115  0.5412 -0.3824
 7675TIP3    H144440   1.303   6.493   2.878  1.1349  0.4492  0.7820
 7675TIP3    H244441   1.453   6.516   2.879  1.6677 -2.6266  2.3322
 7676TIP3   OH244442   1.813   2.838   5.931  0.2612  0.0199 -0.1581
 7676TIP3    H144443   1.788   2.866   6.020 -0.1249  0.3068 -0.3528
 7676TIP3    H244444   1.841   2.747   5.941 -1.0193 -0.3741  0.0513
 7677TIP3   OH244445   5.932   5.688  13.103  0.1478  0.2166 -0.3085
 7677TIP3    H144446   5.946   5.613  13.044 -2.8397 -0.6617 -0.0778
 7677TIP3    H244447   5.987   5.669  13.179  0.9186 -0.7237 -1.0693
 7678TIP3   OH244448   5.017   6.282  13.089  0.4192 -0.3438 -0.0401
 7678TIP3    H144449   5.015   6.251  12.999 -0.4559 -1.4461  0.3457
 7678TIP3    H244450   4.933   6.256  13.126  0.4458  0.7687  0.8883
 7679TIP3   OH244451   4.829   5.637   2.310  0.3195 -0.1153 -0.3871
 7679TIP3    H144452   4.860   5.561   2.359 -0.3493  0.7392  1.4664
 7679TIP3    H244453   4.733   5.630   2.313  0.2612  0.0568 -1.4515
 7680TIP3   OH244454   4.424   3.553  14.814  0.1030  0.0563  0.1935
 7680TIP3    H144455   4.404   3.601  14.895  0.4760 -0.4818  0.6173
 7680TIP3    H244456   4.430   3.462  14.842  0.7472 -0.0749 -0.3571
 7681TIP3   OH244457   1.858   5.804   1.076 -0.3175  0.0723  0.0006
 7681TIP3    H144458   1.906   5.726   1.104 -2.1322 -0.5022  1.7157
 7681TIP3    H244459   1.816   5.779   0.994  1.5870  0.3346 -1.1120
 7682TIP3   OH244460   6.252   4.366  15.170 -0.6515 -0.0423 -0.5738
 7682TIP3    H144461   6.305   4.333  15.098  1.8728  1.3444  0.5365
 7682TIP3    H244462   6.258   4.297  15.237  1.1687  0.7578  0.1519
 7683TIP3   OH244463   5.891   4.072   4.157  0.0185  0.3809  0.2998
 7683TIP3    H144464   5.873   4.059   4.064  1.2608  0.5918  0.0085
 7683TIP3    H244465   5.981   4.104   4.160  0.5173 -1.0176  1.6681
 7684TIP3   OH244466   2.692   4.144  12.445  0.1149  0.3797  0.5653
 7684TIP3    H144467   2.672   4.051  12.436 -1.5240  0.7686 -0.2245
 7684TIP3    H244468   2.728   4.153  12.533  0.5330 -1.0306  0.5609
 7685TIP3   OH244469   5.923   2.495   0.042  0.1198  0.2658 -0.4178
 7685TIP3    H144470   6.005   2.510   0.090  1.0349  0.4258 -1.9857
 7685TIP3    H244471   5.940   2.530  -0.045 -1.4459 -0.2171 -0.9368
 7686TIP3   OH244472   0.247   3.890   3.886 -0.0541  0.0409  0.1586
 7686TIP3    H144473   0.181   3.925   3.945  0.3341  2.1036 -0.5144
 7686TIP3    H244474   0.330   3.905   3.931  0.1175 -0.1793 -0.0782
 7687TIP3   OH244475   0.370   6.547   0.405 -0.5849 -0.3499  1.2065
 7687TIP3    H144476   0.347   6.543   0.313 -2.5906 -1.2869  1.6841
 7687TIP3    H244477   0.464   6.564   0.406 -0.5748 -0.0017 -0.9820
 7688TIP3   OH244478   3.614   0.540  13.076 -0.0384 -0.1872  0.4402
 7688TIP3    H144479   3.673   0.523  13.002 -0.3630  0.1443  0.1032
 7688TIP3    H244480   3.661   0.506  13.152  1.0467  1.0127  0.3258
 7689TIP3   OH244481   4.889   1.394  11.174 -0.3050 -0.7362 -0.1191
 7689TIP3    H144482   4.912   1.415  11.084  0.2835 -1.2996 -0.1064
 7689TIP3    H244483   4.952   1.326  11.200  1.9133  1.8319  1.8702
 7690TIP3   OH244484   0.782   6.633  11.944  0.0557  0.3142  0.1950
 7690TIP3    H144485   0.761   6.571  12.014 -0.0991  2.0705  1.8077
 7690TIP3    H244486   0.772   6.583  11.863 -1.4752 -1.3482  1.3302
 7691TIP3   OH244487   2.984   1.030  15.276  0.3106 -0.3875 -0.0979
 7691TIP3    H144488   3.020   0.999  15.193 -2.9525  0.3423 -1.9654
 7691TIP3    H244489   3.011   1.121  15.283 -1.3883  0.3021 -1.7299
 7692TIP3   OH244490   6.539   0.235  14.002 -0.1999  0.6847  0.3388
 7692TIP3    H144491   6.540   0.210  14.094  2.2739  0.0915  0.2106
 7692TIP3    H244492   6.550   0.330  14.004  2.4975  0.4275  0.6798
 7693TIP3   OH244493   4.794   3.742   1.331 -0.6940 -0.0535  0.7903
 7693TIP3    H144494   4.750   3.764   1.248  0.7261  0.7902  0.2239
 7693TIP3    H244495   4.886   3.759   1.314 -0.0633 -2.0697  1.8438
 7694TIP3   OH244496   0.998   2.688   3.150  0.0702 -0.5385 -0.0707
 7694TIP3    H144497   1.057   2.687   3.225  0.5350 -1.1373 -0.4393
 7694TIP3    H244498   1.052   2.717   3.077  0.1291 -1.8479 -0.5718
 7695TIP3   OH244499   2.576   5.656   1.848  0.1510  0.1660 -0.4383
 7695TIP3    H144500   2.629   5.625   1.921  0.1560 -0.7968 -0.8374
 7695TIP3    H244501   2.487   5.629   1.869  0.4538 -2.1142 -1.7916
 7696TIP3   OH244502   3.401   1.217   3.714  0.0390  0.0286 -0.2125
 7696TIP3    H144503   3.361   1.262   3.789 -1.4184 -1.2507 -0.1770
 7696TIP3    H244504   3.425   1.288   3.654  0.8304  1.0555  1.2375
 7697TIP3   OH244505   3.306   1.435  11.490 -0.4971 -0.1517  0.5945
 7697TIP3    H144506   3.384   1.449  11.436 -0.3352 -0.7572  0.6517
 7697TIP3    H244507   3.251   1.511  11.475 -0.3565 -0.2111 -0.2568
 7698TIP3   OH244508   2.523   5.233  13.220  0.1125  0.8257  0.1439
 7698TIP3    H144509   2.547   5.230  13.312  1.0728  0.6716 -0.1048
 7698TIP3    H244510   2.508   5.326  13.203  0.0589  0.8697  0.4207
 7699TIP3   OH244511   5.478   3.880  11.505  0.0252 -0.4243 -0.2823
 7699TIP3    H144512   5.496   3.847  11.593 -0.8369 -0.8879 -0.2681
 7699TIP3    H244513   5.431   3.962  11.519  0.9223  0.1032 -0.3171
 7700TIP3   OH244514   3.319   3.687   5.209 -0.1372  0.1388 -0.1559
 7700TIP3    H144515   3.234   3.730   5.219  0.3064  1.2672 -1.0056
 7700TIP3    H244516   3.303   3.597   5.236 -1.3162  0.6101  0.8414
 7701TIP3   OH244517   0.745   5.754  16.820  0.3881  0.5319  0.3640
 7701TIP3    H144518   0.812   5.686  16.817  0.7172  0.8085  1.2817
 7701TIP3    H244519   0.689   5.729  16.894  1.2796  1.9457  1.5575
 7702TIP3   OH244520   4.838   0.683  14.342 -0.5076 -0.3454 -0.3878
 7702TIP3    H144521   4.848   0.650  14.252  1.4390  0.1655 -0.4011
 7702TIP3    H244522   4.839   0.605  14.396 -3.0965 -0.7801 -0.8441
 7703TIP3   OH244523   2.706   1.891   0.544 -0.6336  0.8146  0.1298
 7703TIP3    H144524   2.684   1.835   0.470 -0.2519 -0.4227  0.9106
 7703TIP3    H244525   2.802   1.897   0.542 -0.7375  3.9167 -1.6590
 7704TIP3   OH244526   0.594   1.032  11.828 -0.6302 -0.0476  0.0270
 7704TIP3    H144527   0.534   1.009  11.757 -0.6725 -0.0393  0.0598
 7704TIP3    H244528   0.567   1.119  11.855 -1.0292 -0.3063  0.4836
 7705TIP3   OH244529   1.749   1.331   5.101 -0.1385 -0.2062 -0.4202
 7705TIP3    H144530   1.801   1.290   5.171  0.3370  2.9513  1.2841
 7705TIP3    H244531   1.658   1.312   5.125 -0.1115  2.2506  2.3063
 7706TIP3   OH244532   4.778   5.819   6.486  0.6188  0.4674 -0.3533
 7706TIP3    H144533   4.800   5.911   6.499 -0.0600  0.6620 -0.5183
 7706TIP3    H244534   4.856   5.781   6.445  0.7592  1.0599 -0.6509
 7707TIP3   OH244535   2.428   1.668  16.195  0.0633 -0.0585 -0.1006
 7707TIP3    H144536   2.363   1.738  16.201  1.0694  0.7971  1.2318
 7707TIP3    H244537   2.480   1.691  16.118 -1.7908 -1.3432 -1.8772
 7708TIP3   OH244538   1.106   5.646   2.826 -0.0587 -0.4325 -0.2840
 7708TIP3    H144539   1.070   5.601   2.749 -0.7639 -1.3018  0.5238
 7708TIP3    H244540   1.034   5.699   2.859  0.3536  0.2271 -0.4297
 7709TIP3   OH244541   3.728   3.716   0.704  0.3004  0.1110 -0.7901
 7709TIP3    H144542   3.710   3.808   0.689 -2.2060 -0.0955  0.4459
 7709TIP3    H244543   3.710   3.702   0.797 -1.7600 -2.0393 -1.3986
 7710TIP3   OH244544   3.856   3.354  14.045 -0.3655  0.1849 -0.0375
 7710TIP3    H144545   3.819   3.348  14.132  0.6598 -2.0380  0.3241
 7710TIP3    H244546   3.912   3.432  14.048  0.6617 -0.5573  1.7405
 7711TIP3   OH244547   3.395   6.361   6.371 -0.4235 -0.1197 -0.2471
 7711TIP3    H144548   3.490   6.377   6.374 -0.4191 -0.2456  0.3386
 7711TIP3    H244549   3.385   6.270   6.398 -0.9353  0.7570  2.8652
 7712TIP3   OH244550   2.357   2.471  12.875  0.1546 -0.3199 -0.3266
 7712TIP3    H144551   2.263   2.473  12.892 -0.1774 -2.5093 -1.4963
 7712TIP3    H244552   2.366   2.503  12.785  1.1568  4.5626  1.2460
 7713TIP3   OH244553   6.720   2.777  15.562 -0.0164 -0.8347 -0.3294
 7713TIP3    H144554   6.667   2.777  15.641  0.5426 -0.2298  0.0569
 7713TIP3    H244555   6.670   2.724  15.500 -0.6306 -1.0254  0.3087
 7714TIP3   OH244556   3.479   0.253  16.476  0.1018  0.2156  0.5697
 7714TIP3    H144557   3.392   0.290  16.491 -0.0283  0.8461 -1.4633
 7714TIP3    H244558   3.462   0.161  16.454 -0.0084  0.2073  0.6875
 7715TIP3   OH244559   2.039   0.800  16.937 -0.0717  0.0558  0.1800
 7715TIP3    H144560   2.023   0.890  16.967 -0.1844 -0.2399  1.0546
 7715TIP3    H244561   1.986   0.746  16.996  0.9603 -0.6668  0.4766
 7716TIP3   OH244562   0.862   2.059  12.002 -0.4849 -0.4495  0.3322
 7716TIP3    H144563   0.793   2.064  12.068 -1.1240  0.8468 -0.3843
 7716TIP3    H244564   0.883   1.966  11.995 -1.0158 -0.6887  1.7280
 7717TIP3   OH244565   0.009   0.327  11.683 -0.2091  0.5651  0.6172
 7717TIP3    H144566   0.087   0.280  11.711 -0.4932 -0.5567 -0.3847
 7717TIP3    H244567   0.018   0.335  11.588 -0.8081  1.3818  0.6121
 7718TIP3   OH244568   3.812   5.074   2.504  0.0422  0.2222 -0.1744
 7718TIP3    H144569   3.807   5.056   2.410  0.3006 -0.1676 -0.1181
 7718TIP3    H244570   3.836   4.990   2.542  0.0355  0.4046  0.2315
 7719TIP3   OH244571   1.572   4.983   6.018 -0.4626 -0.1851  0.5446
 7719TIP3    H144572   1.617   5.066   6.006 -2.0867  0.7873  0.9045
 7719TIP3    H244573   1.581   4.965   6.112  0.9367 -1.0738  0.2678
 7720TIP3   OH244574   6.232   2.511  14.519  0.8148 -0.1445  0.1010
 7720TIP3    H144575   6.264   2.509  14.609  0.3087  0.6269  0.3092
 7720TIP3    H244576   6.159   2.449  14.519  0.4733  0.2445  0.3725
 7721TIP3   OH244577   3.768   0.766   4.369  0.0325 -0.1390  0.2330
 7721TIP3    H144578   3.840   0.705   4.350  0.6619  0.6049  0.1753
 7721TIP3    H244579   3.768   0.826   4.294  0.6807  1.1027  1.1880
 7722TIP3   OH244580   5.901   2.766   0.569 -0.2565  0.0897  0.6238
 7722TIP3    H144581   5.940   2.822   0.636  1.7525 -0.2952 -0.1606
 7722TIP3    H244582   5.860   2.695   0.618 -0.5125  0.8216  1.5040
 7723TIP3   OH244583   6.710   0.318   2.900 -0.3970 -0.7990 -0.0632
 7723TIP3    H144584   6.734   0.248   2.840 -0.7924 -2.3840  1.5471
 7723TIP3    H244585   6.777   0.315   2.969 -2.5135 -2.3232  2.1168
 7724TIP3   OH244586   2.591   4.450   3.106  0.0928  0.1693  0.2195
 7724TIP3    H144587   2.534   4.381   3.140  0.9995  0.3261  2.1811
 7724TIP3    H244588   2.544   4.532   3.125  0.3430  0.2330  0.5613
 7725TIP3   OH244589   2.380   5.541  11.010 -0.4489 -0.2827  0.0985
 7725TIP3    H144590   2.327   5.575  10.938 -0.0121 -0.3034 -0.2408
 7725TIP3    H244591   2.395   5.449  10.988 -1.9959 -0.8538  1.2355
 7726TIP3   OH244592   5.627   4.526   2.955 -0.0215 -1.1045  0.0570
 7726TIP3    H144593   5.715   4.489   2.959  0.3879 -0.0748  1.3344
 7726TIP3    H244594   5.637   4.616   2.985 -1.5647 -1.0773  0.6024
 7727TIP3   OH244595   3.032   1.796   1.032  0.1908 -0.0758 -0.2894
 7727TIP3    H144596   3.027   1.805   1.127  0.3522  0.5794 -0.3450
 7727TIP3    H244597   2.942   1.774   1.006 -0.1371  1.0040 -0.1160
 7728TIP3   OH244598   1.231   6.274  11.760  0.2016 -0.6465 -0.5907
 7728TIP3    H144599   1.202   6.293  11.671  1.4614 -1.7539 -1.2666
 7728TIP3    H244600   1.157   6.301  11.815 -1.6589 -2.2326 -2.1399
 7729TIP3   OH244601   4.791   6.199  13.212 -0.2776  0.0358  0.7458
 7729TIP3    H144602   4.763   6.108  13.203 -2.4487  0.8547 -2.6524
 7729TIP3    H244603   4.719   6.241  13.259 -1.8142  0.8203 -2.0623
 7730TIP3   OH244604   5.375   1.082   0.801 -0.2202  0.1465 -0.0304
 7730TIP3    H144605   5.447   1.061   0.742 -0.0520  0.5314  0.0340
 7730TIP3    H244606   5.303   1.025   0.773  0.2385 -0.5457  0.1777
 7731TIP3   OH244607   2.005   1.949   1.598 -0.1560  0.0414 -0.1355
 7731TIP3    H144608   2.039   2.038   1.607  1.3676 -0.5844  0.6785
 7731TIP3    H244609   2.038   1.903   1.675 -0.3338 -1.4133 -0.8977
 7732TIP3   OH244610   1.120   0.961  11.873  0.4490 -0.3572 -0.4298
 7732TIP3    H144611   1.046   0.998  11.921  0.3831 -0.8312 -0.1668
 7732TIP3    H244612   1.080   0.896  11.815  0.4153  0.8104 -1.7737
 7733TIP3   OH244613   0.945   2.778   1.301 -0.1849  0.0183 -0.5476
 7733TIP3    H144614   1.006   2.802   1.371 -2.0499  1.3513  0.7337
 7733TIP3    H244615   0.914   2.691   1.325  0.5690 -0.3168 -0.7582
 7734TIP3   OH244616   2.814   1.372   4.131 -0.0154  0.2524  0.2292
 7734TIP3    H144617   2.805   1.342   4.222 -0.8474 -0.8063 -0.1783
 7734TIP3    H244618   2.813   1.467   4.137  0.8508  0.2110  1.4133
 7735TIP3   OH244619   3.661   2.284   2.205 -0.2430 -0.5583  0.1956
 7735TIP3    H144620   3.572   2.300   2.235 -0.1737  0.1661  0.0560
 7735TIP3    H244621   3.654   2.279   2.109 -0.0217  0.4037  0.1159
 7736TIP3   OH244622   4.515   6.661  11.445  0.0852  0.4303  0.2212
 7736TIP3    H144623   4.572   6.632  11.374 -0.6363  0.1496 -0.2598
 7736TIP3    H244624   4.509   6.756  11.433  0.5019  0.4678  0.3117
 7737TIP3   OH244625   4.717   0.072  16.801  0.5173  0.0907  0.9609
 7737TIP3    H144626   4.701   0.155  16.847  0.0390  1.8602 -2.1299
 7737TIP3    H244627   4.631   0.046  16.769  1.1422  0.2958 -1.0015
 7738TIP3   OH244628   5.637   3.808   4.524  0.2344  0.2834 -0.1131
 7738TIP3    H144629   5.605   3.718   4.532 -1.4370  0.6327 -2.1430
 7738TIP3    H244630   5.701   3.803   4.453  0.1254  0.7043 -0.2398
 7739TIP3   OH244631   4.924   0.818   1.532  0.0071 -0.3081 -0.0280
 7739TIP3    H144632   4.844   0.803   1.481  1.1209 -0.4448 -1.7999
 7739TIP3    H244633   4.918   0.909   1.560 -0.7279 -0.3023 -0.1715
 7740TIP3   OH244634   1.035   5.511   5.106 -0.3145 -0.5307  0.3238
 7740TIP3    H144635   1.028   5.531   5.013  2.5715  1.5752  0.4288
 7740TIP3    H244636   1.119   5.465   5.114  0.1349  0.5190  2.0168
 7741TIP3   OH244637   3.540   5.531   2.628 -0.6989 -0.1591  0.2472
 7741TIP3    H144638   3.516   5.438   2.632 -3.0121  0.3289 -0.7262
 7741TIP3    H244639   3.605   5.535   2.558 -1.1608 -0.9459 -0.2449
 7742TIP3   OH244640   2.742   1.396  14.921 -0.0996 -0.3190  0.1683
 7742TIP3    H144641   2.764   1.303  14.933  0.0681 -0.0759  1.9629
 7742TIP3    H244642   2.648   1.396  14.903  0.2970 -0.9723 -2.3474
 7743TIP3   OH244643   1.608   0.261   4.373 -0.4769 -0.4998 -0.1651
 7743TIP3    H144644   1.536   0.248   4.435 -0.3095 -0.4509  0.0411
 7743TIP3    H244645   1.567   0.302   4.297 -0.5922 -0.0665  0.1258
 7744TIP3   OH244646   0.608   1.006   1.229  0.0957 -0.3642 -0.0790
 7744TIP3    H144647   0.523   1.037   1.262 -0.6429 -1.5029 -0.8206
 7744TIP3    H244648   0.663   1.000   1.308 -1.5911 -2.9090  1.0419
 7745TIP3   OH244649   3.756   4.399  12.467 -0.1614  0.1897  0.0221
 7745TIP3    H144650   3.663   4.417  12.452 -0.5598 -2.0743 -0.5668
 7745TIP3    H244651   3.761   4.304  12.475  1.9883  0.3301  1.0696
 7746TIP3   OH244652   3.440   4.113   4.587 -0.1286  0.2373 -0.5768
 7746TIP3    H144653   3.405   4.101   4.498  0.1564  1.1997 -0.8323
 7746TIP3    H244654   3.424   4.029   4.630 -1.2246  0.1004 -1.2113
 7747TIP3   OH244655   4.981   1.762   0.789  0.9204 -0.6168 -0.1858
 7747TIP3    H144656   4.979   1.685   0.731  0.0648 -1.1958  0.5788
 7747TIP3    H244657   4.944   1.730   0.871 -0.9470  1.0064 -0.3342
 7748TIP3   OH244658   3.099   3.486  14.380 -0.5288  0.6930 -0.2145
 7748TIP3    H144659   3.095   3.557  14.444 -0.7671  1.4279 -1.0227
 7748TIP3    H244660   3.016   3.492  14.333 -0.6172 -0.2273 -0.1898
 7749TIP3   OH244661   3.328   6.128  17.067  0.2702 -0.2088 -0.6594
 7749TIP3    H144662   3.263   6.124  17.138 -0.0560 -0.8472 -0.9910
 7749TIP3    H244663   3.293   6.194  17.007  0.7158  0.5854 -0.0771
 7750TIP3   OH244664   2.694   3.975   0.601  0.9446 -0.4073 -0.3207
 7750TIP3    H144665   2.778   3.940   0.631  1.2689  0.1235 -0.5906
 7750TIP3    H244666   2.713   4.010   0.514  0.6100  0.3673 -0.0842
 7751TIP3   OH244667   4.650   2.249  12.297  0.4024 -0.1171 -0.1212
 7751TIP3    H144668   4.568   2.202  12.312  0.6438 -0.8991 -1.1262
 7751TIP3    H244669   4.641   2.286  12.209  1.5637 -1.2214 -0.7476
 7752TIP3   OH244670   0.960   6.508   4.577 -0.3378 -0.1562 -0.0628
 7752TIP3    H144671   1.018   6.490   4.503  0.7626 -0.6951  0.8749
 7752TIP3    H244672   0.879   6.540   4.538  0.1348 -0.6173 -1.4945
 7753TIP3   OH244673   1.852   3.503  16.823 -0.1104 -0.7129  0.0172
 7753TIP3    H144674   1.768   3.500  16.868  0.3906 -2.0818  0.9538
 7753TIP3    H244675   1.863   3.414  16.788  1.0108 -0.5974  0.0469
 7754TIP3   OH244676   6.523   0.152  14.271  0.2514 -0.8898 -0.1737
 7754TIP3    H144677   6.539   0.062  14.299  0.2014 -1.4064 -1.7381
 7754TIP3    H244678   6.431   0.154  14.246  0.0743 -0.2094  0.4603
 7755TIP3   OH244679   4.513   4.634   3.258  0.4526 -0.0443  0.1618
 7755TIP3    H144680   4.505   4.699   3.188  1.1467 -1.3149 -1.1665
 7755TIP3    H244681   4.432   4.584   3.253  0.3242  0.1189  0.5623
 7756TIP3   OH244682   5.646   0.527   1.107  0.0574  0.7433 -0.0145
 7756TIP3    H144683   5.583   0.465   1.145  0.7280 -0.2925 -0.5471
 7756TIP3    H244684   5.635   0.607   1.159  1.8175 -0.9628  3.2775
 7757TIP3   OH244685   4.137   5.869  15.724  0.1844  0.4334  0.0571
 7757TIP3    H144686   4.124   5.789  15.674 -3.3644  0.7576  0.2533
 7757TIP3    H244687   4.130   5.939  15.659 -0.9260  0.7150  0.4622
 7758TIP3   OH244688   6.254   6.420   2.614 -0.4184  0.7151 -0.9067
 7758TIP3    H144689   6.204   6.487   2.569 -0.7373  0.8962 -0.2893
 7758TIP3    H244690   6.251   6.445   2.706 -0.6256 -0.1953 -0.6540
 7759TIP3   OH244691   2.000   6.275  13.270 -0.1505 -0.2243  0.3569
 7759TIP3    H144692   2.026   6.183  13.264 -0.0794 -0.1782 -0.0700
 7759TIP3    H244693   1.938   6.287  13.197  0.1813  0.1766  0.1394
 7760TIP3   OH244694   3.976   6.203  13.198 -0.1263  0.2528 -1.0789
 7760TIP3    H144695   3.988   6.188  13.104 -1.4934 -4.1173 -0.7860
 7760TIP3    H244696   4.056   6.169  13.238 -0.0874  0.9079 -0.5952
 7761TIP3   OH244697   3.999   6.293   3.386 -0.3526 -0.6319  0.0402
 7761TIP3    H144698   3.989   6.266   3.294  1.1278  0.9425 -0.6356
 7761TIP3    H244699   3.991   6.388   3.383  2.7686 -0.2364  1.0322
 7762TIP3   OH244700   5.886   3.368  13.511 -0.1231 -0.0641  0.3628
 7762TIP3    H144701   5.904   3.280  13.478 -0.0160  0.5408 -1.3224
 7762TIP3    H244702   5.939   3.426  13.456 -1.4609  1.1750  0.2980
 7763TIP3   OH244703   6.397   5.856  12.116  0.8926  0.1533 -0.0683
 7763TIP3    H144704   6.453   5.907  12.058 -0.0146  2.1423  0.7223
 7763TIP3    H244705   6.308   5.872  12.084  0.4966  0.0870  0.9791
 7764TIP3   OH244706   5.699   4.299  16.081 -0.2721 -0.4390  0.1003
 7764TIP3    H144707   5.630   4.261  16.137 -0.3331  0.2560  0.5045
 7764TIP3    H244708   5.656   4.370  16.034  0.2049  0.1285  0.4994
 7765TIP3   OH244709   4.468   1.539  16.530 -0.0946  0.5189 -0.8966
 7765TIP3    H144710   4.454   1.489  16.611  0.6122 -0.4096 -1.3185
 7765TIP3    H244711   4.558   1.570  16.538 -0.3861  1.3595 -0.8430
 7766TIP3   OH244712   2.544   4.451   1.537  0.4278  0.4761 -0.3216
 7766TIP3    H144713   2.561   4.400   1.458  2.9528  0.3791  0.1837
 7766TIP3    H244714   2.625   4.443   1.588 -0.1163  2.7330  1.0439
 7767TIP3   OH244715   0.191   2.914  16.249 -0.6619  0.2653  0.1253
 7767TIP3    H144716   0.137   2.888  16.324 -1.2783  0.6862 -0.1578
 7767TIP3    H244717   0.225   2.831  16.214  1.3827  0.1825  2.1074
 7768TIP3   OH244718   5.155   0.896   2.277  0.3352  0.0788  0.1962
 7768TIP3    H144719   5.132   0.949   2.353  1.4813 -1.5309  1.7271
 7768TIP3    H244720   5.123   0.809   2.298  1.7625 -0.6710 -0.6308
 7769TIP3   OH244721   4.674   0.765   3.254 -0.0937  0.2778  0.0315
 7769TIP3    H144722   4.592   0.800   3.221  0.6516  1.5205 -0.5820
 7769TIP3    H244723   4.736   0.838   3.247  1.0750 -0.6424  0.4226
 7770TIP3   OH244724   6.627   5.210   4.509  0.6421  0.3376 -0.4694
 7770TIP3    H144725   6.610   5.299   4.478  0.5822  0.3414 -0.4251
 7770TIP3    H244726   6.565   5.197   4.581 -1.4698 -0.7893 -2.3688
 7771TIP3   OH244727   6.075   0.533  12.854 -0.2764 -0.3637 -0.5674
 7771TIP3    H144728   6.137   0.495  12.916 -2.4784  0.3784  2.3049
 7771TIP3    H244729   6.030   0.457  12.816  1.2203 -0.8314 -1.5085
 7772TIP3   OH244730   2.388   1.060  12.041 -0.0374 -0.0237  0.1176
 7772TIP3    H144731   2.411   1.031  11.953 -0.9220 -0.3385 -0.0137
 7772TIP3    H244732   2.471   1.091  12.078  0.5301 -0.8216 -0.4618
 7773TIP3   OH244733   5.004   3.870   2.030 -0.0581  0.6514  0.0563
 7773TIP3    H144734   4.971   3.948   2.075  1.6077  1.0564  0.6708
 7773TIP3    H244735   5.089   3.853   2.072 -0.2417 -1.3153 -0.2813
 7774TIP3   OH244736   4.412   3.929  16.013  0.0960 -0.2896 -0.0865
 7774TIP3    H144737   4.476   3.963  16.076  0.8143 -0.8219 -0.5174
 7774TIP3    H244738   4.444   3.841  15.991  0.0546  0.0205 -1.4643
 7775TIP3   OH244739   2.012   4.985  12.976 -0.4417  0.1828 -0.1117
 7775TIP3    H144740   2.014   4.954  12.886 -2.6657  1.0723 -0.5381
 7775TIP3    H244741   2.026   5.079  12.969  1.0073  0.0440  0.6539
 7776TIP3   OH244742   0.257   3.578   0.581 -0.3005  0.2757  0.1912
 7776TIP3    H144743   0.300   3.525   0.647  1.2529 -0.0260 -0.9941
 7776TIP3    H244744   0.164   3.560   0.591  0.0887 -1.5319  0.7686
 7777TIP3   OH244745   6.561   5.678  12.230  0.1134 -0.6993 -0.1685
 7777TIP3    H144746   6.572   5.622  12.153 -2.3451 -0.9550 -0.3925
 7777TIP3    H244747   6.503   5.748  12.201  1.0655  0.5543  0.8343
 7778TIP3   OH244748   6.479   0.947   5.852  0.4813  0.2893  0.0629
 7778TIP3    H144749   6.439   0.879   5.906 -0.0205  1.2342  0.9238
 7778TIP3    H244750   6.571   0.921   5.845  0.6142  0.2538  1.5803
 7779TIP3   OH244751   4.947   2.332  16.519  0.4491  0.2179 -1.3000
 7779TIP3    H144752   4.946   2.310  16.426 -1.0229  0.2152 -1.3089
 7779TIP3    H244753   4.869   2.385  16.532  1.4514  1.5152 -0.3446
 7780TIP3   OH244754   2.503   2.453   3.624  0.7007 -0.1112  0.0680
 7780TIP3    H144755   2.500   2.361   3.598 -0.2628  0.2824 -1.3243
 7780TIP3    H244756   2.417   2.470   3.663  0.8252  0.2301  0.1995
 7781TIP3   OH244757   3.896   2.471  13.107 -0.8632  0.5623  0.2958
 7781TIP3    H144758   3.959   2.542  13.097 -0.1097  0.0881  1.4454
 7781TIP3    H244759   3.878   2.467  13.201 -2.3310  0.4302  0.0433
 7782TIP3   OH244760   0.783   5.739  15.228  0.1231  0.3128  0.1406
 7782TIP3    H144761   0.723   5.798  15.275 -0.8619 -1.8792  1.7980
 7782TIP3    H244762   0.812   5.677  15.294 -0.1201 -2.0227 -1.8005
 7783TIP3   OH244763   2.563   2.684   4.494  0.0740  0.7852  0.0031
 7783TIP3    H144764   2.651   2.646   4.498 -0.9239 -1.7233 -0.4295
 7783TIP3    H244765   2.553   2.709   4.402 -0.6587 -1.5905 -0.6134
 7784TIP3   OH244766   0.762   5.443  15.593  0.2086  0.0962  0.1622
 7784TIP3    H144767   0.716   5.378  15.646 -0.5966  0.4562 -0.0665
 7784TIP3    H244768   0.832   5.395  15.549  0.5587 -0.3063  1.1514
 7785TIP3   OH244769   4.359   1.752   3.027  0.3113  0.1668  0.7751
 7785TIP3    H144770   4.336   1.659   3.017  0.9900  0.0015  0.6904
 7785TIP3    H244771   4.432   1.751   3.088  1.0442  0.5512 -0.0783
 7786TIP3   OH244772   3.216   3.230   2.038 -0.1034 -0.1884 -0.1481
 7786TIP3    H144773   3.203   3.227   1.943 -0.9384 -2.1183 -0.0108
 7786TIP3    H244774   3.296   3.180   2.052  1.0508  1.6096  0.0622
 7787TIP3   OH244775   6.659   4.528   2.783 -0.2843  0.3754  0.2492
 7787TIP3    H144776   6.632   4.554   2.695 -0.1916 -0.9887 -0.1983
 7787TIP3    H244777   6.749   4.560   2.791  0.0706 -0.3805 -0.5546
 7788TIP3   OH244778   1.651   2.228   1.244  0.4820 -0.2567  0.3583
 7788TIP3    H144779   1.629   2.185   1.327  0.8821 -1.2268 -0.0289
 7788TIP3    H244780   1.570   2.274   1.219 -0.2650 -1.5465  0.3205
 7789TIP3   OH244781   0.343   6.026   2.397  0.9768 -0.3760 -0.7317
 7789TIP3    H144782   0.310   6.045   2.484  0.1877 -0.1574 -1.0656
 7789TIP3    H244783   0.286   5.957   2.364  2.1722 -1.4842 -0.5347
 7790TIP3   OH244784   1.133   0.106   3.089  0.2954 -0.1971  0.0101
 7790TIP3    H144785   1.072   0.110   3.163 -0.9125 -0.6363 -0.9175
 7790TIP3    H244786   1.206   0.163   3.114 -1.6544  2.4223  0.1241
 7791TIP3   OH244787   3.461   1.512   0.419 -0.3606  0.0635  0.0241
 7791TIP3    H144788   3.391   1.565   0.458 -0.0155 -0.9616  2.1813
 7791TIP3    H244789   3.505   1.472   0.493  1.3498 -0.8209 -1.3892
 7792TIP3   OH244790   1.579   1.459  10.904  0.5613 -0.0938  0.1771
 7792TIP3    H144791   1.565   1.367  10.927  0.6347 -0.5139 -1.3075
 7792TIP3    H244792   1.664   1.481  10.940  0.2594 -0.4059  1.1010
 7793TIP3   OH244793   4.211   1.247   2.703  0.2278 -0.0942  0.2559
 7793TIP3    H144794   4.198   1.326   2.756  0.6247 -0.0340  0.2625
 7793TIP3    H244795   4.304   1.227   2.713  0.2513 -0.2186 -0.2338
 7794TIP3   OH244796   3.324   6.148   1.518 -0.0139 -0.9362  0.1095
 7794TIP3    H144797   3.335   6.117   1.608  0.3524 -3.5324 -0.7418
 7794TIP3    H244798   3.413   6.168   1.489 -0.1701  0.2783  0.3965
 7795TIP3   OH244799   4.516   5.125  14.907  0.4797  0.6923  0.3701
 7795TIP3    H144800   4.443   5.073  14.941  2.1483 -0.3066  2.7162
 7795TIP3    H244801   4.513   5.112  14.812 -1.5717 -0.3751  0.5216
 7796TIP3   OH244802   2.919   6.650  12.168 -0.1059 -0.0090  0.6664
 7796TIP3    H144803   2.991   6.660  12.105 -1.2827  1.4175 -0.5448
 7796TIP3    H244804   2.906   6.556  12.175 -0.0163 -0.2234 -1.3747
 7797TIP3   OH244805   4.209   1.896   4.748  0.6040  0.2711 -0.2559
 7797TIP3    H144806   4.272   1.967   4.750 -1.2733  2.0743 -1.3952
 7797TIP3    H244807   4.125   1.937   4.770 -0.1699 -2.1149  1.7253
 7798TIP3   OH244808   4.775   2.543  14.304  0.2587 -0.3928 -0.5868
 7798TIP3    H144809   4.722   2.608  14.259 -0.6945  0.6249  1.8390
 7798TIP3    H244810   4.844   2.593  14.347 -1.6264 -0.5269  2.9784
 7799TIP3   OH244811   4.632   4.605   3.865  0.3692 -0.3164 -0.9112
 7799TIP3    H144812   4.634   4.517   3.901  0.3721  0.7642  2.0115
 7799TIP3    H244813   4.707   4.649   3.904 -1.6159  1.9403  0.6754
 7800TIP3   OH244814   0.915   5.027  15.836  0.2840  0.3158 -0.9148
 7800TIP3    H144815   0.937   4.943  15.796  1.8726  0.1482  0.1953
 7800TIP3    H244816   0.870   5.005  15.917  0.5667  0.5349 -0.6949
 7801TIP3   OH244817   5.453   5.569   5.531  0.1709  0.2390 -0.5185
 7801TIP3    H144818   5.496   5.511   5.594  2.9164  1.5810 -0.9929
 7801TIP3    H244819   5.369   5.592   5.572 -0.0767 -2.3516  0.5859
 7802TIP3   OH244820   5.870   2.842  13.380  0.3275 -0.2063 -0.3225
 7802TIP3    H144821   5.849   2.773  13.317  0.5548  0.0167 -0.6446
 7802TIP3    H244822   5.913   2.910  13.328  0.4518  0.0119  0.0622
 7803TIP3   OH244823   6.682   2.073  11.322 -0.5426  0.2883 -0.3686
 7803TIP3    H144824   6.708   2.153  11.369  2.9813 -0.3295 -0.9986
 7803TIP3    H244825   6.640   2.019  11.389 -0.9251  1.7194  0.6028
 7804TIP3   OH244826   4.671   5.012  16.530  0.2130 -0.1524  0.0936
 7804TIP3    H144827   4.724   5.077  16.483 -0.1959  1.6198  1.9477
 7804TIP3    H244828   4.709   5.008  16.617 -2.2704  0.7990  1.3308
 7805TIP3   OH244829   1.588   6.636  16.861 -0.2546 -0.0243 -0.1184
 7805TIP3    H144830   1.630   6.560  16.902  0.3632 -0.1842 -1.0079
 7805TIP3    H244831   1.496   6.627  16.884 -0.0415 -0.5290  0.5791
 7806TIP3   OH244832   1.572   5.386   5.226  0.2721 -0.8609 -0.1148
 7806TIP3    H144833   1.629   5.453   5.264  1.8060 -2.1791  0.0166
 7806TIP3    H244834   1.566   5.318   5.293  0.4500 -1.7912 -1.0105
 7807TIP3   OH244835   5.866   0.115  16.498  0.0378  0.2361 -0.0600
 7807TIP3    H144836   5.918   0.193  16.479  0.8946 -0.2519  0.2151
 7807TIP3    H244837   5.920   0.042  16.466  0.0165 -0.3565  1.1898
 7808TIP3   OH244838   0.767   5.622   4.702  0.5840  0.2866  0.8666
 7808TIP3    H144839   0.830   5.557   4.731  0.0923 -0.0432  1.2232
 7808TIP3    H244840   0.682   5.577   4.707  0.3684  0.5555 -0.0814
 7809TIP3   OH244841   6.532   5.178   2.414 -0.1744  0.2204  0.2026
 7809TIP3    H144842   6.560   5.128   2.337 -0.3925 -0.3915  0.5135
 7809TIP3    H244843   6.601   5.162   2.479 -0.0535  0.6340  0.1749
 7810TIP3   OH244844   0.771   5.688  16.356 -0.2791 -0.2661  0.1762
 7810TIP3    H144845   0.724   5.746  16.416 -0.1447 -1.8147  1.8462
 7810TIP3    H244846   0.863   5.704  16.376 -0.1449  0.6215 -1.0311
 7811TIP3   OH244847   4.724   1.287   1.937  0.1535  0.3913  0.2839
 7811TIP3    H144848   4.712   1.265   2.029  1.6875  0.3962  0.5154
 7811TIP3    H244849   4.813   1.258   1.917 -0.6500 -0.9619 -1.6199
 7812TIP3   OH244850   6.451   2.443  13.545  0.2084  0.8120 -0.1726
 7812TIP3    H144851   6.400   2.520  13.521  0.1068  0.6040 -0.6352
 7812TIP3    H244852   6.392   2.391  13.600  0.5371  1.4238  0.7943
 7813TIP3   OH244853   1.544   3.821  16.885 -0.1272 -0.2183 -0.4349
 7813TIP3    H144854   1.603   3.834  16.811  2.4180  0.6576  1.5962
 7813TIP3    H244855   1.547   3.728  16.904 -1.4719 -0.5963 -1.8713
 7814TIP3   OH244856   6.696   1.531  13.324  0.4673 -0.0117 -0.0638
 7814TIP3    H144857   6.674   1.579  13.404  1.4268  0.6237 -0.1568
 7814TIP3    H244858   6.712   1.442  13.352  0.8458  0.2216  0.4764
 7815TIP3   OH244859   0.766   6.290   4.227 -0.0764 -0.1121 -0.0540
 7815TIP3    H144860   0.835   6.350   4.255  0.9181 -0.9270 -0.6733
 7815TIP3    H244861   0.748   6.316   4.136 -0.8643  0.3288  0.2154
 7816TIP3   OH244862   2.878   6.701   0.314 -0.3147 -0.1226  0.0112
 7816TIP3    H144863   2.834   6.723   0.232 -0.4260  0.4260  0.2121
 7816TIP3    H244864   2.915   6.784   0.345  0.2295 -0.4318  0.2212
 7817TIP3   OH244865   4.619   4.589   3.580 -0.4682 -0.0248  0.0934
 7817TIP3    H144866   4.610   4.585   3.675 -0.3790 -0.0166  0.1021
 7817TIP3    H244867   4.582   4.674   3.556  2.0328  1.2546  0.4251
 7818TIP3   OH244868   1.851   3.494   2.406 -0.7325 -0.2575 -0.2925
 7818TIP3    H144869   1.873   3.571   2.458 -4.2107 -0.0961  1.1941
 7818TIP3    H244870   1.933   3.471   2.362  0.7186  3.6311 -0.0241
 7819TIP3   OH244871   6.333   3.114   2.681  0.1688  0.3284 -0.2362
 7819TIP3    H144872   6.264   3.056   2.649 -1.4355  0.4699  2.6958
 7819TIP3    H244873   6.334   3.186   2.618 -2.9784  0.7289  0.0436
 7820TIP3   OH244874   5.741   6.280  11.650 -0.3217 -0.2930 -0.5632
 7820TIP3    H144875   5.711   6.281  11.559 -0.3066 -0.1172 -0.5680
 7820TIP3    H244876   5.770   6.190  11.665 -2.6993 -1.0285  0.0670
 7821TIP3   OH244877   5.484   3.876  13.340  0.3675 -0.9595  0.1904
 7821TIP3    H144878   5.400   3.867  13.386  1.0005 -1.6324  1.2542
 7821TIP3    H244879   5.524   3.789  13.347  1.3172 -0.5399  0.0222
 7822TIP3   OH244880   5.585   0.307  11.761  0.0027 -0.0708 -0.3004
 7822TIP3    H144881   5.659   0.310  11.820 -0.9324  1.5850  0.8904
 7822TIP3    H244882   5.527   0.240  11.797 -0.5058  0.8457  0.6658
 7823TIP3   OH244883   0.865   1.259  16.515 -0.1813 -0.0734  0.1033
 7823TIP3    H144884   0.891   1.173  16.548 -0.1454  0.0989  0.5371
 7823TIP3    H244885   0.798   1.241  16.450 -0.9139 -0.3849  0.9264
 7824TIP3   OH244886   0.440   3.920   1.066  0.1986  0.7550 -0.3820
 7824TIP3    H144887   0.363   3.910   1.011  0.1518  0.2488 -0.2361
 7824TIP3    H244888   0.409   3.896   1.154  1.0358 -1.8421 -0.6874
 7825TIP3   OH244889   4.361   6.314  17.206  0.1330 -0.1979  0.0251
 7825TIP3    H144890   4.362   6.404  17.173 -1.1430  0.4934  1.7216
 7825TIP3    H244891   4.272   6.282  17.188 -0.4107 -0.0132  2.0649
 7826TIP3   OH244892   4.126   1.841  14.557 -0.3162 -0.2958  0.1424
 7826TIP3    H144893   4.101   1.927  14.591 -2.6058 -0.6601 -0.4132
 7826TIP3    H244894   4.137   1.787  14.635 -0.4636  0.1105  0.4483
 7827TIP3   OH244895   5.938   4.258  12.143 -0.1475 -0.0204  0.1487
 7827TIP3    H144896   5.984   4.311  12.078 -0.7465 -0.2060 -0.4417
 7827TIP3    H244897   5.989   4.268  12.223  0.6248  0.1923 -0.3582
 7828TIP3   OH244898   4.701   1.389  11.363  0.2173  0.4871 -0.1301
 7828TIP3    H144899   4.763   1.366  11.433  0.4068 -2.4170 -1.1229
 7828TIP3    H244900   4.752   1.381  11.282 -1.1036 -0.7126 -0.8817
 7829TIP3   OH244901   5.473   4.369   6.517 -0.2355 -0.2103  0.2581
 7829TIP3    H144902   5.528   4.318   6.457  2.7969 -0.2131  2.7988
 7829TIP3    H244903   5.403   4.310   6.543  0.6058 -1.5038 -0.3437
 7830TIP3   OH244904   4.873   1.359   5.535 -0.1847  0.5082  1.1452
 7830TIP3    H144905   4.967   1.372   5.528 -0.1653 -0.4863 -1.4301
 7830TIP3    H244906   4.837   1.447   5.548  1.0678  0.8638  2.4787
 7831TIP3   OH244907   1.514   1.218  11.395  0.2788 -0.4491 -0.0789
 7831TIP3    H144908   1.480   1.306  11.381  0.8955  0.0439  1.2745
 7831TIP3    H244909   1.506   1.204  11.490  1.9799 -1.0757  0.0156
 7832TIP3   OH244910   1.051   1.352   3.974  0.6247 -0.3960 -0.1134
 7832TIP3    H144911   0.981   1.291   3.952  2.2752 -2.0011 -1.2273
 7832TIP3    H244912   1.069   1.398   3.892 -0.5663  1.6666  0.6978
 7833TIP3   OH244913   2.496   0.658  16.688 -0.4692  0.0181 -0.4121
 7833TIP3    H144914   2.543   0.610  16.756 -1.1982  1.3451  1.0702
 7833TIP3    H244915   2.564   0.682  16.625  0.4030 -0.3099  0.3780
 7834TIP3   OH244916   4.805   2.027  11.340 -0.3785 -0.2486 -0.1301
 7834TIP3    H144917   4.757   2.106  11.316 -1.2694 -1.0550 -1.1418
 7834TIP3    H244918   4.741   1.975  11.390  1.1903  1.0401  3.5230
 7835TIP3   OH244919   1.294   3.126   4.202  0.0210  0.2069  0.3205
 7835TIP3    H144920   1.338   3.197   4.155  1.4113 -1.0634 -0.3708
 7835TIP3    H244921   1.233   3.089   4.139  1.0883 -0.7821 -0.1643
 7836TIP3   OH244922   0.871   5.465   3.358  0.0296 -0.2520 -0.0364
 7836TIP3    H144923   0.945   5.455   3.298 -0.4241 -0.4377 -0.5769
 7836TIP3    H244924   0.835   5.551   3.336  0.6978  0.2892  0.9316
 7837TIP3   OH244925   1.088   1.091   2.021 -0.0856 -0.3514 -0.0924
 7837TIP3    H144926   1.039   1.165   2.058 -1.1320 -0.7786 -0.5633
 7837TIP3    H244927   1.172   1.092   2.067  0.2288  1.5771 -0.6085
 7838TIP3   OH244928   2.186   5.281  16.434  0.2017  0.3173  0.2266
 7838TIP3    H144929   2.113   5.285  16.495 -0.5589  1.4557 -0.7187
 7838TIP3    H244930   2.236   5.361  16.450 -0.1893  0.7968 -0.8306
 7839TIP3   OH244931   2.713   1.363   3.639 -0.6200  0.1169  0.2134
 7839TIP3    H144932   2.670   1.344   3.555 -1.0769  0.8307  0.2686
 7839TIP3    H244933   2.710   1.459   3.645 -1.0354  0.0523  1.2650
 7840TIP3   OH244934   5.937   5.244   3.679  0.1025  0.1016  0.0932
 7840TIP3    H144935   5.956   5.150   3.672  0.1036 -0.0846  1.9979
 7840TIP3    H244936   5.851   5.248   3.720 -0.3175  0.9556 -0.8349
 7841TIP3   OH244937   4.049   5.089  12.201 -0.0797  0.1931 -0.2185
 7841TIP3    H144938   4.001   5.133  12.270 -2.3891  0.7703 -2.0571
 7841TIP3    H244939   4.122   5.148  12.180 -1.0012  1.3762 -0.1609
 7842TIP3   OH244940   6.089   0.535   3.003  0.8740  0.4287 -0.5677
 7842TIP3    H144941   6.155   0.591   3.042 -0.6681  2.0552 -0.1772
 7842TIP3    H244942   6.030   0.594   2.957  0.2845 -1.0635 -1.8405
 7843TIP3   OH244943   1.754   4.301   2.598 -0.1229  0.1977 -0.4924
 7843TIP3    H144944   1.680   4.353   2.628 -0.3117 -0.9124  1.0914
 7843TIP3    H244945   1.829   4.339   2.644  0.1478  0.6883 -1.3254
 7844TIP3   OH244946   1.741   2.191  16.266  0.2101  0.0146 -0.0170
 7844TIP3    H144947   1.779   2.276  16.288  1.0638 -0.2191 -0.5150
 7844TIP3    H244948   1.646   2.206  16.264  0.2962  0.7255  0.8137
 7845TIP3   OH244949   6.318   2.682   3.624  0.1358 -0.3425 -0.2076
 7845TIP3    H144950   6.280   2.737   3.555  0.3049  0.5472  0.3935
 7845TIP3    H244951   6.411   2.677   3.601 -0.0479 -1.2129 -0.8074
 7846TIP3   OH244952   5.787   0.590  16.314 -0.6251  0.8082  0.5686
 7846TIP3    H144953   5.883   0.596  16.311 -0.5157 -0.3786  1.1634
 7846TIP3    H244954   5.769   0.529  16.385 -1.8239  0.7565  0.2431
 7847TIP3   OH244955   1.334   4.227  11.290 -0.3170  0.0862  0.0550
 7847TIP3    H144956   1.318   4.290  11.220  1.2533  1.5237  0.8994
 7847TIP3    H244957   1.410   4.177  11.260 -1.1181 -0.9638 -0.2910
 7848TIP3   OH244958   1.939   6.563   5.767 -0.1976  0.2445  0.5314
 7848TIP3    H144959   1.999   6.488   5.773 -1.6529 -0.8919  1.3919
 7848TIP3    H244960   1.856   6.531   5.802 -1.4939  1.6243 -1.0907
 7849TIP3   OH244961   3.576   0.451   6.466  0.0040 -0.4211 -1.0590
 7849TIP3    H144962   3.563   0.546   6.469  2.7155  0.0050 -0.7903
 7849TIP3    H244963   3.660   0.436   6.510 -0.5818 -3.0182 -0.6274
 7850TIP3   OH244964   1.718   2.215   0.032 -0.1505  1.0304  0.1242
 7850TIP3    H144965   1.702   2.138   0.087  0.1877  0.1543 -0.9628
 7850TIP3    H244966   1.630   2.245   0.007 -0.3583  2.0108  1.8433
 7851TIP3   OH244967   5.767   1.004  16.066  0.2193 -0.3919 -0.1913
 7851TIP3    H144968   5.715   0.952  16.127 -0.8624  0.5899 -0.2484
 7851TIP3    H244969   5.855   0.968  16.073 -0.5715 -2.5548 -0.5804
 7852TIP3   OH244970   3.655   3.914  14.095 -0.4648 -0.4506  0.2098
 7852TIP3    H144971   3.695   4.001  14.099  0.9729 -1.0187 -0.9586
 7852TIP3    H244972   3.625   3.898  14.185  2.2434 -0.0883  1.3021
 7853TIP3   OH244973   4.961   2.873  12.719 -0.7809  0.4380  0.3748
 7853TIP3    H144974   4.927   2.953  12.678 -0.1422  0.6137  0.1686
 7853TIP3    H244975   4.904   2.803  12.687 -1.2142  0.7804  0.3873
 7854TIP3   OH244976   2.208   0.217   1.936 -0.0190  0.0666 -0.2417
 7854TIP3    H144977   2.235   0.308   1.930 -0.9061  0.4223  0.7782
 7854TIP3    H244978   2.192   0.203   2.029  1.2064 -1.4743 -0.2206
 7855TIP3   OH244979   1.300   2.419  11.922 -0.1692 -0.2491  0.3130
 7855TIP3    H144980   1.386   2.378  11.914 -0.5303 -1.1616  0.9844
 7855TIP3    H244981   1.278   2.446  11.832  0.8294  0.0412  0.1430
 7856TIP3   OH244982   0.262   0.279  15.413 -0.1870 -0.0941 -0.2131
 7856TIP3    H144983   0.244   0.200  15.361  0.1540  0.1379 -0.6907
 7856TIP3    H244984   0.339   0.317  15.372  1.3553 -0.9823  1.6873
 7857TIP3   OH244985   6.436   1.973  12.253 -0.0425 -0.4109 -0.2119
 7857TIP3    H144986   6.412   1.969  12.345  0.5191 -0.1202 -0.0507
 7857TIP3    H244987   6.357   2.003  12.209  0.1850  1.1422  0.3877
 7858TIP3   OH244988   4.918   1.452  15.846 -0.1512  0.3678 -0.3919
 7858TIP3    H144989   4.824   1.465  15.833  0.0847  1.5043 -1.0277
 7858TIP3    H244990   4.932   1.359  15.827 -1.3253 -0.1135  0.8895
 7859TIP3   OH244991   4.225   0.628  17.037  0.2997 -0.1744 -0.3343
 7859TIP3    H144992   4.201   0.709  17.081  2.0506  1.2956 -1.9094
 7859TIP3    H244993   4.233   0.652  16.945  0.1414 -2.3232 -0.9684
 7860TIP3   OH244994   1.166   4.337   2.562  0.0307 -0.1988 -0.2367
 7860TIP3    H144995   1.170   4.250   2.602 -0.3969  0.5327  1.4900
 7860TIP3    H244996   1.076   4.346   2.531 -0.1070 -0.1307  0.1771
 7861TIP3   OH244997   0.312   2.836   4.863  0.0273 -0.3535  0.8405
 7861TIP3    H144998   0.307   2.878   4.777  0.2427 -1.3671  0.3256
 7861TIP3    H244999   0.342   2.906   4.921 -0.5033  0.4475  0.1742
 7862TIP3   OH245000   2.748   5.733   2.760 -0.2208  0.3195 -0.3451
 7862TIP3    H145001   2.821   5.673   2.774  0.3216  1.0471 -0.0041
 7862TIP3    H245002   2.726   5.765   2.848 -0.8776  0.1988 -0.4557
 7863TIP3   OH245003   0.096   0.283   3.096 -0.1120  0.1597 -0.0125
 7863TIP3    H145004   0.163   0.283   3.027 -1.4022 -1.1547 -1.3398
 7863TIP3    H245005   0.094   0.193   3.127 -0.2079  0.5381  1.1440
 7864TIP3   OH245006   0.587   6.027   6.305  0.0889 -0.5554 -0.1555
 7864TIP3    H145007   0.643   5.952   6.283  2.0773  0.6560  0.5372
 7864TIP3    H245008   0.646   6.092   6.343 -1.6565  1.1749 -0.1941
 7865TIP3   OH245009   6.767   2.032  15.029  0.0783 -0.3383 -0.2357
 7865TIP3    H145010   6.765   1.969  15.102  0.4648 -0.7875 -0.6049
 7865TIP3    H245011   6.827   2.100  15.059  1.6233 -1.3893 -0.8024
 7866TIP3   OH245012   6.326   3.776  15.229  0.3654 -0.7542  0.1053
 7866TIP3    H145013   6.251   3.718  15.221  0.3486 -0.6652 -0.4514
 7866TIP3    H245014   6.366   3.775  15.142  0.9587 -0.7343  0.3710
 7867TIP3   OH245015   2.113   5.694   0.111  0.1096  0.0574 -0.1485
 7867TIP3    H145016   2.197   5.658   0.140 -0.7802 -1.0602  1.1503
 7867TIP3    H245017   2.124   5.789   0.120  1.7461  0.0344 -1.5120
 7868TIP3   OH245018   3.384   5.402   3.079  0.3856  0.2469  0.2026
 7868TIP3    H145019   3.461   5.458   3.065  0.3721 -0.0213 -1.0057
 7868TIP3    H245020   3.332   5.412   3.000  0.9518 -2.3729 -0.6122
 7869TIP3   OH245021   1.322   6.610   1.553 -0.9179 -0.0085 -0.7576
 7869TIP3    H145022   1.231   6.584   1.538 -1.3783  0.2134  1.3365
 7869TIP3    H245023   1.369   6.527   1.564 -1.3218 -0.0929  0.4270
 7870TIP3   OH245024   1.416   1.325   3.730  0.4192  0.2964 -0.0022
 7870TIP3    H145025   1.488   1.348   3.672  0.0669  1.6774  0.0506
 7870TIP3    H245026   1.406   1.230   3.721  1.7390  0.1917 -0.5690
 7871TIP3   OH245027   2.871   2.678  15.494  0.0762 -0.0719 -0.1027
 7871TIP3    H145028   2.813   2.630  15.552  1.1509 -1.3514 -0.0221
 7871TIP3    H245029   2.848   2.770  15.506 -1.0900 -0.4662  0.8035
 7872TIP3   OH245030   6.027   1.322  16.524  0.2334  0.5372  0.0778
 7872TIP3    H145031   6.012   1.337  16.618 -0.2252  0.4485  0.0185
 7872TIP3    H245032   6.012   1.229  16.512 -1.9473  0.9162 -0.4892
 7873TIP3   OH245033   3.115   6.107  17.226  0.4389 -0.7637 -0.0191
 7873TIP3    H145034   3.081   6.061  17.304 -0.5585 -0.4923 -0.2728
 7873TIP3    H245035   3.043   6.101  17.163  0.3065  1.0864 -0.0825
 7874TIP3   OH245036   4.493   2.218   5.344 -0.5524 -0.0174 -0.4043
 7874TIP3    H145037   4.403   2.188   5.331 -0.4318  0.1484 -1.7831
 7874TIP3    H245038   4.486   2.314   5.345 -0.8760  0.0450  3.4989
 7875TIP3   OH245039   3.951   3.915   3.627 -0.4136 -0.8264 -0.2683
 7875TIP3    H145040   3.907   3.989   3.670  0.9567  0.0869 -0.3514
 7875TIP3    H245041   3.995   3.869   3.699 -0.2153 -0.7900 -0.3633
 7876TIP3   OH245042   0.253   1.265   0.496 -0.6683 -0.1014 -0.1001
 7876TIP3    H145043   0.257   1.214   0.577  1.6767  1.4098  0.8507
 7876TIP3    H245044   0.233   1.201   0.428  2.2037 -2.4308  1.0136
 7877TIP3   OH245045   0.156   6.577  16.091  0.0500 -0.2329  0.3099
 7877TIP3    H145046   0.179   6.580  15.998  0.8212  0.4013  0.5081
 7877TIP3    H245047   0.063   6.553  16.092 -0.3708  1.1887 -0.6951
 7878TIP3   OH245048   3.888   6.633  14.672  0.0332 -0.2634 -0.0206
 7878TIP3    H145049   3.874   6.560  14.732  1.3938  0.3384  1.0998
 7878TIP3    H245050   3.975   6.666  14.695 -0.2097  1.1925 -1.0513
 7879TIP3   OH245051   3.362   2.229  12.314 -0.2121  0.1869 -0.1279
 7879TIP3    H145052   3.414   2.155  12.345  0.6452  0.7028 -0.2885
 7879TIP3    H245053   3.342   2.207  12.222  1.6591  0.9722 -0.7793
 7880TIP3   OH245054   1.402   4.334  16.357 -0.3891  0.0174 -0.1213
 7880TIP3    H145055   1.444   4.366  16.277 -1.1468 -0.0272 -0.5516
 7880TIP3    H245056   1.414   4.240  16.355 -1.3734 -0.1055 -0.7679
 7881TIP3   OH245057   2.590   2.544   1.232  0.2650 -0.3612  0.1679
 7881TIP3    H145058   2.680   2.514   1.222 -0.2296 -1.9812  0.1912
 7881TIP3    H245059   2.537   2.475   1.191 -0.9381  0.9065 -0.4956
 7882TIP3   OH245060   3.904   0.293   4.943  0.1111  0.0074 -0.4746
 7882TIP3    H145061   3.815   0.286   4.978  0.3131 -0.2217 -0.0013
 7882TIP3    H245062   3.930   0.383   4.961  0.2436 -0.1313  0.0377
 7883TIP3   OH245063   1.355   4.771   1.128  0.4843  0.2028  0.0985
 7883TIP3    H145064   1.324   4.782   1.218  0.3466  0.5209  0.0157
 7883TIP3    H245065   1.285   4.725   1.084  0.1200  0.9141 -0.0862
 7884TIP3   OH245066   0.016   2.718  10.924 -0.6034 -0.7593 -0.0572
 7884TIP3    H145067   0.046   2.764  11.002  0.3767  0.1339 -0.9306
 7884TIP3    H245068  -0.047   2.654  10.956 -0.8950  0.2051  1.3602
 7885TIP3   OH245069   3.912   3.474   0.941 -0.1840 -0.2526 -0.3301
 7885TIP3    H145070   3.856   3.469   1.018  0.9792 -0.5323  0.5293
 7885TIP3    H245071   3.852   3.466   0.867 -1.5174  1.4448  0.4811
 7886TIP3   OH245072   0.740   2.020  11.467  0.3046  0.4789 -0.1776
 7886TIP3    H145073   0.735   2.082  11.541 -1.4378  0.7649 -0.4942
 7886TIP3    H245074   0.755   2.076  11.391  2.4779  0.1556 -0.0678
 7887TIP3   OH245075   3.859   1.479  16.293  0.0670  0.5879 -0.3202
 7887TIP3    H145076   3.945   1.488  16.334  0.1961 -0.1259 -0.4266
 7887TIP3    H245077   3.829   1.392  16.318 -0.4221  0.6528 -0.6685
 7888TIP3   OH245078   1.930   5.460  13.724  0.8250 -0.0234 -0.3842
 7888TIP3    H145079   1.903   5.525  13.659  1.6045  0.7045 -0.0094
 7888TIP3    H245080   2.024   5.476  13.736  0.8755 -0.7392  0.2640
 7889TIP3   OH245081   0.049   0.395  16.824  0.2568  0.3270 -0.2967
 7889TIP3    H145082   0.062   0.374  16.731  0.5405  0.0654 -0.1976
 7889TIP3    H245083   0.032   0.489  16.825  1.4299  0.5511 -0.4987
 7890TIP3   OH245084   0.381   4.046  11.058 -0.2250  0.0946  0.7155
 7890TIP3    H145085   0.388   4.054  10.963  1.8136 -1.9574  0.6030
 7890TIP3    H245086   0.469   4.065  11.091 -0.8331  0.5368  2.1810
 7891TIP3   OH245087   0.278   6.321   0.656  0.0932 -0.3355 -0.2638
 7891TIP3    H145088   0.185   6.345   0.660 -0.4235 -2.0002 -1.0928
 7891TIP3    H245089   0.315   6.382   0.593 -0.1597  1.0795  0.9104
 7892TIP3   OH245090   2.487   5.775  15.827 -0.0220  0.1373 -0.8346
 7892TIP3    H145091   2.510   5.732  15.745  0.5053  1.9831 -1.6997
 7892TIP3    H245092   2.530   5.861  15.823 -0.9182  0.7262  0.8629
 7893TIP3   OH245093   1.615   0.316  10.902 -0.0844 -0.4329  0.1845
 7893TIP3    H145094   1.682   0.257  10.868  0.7194 -0.0010  0.9350
 7893TIP3    H245095   1.611   0.388  10.838  2.2529  0.9685  1.4411
 7894TIP3   OH245096   1.542   2.132   2.684 -0.6834 -0.2740 -0.2584
 7894TIP3    H145097   1.592   2.057   2.654  1.1262  0.8695 -0.2489
 7894TIP3    H245098   1.468   2.138   2.623 -0.0251 -1.1483 -1.1718
 7895TIP3   OH245099   2.536   2.079  13.035 -0.0317  0.7324 -0.2916
 7895TIP3    H145100   2.580   2.000  13.004  0.8187  1.3221 -0.6248
 7895TIP3    H245101   2.607   2.142  13.049 -0.7996  1.9241 -1.4945
 7896TIP3   OH245102   6.173   1.791  15.093  0.3012  0.3869 -0.3455
 7896TIP3    H145103   6.170   1.819  15.001  1.8414  0.5583 -0.3628
 7896TIP3    H245104   6.253   1.829  15.127  0.0542 -0.1790  0.9242
 7897TIP3   OH245105   3.080   4.538   5.597 -0.2139 -0.0532  0.5379
 7897TIP3    H145106   3.058   4.478   5.668  0.8026  0.4074  1.2554
 7897TIP3    H245107   3.021   4.612   5.609 -0.9723 -0.5722  0.0834
 7898TIP3   OH245108   6.756   4.474  16.040 -0.0575 -0.2986  0.3244
 7898TIP3    H145109   6.815   4.546  16.022 -0.6890  0.3850  0.9267
 7898TIP3    H245110   6.809   4.410  16.087  0.0694  0.5611  1.3852
 7899TIP3   OH245111   1.758   5.381   5.762  0.6343  0.3017 -0.3378
 7899TIP3    H145112   1.766   5.471   5.792 -0.7811  0.5545 -0.6981
 7899TIP3    H245113   1.678   5.348   5.804  1.3111 -0.9062  0.0716
 7900TIP3   OH245114   6.752   0.603  15.278  0.2039  0.0144  0.4148
 7900TIP3    H145115   6.769   0.674  15.216 -0.0847 -0.2353  0.0416
 7900TIP3    H245116   6.667   0.625  15.316  0.7714  0.6135  1.3604
 7901TIP3   OH245117   1.698   3.898  14.960 -0.1530 -0.0419  0.3733
 7901TIP3    H145118   1.652   3.820  14.990 -1.1716  0.6719  0.7118
 7901TIP3    H245119   1.668   3.911  14.870 -0.4039  0.2651  0.4997
 7902TIP3   OH245120   4.206   6.418  13.036  0.0715  0.6647  0.0294
 7902TIP3    H145121   4.117   6.435  13.006  0.0498  0.1410 -0.2025
 7902TIP3    H245122   4.214   6.323  13.036  0.3690  0.6840  0.8131
 7903TIP3   OH245123   6.612   0.827   5.149  0.6454 -0.0533  0.2699
 7903TIP3    H145124   6.656   0.749   5.183  2.2696  0.1172 -1.2821
 7903TIP3    H245125   6.540   0.792   5.096 -0.6269 -0.3619  2.1138
 7904TIP3   OH245126   5.541   1.253   2.137 -0.4296 -0.1863 -0.1398
 7904TIP3    H145127   5.548   1.160   2.157  0.3326  0.1878  1.6050
 7904TIP3    H245128   5.449   1.274   2.154 -0.4950 -0.5327 -0.0553
 7905TIP3   OH245129   1.500   2.676   5.854 -0.1630 -0.0679 -0.1866
 7905TIP3    H145130   1.467   2.595   5.815  1.7951 -0.9320 -0.1226
 7905TIP3    H245131   1.549   2.648   5.931  1.1026  1.1195 -0.5302
 7906TIP3   OH245132   3.701   0.246   0.109  0.0304 -0.0863 -0.3674
 7906TIP3    H145133   3.739   0.308   0.171  0.5640  0.3723 -1.1335
 7906TIP3    H245134   3.651   0.186   0.163 -0.6379  1.1114  0.3842
 7907TIP3   OH245135   3.688   1.275  12.582 -0.2694 -0.2548 -0.3695
 7907TIP3    H145136   3.660   1.199  12.632  0.5219  0.0784  0.6159
 7907TIP3    H245137   3.784   1.274  12.588 -0.2428  2.4015  2.1965
 7908TIP3   OH245138   6.751   3.307  15.954  0.4252 -0.4581  0.2424
 7908TIP3    H145139   6.727   3.225  15.999  1.4864 -0.5924  0.5878
 7908TIP3    H245140   6.682   3.369  15.979  0.6345 -0.7212  1.5367
 7909TIP3   OH245141   2.245   6.662  15.954  0.1956  0.2768  0.0804
 7909TIP3    H145142   2.197   6.579  15.948 -1.0799  1.0666 -0.9917
 7909TIP3    H245143   2.178   6.729  15.942  1.3898  1.4454 -0.2090
 7910TIP3   OH245144   2.113   0.383   5.008  0.1390  0.1299  0.3907
 7910TIP3    H145145   2.074   0.328   4.940 -0.8649 -0.5778  1.4904
 7910TIP3    H245146   2.066   0.359   5.088  0.5526  1.6927  1.1481
 7911TIP3   OH245147   1.689   6.596  11.202  0.3157  0.4710 -0.3811
 7911TIP3    H145148   1.724   6.604  11.290 -0.1754 -0.1492 -0.1208
 7911TIP3    H245149   1.762   6.565  11.149  0.3656 -0.0813  0.0063
 7912TIP3   OH245150   6.467   6.162  16.314 -0.4544 -0.2007 -0.2480
 7912TIP3    H145151   6.502   6.201  16.394 -0.7820  2.1907 -1.1676
 7912TIP3    H245152   6.533   6.184  16.247 -0.0039 -2.4626 -0.6287
 7913TIP3   OH245153   0.844   4.869   4.434  0.1438 -0.2996  0.0539
 7913TIP3    H145154   0.843   4.963   4.447  2.1888 -0.2841  0.5686
 7913TIP3    H245155   0.924   4.853   4.383 -0.7770 -1.6509 -1.0385
 7914TIP3   OH245156   5.157   3.538  13.283 -0.3471 -0.5254  0.8927
 7914TIP3    H145157   5.142   3.470  13.218  0.4913 -0.2333  0.3846
 7914TIP3    H245158   5.188   3.491  13.360 -1.9018 -0.9347  1.3073
 7915TIP3   OH245159   5.760   2.127   0.296  0.6353 -0.2678  0.2521
 7915TIP3    H145160   5.783   2.039   0.266  2.3773  0.0180  0.6390
 7915TIP3    H245161   5.843   2.175   0.295 -0.3404  1.4931 -0.3201
 7916TIP3   OH245162   1.496   6.180   4.690  0.7680  0.3757 -0.0845
 7916TIP3    H145163   1.408   6.180   4.650  0.8663 -0.0696 -0.3104
 7916TIP3    H245164   1.480   6.193   4.783  0.3370 -1.2771  0.1026
 7917TIP3   OH245165   2.091   3.727  14.613 -0.0319 -0.6472  0.3520
 7917TIP3    H145166   2.106   3.638  14.644  0.6893 -0.3427  0.9083
 7917TIP3    H245167   2.037   3.767  14.680 -1.7219 -1.1274 -0.6688
 7918TIP3   OH245168   1.103   1.895  16.302 -0.2110  0.1606  0.4873
 7918TIP3    H145169   1.035   1.925  16.362 -0.6428 -0.7031  0.4406
 7918TIP3    H245170   1.125   1.972  16.251  2.2068  1.7682  3.5927
 7919TIP3   OH245171   1.734   0.582   1.978  0.0417 -0.4777 -0.1253
 7919TIP3    H145172   1.725   0.496   2.019 -1.2635 -0.1238  0.3586
 7919TIP3    H245173   1.822   0.611   2.002  0.0405 -1.1614  0.7163
 7920TIP3   OH245174   3.931   5.213  11.457  0.7185 -0.4108 -0.2839
 7920TIP3    H145175   3.981   5.222  11.538  0.2901  0.2984 -0.0875
 7920TIP3    H245176   3.988   5.163  11.399  1.4607 -0.0319  0.1023
 7921TIP3   OH245177   0.454   3.457  12.402 -0.3062 -0.7069 -0.4891
 7921TIP3    H145178   0.527   3.412  12.444  0.2064  2.2256  2.2110
 7921TIP3    H245179   0.380   3.396  12.412  0.8823 -2.0835  0.3929
 7922TIP3   OH245180   6.119   5.554  16.325 -0.1462  0.0519  0.1227
 7922TIP3    H145181   6.204   5.591  16.345  0.4843 -1.5526  0.5611
 7922TIP3    H245182   6.077   5.541  16.410  0.6615 -2.4475  0.2312
 7923TIP3   OH245183   1.873   3.841  13.182  1.0651  0.5368 -0.3207
 7923TIP3    H145184   1.963   3.852  13.154  1.8131 -2.1183  0.7166
 7923TIP3    H245185   1.879   3.789  13.262 -1.3698  0.9248  0.2026
 7924TIP3   OH245186   0.913   6.261  15.113 -0.0366 -0.0826 -0.2844
 7924TIP3    H145187   0.958   6.180  15.132 -0.0538 -0.1168 -0.3868
 7924TIP3    H245188   0.820   6.241  15.128 -0.0594 -0.1371 -0.4937
 7925TIP3   OH245189   5.426   3.044  14.273  0.1570 -0.1591  0.1906
 7925TIP3    H145190   5.420   3.072  14.181  1.3312  1.0474  0.4508
 7925TIP3    H245191   5.335   3.034  14.300 -0.2119 -0.9686 -1.2271
 7926TIP3   OH245192   4.878   2.409  16.812 -0.2172 -0.2585 -0.0718
 7926TIP3    H145193   4.907   2.500  16.800 -1.0168  0.0590  0.3492
 7926TIP3    H245194   4.830   2.389  16.732 -2.1843  0.5458  0.8520
 7927TIP3   OH245195   1.566   2.604  11.371 -0.1931 -0.1704 -0.2013
 7927TIP3    H145196   1.642   2.659  11.390  0.2503 -0.8988  0.1735
 7927TIP3    H245197   1.583   2.568  11.284 -0.4455  0.2091 -0.4128
 7928TIP3   OH245198   5.264   4.296  15.535  0.1336 -0.6944 -0.2023
 7928TIP3    H145199   5.221   4.349  15.603  1.5444  0.6891 -0.3105
 7928TIP3    H245200   5.193   4.261  15.482 -0.9263 -0.3603  0.9518
 7929TIP3   OH245201   4.098   4.972   2.071 -0.1944  0.1167  0.0378
 7929TIP3    H145202   4.083   5.044   2.010  0.7379  1.1875  1.0280
 7929TIP3    H245203   4.183   4.936   2.044 -0.3652 -0.2042 -0.0673
 7930TIP3   OH245204   3.838   1.109  11.801  0.0901  0.0391 -0.1113
 7930TIP3    H145205   3.848   1.068  11.716 -1.1118 -0.7105  0.0874
 7930TIP3    H245206   3.776   1.053  11.848 -1.6960  2.1082  0.1394
 7931TIP3   OH245207   3.030   0.125   3.712 -0.7982  0.4401 -0.3918
 7931TIP3    H145208   3.072   0.137   3.627 -1.2049 -0.2657 -0.7051
 7931TIP3    H245209   3.039   0.209   3.755 -0.0315  0.6216 -0.8843
 7932TIP3   OH245210   3.407   1.345   5.950 -0.3793  0.3971  0.7551
 7932TIP3    H145211   3.389   1.258   5.914 -0.4298 -0.2275  2.2351
 7932TIP3    H245212   3.388   1.405   5.877 -1.5618 -0.7321  0.0835
 7933TIP3   OH245213   6.309   3.753  11.375 -0.5771 -0.1046  0.0922
 7933TIP3    H145214   6.255   3.770  11.298  0.4615  1.0827 -0.4209
 7933TIP3    H245215   6.305   3.659  11.387  0.9289 -0.6458 -2.7575
 7934TIP3   OH245216   5.842   1.635   3.970 -0.1721 -0.9313 -0.2793
 7934TIP3    H145217   5.878   1.724   3.970 -1.0986 -0.5361 -0.9478
 7934TIP3    H245218   5.917   1.579   3.990  0.8023 -0.1307 -1.4791
 7935TIP3   OH245219   3.038   2.772  15.977  0.6710 -0.4386  0.2233
 7935TIP3    H145220   3.057   2.750  16.068  2.6792  0.4970  0.0660
 7935TIP3    H245221   2.954   2.818  15.981  0.1680 -1.4041  1.4396
 7936TIP3   OH245222   4.992   1.096  16.741  0.0823  0.0612  0.2109
 7936TIP3    H145223   5.049   1.146  16.799 -2.8272  0.2421  3.2096
 7936TIP3    H245224   4.923   1.157  16.715 -2.2361 -1.5860  2.0138
 7937TIP3   OH245225   6.049   6.375  15.186 -0.3228  0.4881  0.0859
 7937TIP3    H145226   6.128   6.329  15.217 -0.1609  0.6556 -0.0732
 7937TIP3    H245227   6.003   6.310  15.133 -0.2357  0.4237  0.0890
 7938TIP3   OH245228   3.647   2.121  17.078 -0.6286  0.0393 -0.3666
 7938TIP3    H145229   3.637   2.077  16.993  0.6455  0.9552 -1.0070
 7938TIP3    H245230   3.672   2.210  17.057 -1.6775  0.6970  0.9651
 7939TIP3   OH245231   6.250   5.870  14.758 -0.0527 -0.2042 -0.1955
 7939TIP3    H145232   6.272   5.912  14.676  0.3249  0.3581  0.1862
 7939TIP3    H245233   6.179   5.924  14.795 -0.7475 -0.8834 -0.4977
 7940TIP3   OH245234   6.426   3.676   3.129  0.3681 -0.5673  0.4755
 7940TIP3    H145235   6.402   3.748   3.186 -2.9861 -2.0947  1.2321
 7940TIP3    H245236   6.436   3.601   3.188 -1.0469 -1.7225 -0.6910
 7941TIP3   OH245237   3.027   1.762   1.862  0.0940 -0.1002 -0.0119
 7941TIP3    H145238   3.006   1.854   1.849 -0.0553 -0.0621  0.4538
 7941TIP3    H245239   2.941   1.719   1.869  0.1402 -0.0491  1.2065
 7942TIP3   OH245240   2.572   5.038   4.148  0.2359 -0.1661  0.2684
 7942TIP3    H145241   2.632   4.964   4.133 -0.7002 -0.9491  0.2823
 7942TIP3    H245242   2.630   5.112   4.165  1.2061 -0.8715  0.1587
 7943TIP3   OH245243   5.100   1.736  17.051 -0.4707  0.1373  0.2869
 7943TIP3    H145244   5.142   1.788  16.982  0.6836 -1.0912  0.0433
 7943TIP3    H245245   5.081   1.799  17.120  0.9547  0.8874  0.0229
 7944TIP3   OH245246   1.181   5.678   5.710  0.5094  0.0816 -0.1765
 7944TIP3    H145247   1.247   5.612   5.688  0.0050  0.0118 -1.5618
 7944TIP3    H245248   1.222   5.761   5.687 -0.4049 -0.0556 -2.5549
 7945TIP3   OH245249   0.946   4.397  14.297 -0.2928  0.4605 -0.1126
 7945TIP3    H145250   0.998   4.343  14.237 -0.5752  1.2018 -1.0434
 7945TIP3    H245251   1.010   4.431  14.360  0.1381  0.2786 -0.4467
 7946TIP3   OH245252   3.173   6.055   4.306  0.0752  0.3121  0.0707
 7946TIP3    H145253   3.136   6.043   4.394  0.8521 -1.3593  0.2113
 7946TIP3    H245254   3.104   6.098   4.256 -1.1365 -0.5250  0.9732
 7947TIP3   OH245255   3.860   4.868   2.693 -0.4560  0.2506  0.0825
 7947TIP3    H145256   3.766   4.848   2.693 -0.5543  0.7113 -0.0437
 7947TIP3    H245257   3.901   4.787   2.724 -0.9198  0.1621  0.4868
 7948TIP3   OH245258   1.276   4.888  16.067  0.7181 -0.3324 -0.3545
 7948TIP3    H145259   1.265   4.874  15.973  2.2423  0.5498 -0.6945
 7948TIP3    H245260   1.341   4.958  16.073 -0.3099  0.5307  1.3488
 7949TIP3   OH245261   2.002   5.306  11.511 -0.7595  0.3901  0.7026
 7949TIP3    H145262   1.970   5.358  11.584 -0.7465  3.3921 -1.2547
 7949TIP3    H245263   1.929   5.302  11.450  0.0395  0.2729 -0.2752
 7950TIP3   OH245264   4.698   3.743   3.511 -0.2192  0.1540  0.0723
 7950TIP3    H145265   4.671   3.824   3.555 -0.8978  0.5820 -1.0814
 7950TIP3    H245266   4.780   3.766   3.466  1.1748 -0.6324  2.0613
 7951TIP3   OH245267   0.044   2.029  14.525 -0.1722 -0.2412  0.8370
 7951TIP3    H145268   0.098   1.993  14.596 -2.3061 -0.8846  2.2368
 7951TIP3    H245269   0.043   1.960  14.459  2.9767  0.9029 -0.5890
 7952TIP3   OH245270   1.734   6.789  15.709 -0.5477  0.4481  0.2444
 7952TIP3    H145271   1.823   6.775  15.676 -1.0847  0.6917 -1.4025
 7952TIP3    H245272   1.678   6.757  15.639 -1.7701  0.2505  1.2919
 7953TIP3   OH245273   6.791   1.126  11.598 -0.1135 -0.5007  0.0115
 7953TIP3    H145274   6.772   1.214  11.633  0.0656  0.0718 -1.2778
 7953TIP3    H245275   6.830   1.079  11.672  0.2973  0.6828  0.5752
 7954TIP3   OH245276   5.751   4.648   5.982  0.3529  0.4177 -0.0791
 7954TIP3    H145277   5.798   4.566   5.969 -0.6658 -0.1212 -0.4784
 7954TIP3    H245278   5.708   4.637   6.067  2.1353  1.5243  1.0381
 7955TIP3   OH245279   2.196   2.482   3.694 -0.1633  0.0168  0.3003
 7955TIP3    H145280   2.197   2.398   3.740  0.0056  0.6303  1.4399
 7955TIP3    H245281   2.116   2.525   3.724 -0.6191 -0.0161 -0.8236
 7956TIP3   OH245282   6.535   0.093  10.307  0.3355  0.4443  0.1718
 7956TIP3    H145283   6.515   0.120  10.396 -1.2798  2.7127 -0.7582
 7956TIP3    H245284   6.584   0.011  10.316 -1.6557 -0.5756  3.0311
 7957TIP3   OH245285   2.163   4.048  11.437  0.1034  0.2886 -0.1342
 7957TIP3    H145286   2.093   3.984  11.423 -0.1036  0.3397  0.6035
 7957TIP3    H245287   2.244   4.001  11.416 -0.1589  0.3001 -1.2297
 7958TIP3   OH245288   4.418   6.399  11.157 -0.3733  0.2634  0.0783
 7958TIP3    H145289   4.365   6.325  11.129  0.4251 -0.3554  0.1773
 7958TIP3    H245290   4.410   6.400  11.253 -0.7028  0.5598  0.0526
 7959TIP3   OH245291   2.003   5.294   3.688 -0.1575 -0.1332  0.4468
 7959TIP3    H145292   2.005   5.232   3.615  0.4275 -1.1538  1.3075
 7959TIP3    H245293   2.060   5.255   3.754 -0.0262  1.1783  1.1372
 7960TIP3   OH245294   6.472   3.273   0.460  0.4698  0.2588  0.0968
 7960TIP3    H145295   6.431   3.321   0.388  0.9358  1.5185  0.6254
 7960TIP3    H245296   6.544   3.225   0.419  0.0001  0.0203 -0.4529
 7961TIP3   OH245297   3.967   0.017  17.041  0.1473 -0.0715 -0.1536
 7961TIP3    H145298   3.886   0.059  17.013  0.4138 -0.4263 -1.5405
 7961TIP3    H245299   3.958   0.008  17.136 -0.3520  2.1791  0.0706
 7962TIP3   OH245300   4.098   3.317  15.005  0.3537  0.4252 -0.1055
 7962TIP3    H145301   4.062   3.406  15.008 -1.0735  0.0252 -2.5786
 7962TIP3    H245302   4.191   3.329  14.985  0.0042  1.3616 -1.2622
 7963TIP3   OH245303   4.471   1.495   5.867  0.2055  0.1195  0.0438
 7963TIP3    H145304   4.453   1.554   5.794  0.2982 -0.2935 -0.3153
 7963TIP3    H245305   4.464   1.407   5.830  0.0362 -0.0992  0.5837
 7964TIP3   OH245306   2.152   1.254  14.142  0.2888 -0.4659 -0.2430
 7964TIP3    H145307   2.221   1.190  14.156  1.3438  0.2134 -2.0276
 7964TIP3    H245308   2.137   1.292  14.229  1.5521 -1.2168  0.3317
 7965TIP3   OH245309   2.294   2.581  15.344  0.5519  0.5795  0.0169
 7965TIP3    H145310   2.276   2.515  15.277  1.0073 -0.6462  1.0514
 7965TIP3    H245311   2.214   2.583  15.397 -0.4875  2.8006 -1.5140
 7966TIP3   OH245312   0.829   6.536  10.612 -0.0365  0.1634  0.1665
 7966TIP3    H145313   0.757   6.516  10.671 -0.4884  1.8411  0.2402
 7966TIP3    H245314   0.881   6.602  10.658  1.2327 -0.5895 -0.1339
 7967TIP3   OH245315   5.449   4.465  15.404  1.1298  0.1176  0.2372
 7967TIP3    H145316   5.387   4.400  15.435  0.5006  0.6489  0.1218
 7967TIP3    H245317   5.423   4.546  15.449  1.1967  0.5404 -0.4683
 7968TIP3   OH245318   5.028   6.504  15.667  0.5763  0.0682 -0.1036
 7968TIP3    H145319   5.109   6.503  15.616  0.0606 -0.8607 -0.9393
 7968TIP3    H245320   5.031   6.423  15.718  1.3665  1.2529  1.8761
 7969TIP3   OH245321   2.990   1.812  13.974 -0.1517  0.6857 -0.1287
 7969TIP3    H145322   2.999   1.881  14.039  0.4613 -0.8748  1.5478
 7969TIP3    H245323   3.079   1.782  13.958 -0.5138 -0.7819  0.4281
 7970TIP3   OH245324   1.083   0.251  16.676  0.1708 -0.2450  0.3037
 7970TIP3    H145325   1.103   0.185  16.742 -0.8103  0.7050  1.6018
 7970TIP3    H245326   0.988   0.262  16.679  0.3578  1.6180  0.5426
 7971TIP3   OH245327   2.018   4.421  10.857 -0.1262 -0.0096  0.1839
 7971TIP3    H145328   2.068   4.499  10.834  0.6274 -1.0067 -1.8352
 7971TIP3    H245329   1.929   4.440  10.827 -0.6468  1.0824  2.2051
 7972TIP3   OH245330   2.457   1.120  13.949  0.2308 -0.2110  0.3919
 7972TIP3    H145331   2.524   1.188  13.951 -0.3401  0.3476  0.5374
 7972TIP3    H245332   2.429   1.111  14.040 -1.3268  0.9985  0.0729
 7973TIP3   OH245333   5.913   6.041  16.483 -0.4786  0.3250  0.5242
 7973TIP3    H145334   5.930   6.117  16.538 -1.2048  0.7469  0.1724
 7973TIP3    H245335   5.998   6.021  16.444 -0.4131  1.4087  0.0579
 7974TIP3   OH245336   6.567   6.102   3.516 -0.3763 -0.4422  0.2410
 7974TIP3    H145337   6.490   6.158   3.504 -0.7851 -1.1430 -0.4748
 7974TIP3    H245338   6.629   6.157   3.564 -0.4919  0.8842 -1.0463
 7975TIP3   OH245339   6.711   2.107   0.453 -0.3177 -0.2440 -0.4081
 7975TIP3    H145340   6.718   2.201   0.473  0.3943 -0.4589  0.4074
 7975TIP3    H245341   6.801   2.075   0.459 -0.7512 -1.2838  0.8303
 7976TIP3   OH245342   6.185   6.683  13.696  0.1477 -0.2643  0.6704
 7976TIP3    H145343   6.137   6.600  13.703  1.1504 -1.1967 -2.0183
 7976TIP3    H245344   6.277   6.656  13.684  0.5667  1.2540  0.2551
 7977TIP3   OH245345   3.969   3.125  11.880 -0.1122  0.3700 -0.4018
 7977TIP3    H145346   4.056   3.087  11.871  0.1927  1.2915 -1.6293
 7977TIP3    H245347   3.923   3.066  11.941  0.9769 -0.7934 -0.6589
 7978TIP3   OH245348   3.563   2.414  13.653 -0.1740 -0.2296 -0.2407
 7978TIP3    H145349   3.598   2.366  13.578  0.1382 -0.6324  0.1582
 7978TIP3    H245350   3.468   2.403  13.646 -0.0496 -2.4170  0.8194
 7979TIP3   OH245351   1.408   1.040   6.499 -0.1761 -0.1249  0.1131
 7979TIP3    H145352   1.331   1.046   6.555 -1.3225  0.4100 -1.4628
 7979TIP3    H245353   1.373   1.030   6.411  1.5771 -1.0628 -0.5278
 7980TIP3   OH245354   3.403   3.549  14.466  0.4519 -0.1354  0.2309
 7980TIP3    H145355   3.381   3.584  14.380 -1.2256  0.5449  0.8895
 7980TIP3    H245356   3.408   3.454  14.453 -0.8582 -0.1397 -0.4201
 7981TIP3   OH245357   3.794   0.160   2.949 -0.0948 -0.2465  0.2048
 7981TIP3    H145358   3.766   0.242   2.989 -1.0869 -0.6904  0.4492
 7981TIP3    H245359   3.789   0.176   2.854  0.2117  0.1319  0.2516
 7982TIP3   OH245360   4.550   3.564   4.694 -0.4837  0.2078  0.2942
 7982TIP3    H145361   4.587   3.651   4.685  0.3704 -0.1796 -0.0169
 7982TIP3    H245362   4.597   3.525   4.768 -0.2443 -0.2959 -0.1152
 7983TIP3   OH245363   1.436   5.605  16.222  0.2115  0.4891 -0.2458
 7983TIP3    H145364   1.492   5.534  16.192  0.0700  0.2346  0.0949
 7983TIP3    H245365   1.348   5.580  16.194  0.1477  0.4821 -0.0374
 7984TIP3   OH245366   4.110   1.872   5.389  0.1056  0.2248 -0.0125
 7984TIP3    H145367   4.193   1.855   5.346 -0.6123 -1.3406 -0.8728
 7984TIP3    H245368   4.090   1.964   5.368 -0.7425 -0.6896 -4.1353
 7985TIP3   OH245369   4.539   4.342   3.659 -0.1060  0.0655 -0.9150
 7985TIP3    H145370   4.455   4.298   3.675  0.9261 -1.4664  0.6425
 7985TIP3    H245371   4.515   4.430   3.629 -2.2582 -0.2494 -0.2712
 7986TIP3   OH245372   5.846   3.984  12.061  0.1194 -0.6441 -0.2324
 7986TIP3    H145373   5.847   3.969  11.966 -1.4712 -0.0127 -0.3807
 7986TIP3    H245374   5.891   4.068  12.072  1.3471 -1.2737 -0.2859
 7987TIP3   OH245375   6.338   0.316  11.354 -0.7408  0.3033 -0.4966
 7987TIP3    H145376   6.430   0.333  11.333 -0.6399 -1.3899 -1.6216
 7987TIP3    H245377   6.292   0.394  11.323  0.1644  0.5615 -1.2504
 7988TIP3   OH245378   6.492   4.427   0.876  0.7295  0.1478 -0.2139
 7988TIP3    H145379   6.480   4.492   0.807 -2.2991 -0.4351 -0.3755
 7988TIP3    H245380   6.468   4.474   0.956  1.5648  0.0454  0.1125
 7989TIP3   OH245381   5.965   5.407  16.630 -0.5838 -0.0702 -0.1721
 7989TIP3    H145382   6.039   5.371  16.581 -0.8161  1.0169 -1.3876
 7989TIP3    H245383   5.979   5.501  16.629 -1.4386  0.0796  0.5052
 7990TIP3   OH245384   4.562   0.509  14.328 -0.0701 -0.1630  0.2374
 7990TIP3    H145385   4.542   0.531  14.237  0.2654 -0.4835  0.0813
 7990TIP3    H245386   4.509   0.430  14.345  0.4266 -0.5337  0.0832
 7991TIP3   OH245387   1.260   5.868   2.853  0.1455  0.4696  0.1580
 7991TIP3    H145388   1.352   5.844   2.843 -0.2118 -1.1520  0.5777
 7991TIP3    H245389   1.212   5.786   2.842 -1.1393  0.9828  1.5921
 7992TIP3   OH245390   0.797   1.886  16.361  0.1363  0.5072 -0.0180
 7992TIP3    H145391   0.781   1.796  16.388 -0.2735  0.5502 -0.1128
 7992TIP3    H245392   0.826   1.880  16.271 -0.0601  0.4807 -0.0806
 7993TIP3   OH245393   4.229   2.144   5.313  0.8352  0.0672  0.3898
 7993TIP3    H145394   4.249   2.134   5.220  0.3664  0.0528  0.2871
 7993TIP3    H245395   4.133   2.145   5.317  0.7394 -2.7607  1.1468
 7994TIP3   OH245396   1.866   0.681   5.124  0.1817 -0.4276 -0.0410
 7994TIP3    H145397   1.877   0.624   5.200  0.2479 -2.3557 -1.4133
 7994TIP3    H245398   1.953   0.683   5.084  0.6118  2.0803  0.8839
 7995TIP3   OH245399   3.798   1.232   0.185 -0.8271  0.3065  0.9520
 7995TIP3    H145400   3.811   1.323   0.161  0.7097 -0.4006 -1.1201
 7995TIP3    H245401   3.838   1.224   0.272 -1.0468  1.5743  1.1936
 7996TIP3   OH245402   3.274   1.608   4.078  0.6690  0.5035 -0.0834
 7996TIP3    H145403   3.227   1.527   4.095  1.8880 -0.5851 -1.6287
 7996TIP3    H245404   3.366   1.582   4.071  1.1222  2.0636 -0.3645
 7997TIP3   OH245405   6.432   0.059  16.391  0.1260  0.9373  0.0920
 7997TIP3    H145406   6.496  -0.009  16.368 -2.7261 -1.5275 -1.2929
 7997TIP3    H245407   6.413   0.042  16.484  0.2404  0.5510  0.0488
 7998TIP3   OH245408   0.406   4.964   1.515 -0.3175 -0.0754 -0.4964
 7998TIP3    H145409   0.485   4.952   1.464 -0.1362 -1.6574  0.0887
 7998TIP3    H245410   0.348   4.892   1.488 -0.0300 -1.2651  1.7760
 7999TIP3   OH245411   4.671   2.917  16.598  0.6523  0.4639 -0.0226
 7999TIP3    H145412   4.597   2.974  16.581  0.4489 -0.4453 -2.7052
 7999TIP3    H245413   4.743   2.976  16.621 -0.4798  1.4640  1.0076
 8000TIP3   OH245414   3.384   3.964  15.638 -0.0898 -0.4345  0.5179
 8000TIP3    H145415   3.315   3.909  15.675 -0.8017 -1.4197 -2.0427
 8000TIP3    H245416   3.463   3.939  15.685 -1.1060 -0.7462  2.1199
 8001TIP3   OH245417   5.374   4.534  15.761  0.4575 -0.5339  0.0047
 8001TIP3    H145418   5.350   4.593  15.689 -0.0383 -0.3191  0.3412
 8001TIP3    H245419   5.296   4.529  15.815  0.4017 -1.7440 -0.1744
 8002TIP3   OH245420   0.670   5.591  16.113 -0.4622  0.7056 -0.0028
 8002TIP3    H145421   0.653   5.634  16.197  0.2838  0.0326  0.5086
 8002TIP3    H245422   0.764   5.603  16.098 -0.3382 -0.3004 -0.0994
 8003TIP3   OH245423   6.592   1.376  13.970  0.3412  0.4161 -0.7620
 8003TIP3    H145424   6.521   1.329  14.015  0.6956  0.9847  0.4417
 8003TIP3    H245425   6.561   1.386  13.880 -0.7685 -0.0211 -0.4456
 8004TIP3   OH245426   0.604   1.593   3.278 -0.0400 -0.3896  0.6370
 8004TIP3    H145427   0.562   1.542   3.348 -0.4142 -1.9238 -0.6513
 8004TIP3    H245428   0.572   1.553   3.197  1.7759  0.1867 -0.4109
 8005TIP3   OH245429   3.116   1.872  15.538  0.1409 -0.2300 -0.0232
 8005TIP3    H145430   3.184   1.847  15.476 -0.2253 -0.1383 -0.4705
 8005TIP3    H245431   3.055   1.799  15.538  0.3434 -0.4059  0.5372
 8006TIP3   OH245432   0.017   1.625   0.969  0.3102 -0.4416 -0.1713
 8006TIP3    H145433  -0.004   1.558   1.034 -2.4157  0.3444 -0.1251
 8006TIP3    H245434   0.107   1.651   0.990  0.0134 -1.1886  2.4231
 8007TIP3   OH245435   2.286   4.469   2.863  0.1078 -0.0956  0.6965
 8007TIP3    H145436   2.239   4.477   2.780 -0.4984  1.6472  1.1631
 8007TIP3    H245437   2.376   4.493   2.842 -0.1229  0.7201  0.5955
 8008TIP3   OH245438   0.239   4.687   4.669 -0.0507  0.5040 -0.4644
 8008TIP3    H145439   0.145   4.697   4.687  0.0026  0.1807  0.0300
 8008TIP3    H245440   0.272   4.640   4.746  0.6398  1.2311 -0.3068
 8009TIP3   OH245441   5.340   4.171   4.549 -0.6849 -0.4601 -0.3024
 8009TIP3    H145442   5.292   4.222   4.484 -0.2402 -1.0488 -1.1119
 8009TIP3    H245443   5.347   4.084   4.510  2.3341 -0.0544 -0.9335
 8010TIP3   OH245444   6.072   6.323  12.081 -0.5534 -0.3323  0.9899
 8010TIP3    H145445   6.099   6.243  12.126  3.2585 -0.2177 -0.7131
 8010TIP3    H245446   6.080   6.303  11.988 -3.5970  0.8735  0.3514
 8011TIP3   OH245447   6.070   2.213  10.994 -0.2638  0.2445  0.3987
 8011TIP3    H145448   6.031   2.165  10.922  0.0065  0.8038 -0.1344
 8011TIP3    H245449   6.128   2.149  11.037  3.1275  0.9483 -2.6144
 8012TIP3   OH245450   0.515   1.143   5.964  0.0900  0.3782  0.1078
 8012TIP3    H145451   0.573   1.108   6.031 -0.1561  0.4366  0.3567
 8012TIP3    H245452   0.548   1.107   5.882 -1.5626 -2.4535  0.5435
 8013TIP3   OH245453   1.097   2.813  16.268  0.2988  0.0355 -0.3997
 8013TIP3    H145454   1.018   2.801  16.321  0.1686 -0.3991 -0.6778
 8013TIP3    H245455   1.064   2.848  16.185  0.5124  0.8170 -0.1602
 8014TIP3   OH245456   4.378   6.020  17.053  0.3896 -0.0317 -0.2485
 8014TIP3    H145457   4.329   6.083  17.106  2.3423  0.9272  0.5392
 8014TIP3    H245458   4.337   5.936  17.071 -1.4641  0.8085 -0.3050
 8015TIP3   OH245459   5.764   5.945   2.253 -0.2059 -0.0562 -0.2945
 8015TIP3    H145460   5.823   6.008   2.295 -2.6681  1.8144  0.5716
 8015TIP3    H245461   5.733   5.889   2.324 -0.3096 -0.3335 -0.5546
 8016TIP3   OH245462   5.345   1.628   3.448 -0.2035  0.3831  0.3411
 8016TIP3    H145463   5.262   1.582   3.445 -0.0141  0.0560  0.0803
 8016TIP3    H245464   5.366   1.646   3.357 -0.0204  0.5282  0.4105
 8017TIP3   OH245465   4.042   3.874  17.039  0.5237 -0.1254  0.7451
 8017TIP3    H145466   3.963   3.848  16.991  0.5969 -0.0843  0.6010
 8017TIP3    H245467   4.072   3.794  17.080  0.9282 -0.3404  0.0424
 8018TIP3   OH245468   2.092   5.189  13.335 -0.4928 -0.2940  0.4079
 8018TIP3    H145469   2.079   5.201  13.241  3.3767 -0.2860 -0.2849
 8018TIP3    H245470   2.069   5.273  13.373 -0.5584  0.2421 -0.7639
 8019TIP3   OH245471   6.552   5.158   1.663  0.3581  0.1234  0.8708
 8019TIP3    H145472   6.491   5.210   1.714  1.0877  0.5932  1.2781
 8019TIP3    H245473   6.497   5.094   1.617 -0.3121 -0.3335  2.2504
 8020TIP3   OH245474   2.116   3.666  12.286 -0.7100 -0.0496  0.1943
 8020TIP3    H145475   2.078   3.661  12.373  0.8781  0.5694  0.9677
 8020TIP3    H245476   2.110   3.758  12.261  0.0297  0.0141  0.2273
 8021TIP3   OH245477   2.941   6.743   4.252 -0.1483 -0.1394  0.2106
 8021TIP3    H145478   2.986   6.818   4.212 -0.0892 -0.7640 -0.9189
 8021TIP3    H245479   3.007   6.702   4.308  0.1274  0.0322  0.0090
 8022TIP3   OH245480   5.918   0.167  13.569 -0.2861  0.7545 -0.2563
 8022TIP3    H145481   5.871   0.135  13.646  2.0226 -0.1928  0.8590
 8022TIP3    H245482   5.968   0.243  13.601  2.5992 -1.0597 -0.0231
 8023TIP3   OH245483   2.469   1.636   0.823 -0.3215  0.0199  0.4889
 8023TIP3    H145484   2.458   1.541   0.817 -2.0872  0.2219 -0.2628
 8023TIP3    H245485   2.527   1.649   0.898 -0.9991 -1.6113  1.3477
 8024TIP3   OH245486   3.607   1.254   5.239 -0.2667  0.8741 -0.1668
 8024TIP3    H145487   3.660   1.333   5.251 -0.9342  1.2592  0.2960
 8024TIP3    H245488   3.523   1.286   5.207  0.1156  0.1739 -1.9681
 8025TIP3   OH245489   3.113   4.830   5.891  0.4712  0.2011  0.5211
 8025TIP3    H145490   3.098   4.786   5.974 -0.3954 -0.3980  0.0613
 8025TIP3    H245491   3.170   4.905   5.913 -2.0433  1.7685  2.1490
 8026TIP3   OH245492   5.133   4.027  11.576 -0.7462  0.1173  0.0453
 8026TIP3    H145493   5.086   4.064  11.651 -1.3017 -0.4956  0.0152
 8026TIP3    H245494   5.153   3.937  11.603 -3.6782 -1.1833 -1.6403
 8027TIP3   OH245495   5.111   1.716  15.325  0.2223  0.2139  0.4998
 8027TIP3    H145496   5.167   1.683  15.255  0.1135  0.3646  0.3413
 8027TIP3    H245497   5.072   1.637  15.362 -0.0474  0.1582  0.1097
 8028TIP3   OH245498   2.870   4.862  13.290  0.0018  0.4919 -0.0047
 8028TIP3    H145499   2.803   4.870  13.222 -1.1745  1.1314  1.1664
 8028TIP3    H245500   2.884   4.952  13.320 -0.6991  0.0783  1.6681
 8029TIP3   OH245501   0.874   2.430  11.663 -0.4074 -0.5160 -0.4136
 8029TIP3    H145502   0.813   2.357  11.658 -1.4644  0.3825 -1.1416
 8029TIP3    H245503   0.826   2.498  11.712  0.9182 -0.6217  1.1400
 8030TIP3   OH245504   3.640   1.032  15.873  0.2895 -0.1892 -0.2610
 8030TIP3    H145505   3.597   1.053  15.955 -2.0902 -0.8442 -1.2708
 8030TIP3    H245506   3.711   0.972  15.898 -0.2029 -0.1602  1.3275
 8031TIP3   OH245507   2.107   5.223  16.712 -0.2513  0.7295 -0.5299
 8031TIP3    H145508   2.043   5.173  16.661  1.8526 -2.3817 -0.3737
 8031TIP3    H245509   2.091   5.197  16.802  0.7979  0.4342 -0.4232
 8032TIP3   OH245510   6.602   4.508   4.362 -0.1378  0.1592 -0.0908
 8032TIP3    H145511   6.577   4.503   4.454  1.6873 -2.2881  0.3843
 8032TIP3    H245512   6.548   4.578   4.326  0.2133  2.3189  3.1625
 8033TIP3   OH245513   4.210   4.852  15.580 -0.1893  0.7773 -0.3153
 8033TIP3    H145514   4.218   4.937  15.536 -0.0128  1.3420  0.7783
 8033TIP3    H245515   4.157   4.799  15.520  1.7399  0.8288 -2.1929
 8034TIP3   OH245516   1.396   5.594  14.300 -0.0852 -0.2280 -0.2577
 8034TIP3    H145517   1.382   5.647  14.379  0.0523 -1.8240  0.8940
 8034TIP3    H245518   1.313   5.598  14.254  0.0911  1.4188 -0.5046
 8035TIP3   OH245519   1.761   3.088   4.298 -0.8640  0.1641  0.1145
 8035TIP3    H145520   1.721   3.055   4.377 -2.0192  1.1676 -0.0289
 8035TIP3    H245521   1.756   3.015   4.236  0.7291 -0.8915  1.1347
 8036TIP3   OH245522   1.663   3.825   1.848  0.7082 -0.6204  0.1106
 8036TIP3    H145523   1.735   3.769   1.821 -0.1392 -1.5377 -0.3343
 8036TIP3    H245524   1.705   3.903   1.884  1.9070 -1.0145 -0.3794
 8037TIP3   OH245525   1.711   4.508   2.881  0.0310  0.3329  0.0232
 8037TIP3    H145526   1.789   4.461   2.854 -0.3497 -0.0625 -0.4136
 8037TIP3    H245527   1.699   4.484   2.973  0.4610  0.4454  0.1063
 8038TIP3   OH245528   3.962   0.844   3.217 -0.1221 -0.8127 -0.6836
 8038TIP3    H145529   3.965   0.907   3.289  0.6525 -0.1614 -1.2611
 8038TIP3    H245530   4.053   0.838   3.187 -0.5865 -0.1935 -2.3480
 8039TIP3   OH245531   1.112   4.821  15.024  0.4019  0.6583 -0.2770
 8039TIP3    H145532   1.174   4.861  14.965  0.8230  0.1196 -0.2079
 8039TIP3    H245533   1.080   4.893  15.079  1.9725  0.7250  0.5939
 8040TIP3   OH245534   0.008   2.501  16.353 -0.1789  0.4078  0.2730
 8040TIP3    H145535   0.086   2.556  16.362 -0.0056  0.2139 -0.0259
 8040TIP3    H245536   0.029   2.421  16.402  0.0407  0.1202 -0.2679
 8041TIP3   OH245537   4.674   0.447   2.573  0.4038 -0.2191 -0.2840
 8041TIP3    H145538   4.598   0.421   2.521  0.8159 -1.6945 -0.1803
 8041TIP3    H245539   4.655   0.416   2.661 -0.0017  1.7061  0.3588
 8042TIP3   OH245540   5.050   3.466   1.618 -0.3871  0.1784 -0.1605
 8042TIP3    H145541   5.047   3.414   1.698  0.2647 -1.0999 -0.9355
 8042TIP3    H245542   5.135   3.509   1.621  0.1165 -0.7418 -0.6636
 8043TIP3   OH245543   6.339   0.471   2.641 -0.2654 -0.1286  0.0005
 8043TIP3    H145544   6.349   0.499   2.551  1.3472  0.6046  0.3706
 8043TIP3    H245545   6.395   0.530   2.691 -0.3550 -1.1380  1.3539
 8044TIP3   OH245546   0.532   1.640  14.884 -0.3174 -0.0966 -0.2602
 8044TIP3    H145547   0.560   1.566  14.831  0.0381 -0.3128  0.2211
 8044TIP3    H245548   0.479   1.601  14.954 -0.3784  0.1303 -0.1782
 8045TIP3   OH245549   2.427   4.530   2.435 -0.2914 -0.0201 -0.9263
 8045TIP3    H145550   2.506   4.500   2.480 -1.2875  0.9034  1.5735
 8045TIP3    H245551   2.359   4.527   2.502 -2.1600  0.2749 -2.7270
 8046TIP3   OH245552   2.729   3.597  14.872  0.0645 -0.2317 -0.4451
 8046TIP3    H145553   2.731   3.693  14.871  0.6917 -0.2430 -0.8357
 8046TIP3    H245554   2.797   3.571  14.810 -0.5921 -0.9320 -0.8882
 8047TIP3   OH245555   0.355   3.640   3.057 -0.2982  0.2436  0.1765
 8047TIP3    H145556   0.323   3.699   3.125  1.1145  1.7053 -0.3558
 8047TIP3    H245557   0.277   3.619   3.004 -0.5709  3.3056 -0.8246
 8048TIP3   OH245558   4.230   6.648   0.640  0.5106 -0.0267  0.2478
 8048TIP3    H145559   4.281   6.686   0.568  1.0040 -1.6045 -0.2772
 8048TIP3    H245560   4.295   6.622   0.705  0.6243 -3.0808 -0.9027
 8049TIP3   OH245561   4.686   0.943  11.983  0.0505  0.0362  0.2760
 8049TIP3    H145562   4.684   1.028  12.026 -1.0856 -0.0787  0.4711
 8049TIP3    H245563   4.731   0.960  11.900 -0.9880  1.0453 -0.1156
 8050TIP3   OH245564   1.860   6.592  11.647 -0.8468 -0.8878  0.2753
 8050TIP3    H145565   1.784   6.595  11.705 -1.1354 -0.3923 -0.1242
 8050TIP3    H245566   1.832   6.637  11.567 -0.1801 -0.8289  0.0670
 8051TIP3   OH245567   6.286   2.972  11.415 -0.3956 -0.0267  0.5081
 8051TIP3    H145568   6.326   2.900  11.463  1.2035 -0.0026 -0.7031
 8051TIP3    H245569   6.191   2.958  11.424 -0.1792 -3.1388 -0.9417
 8052TIP3   OH245570   1.228   4.115  15.307  0.0314 -0.0559  0.4003
 8052TIP3    H145571   1.274   4.175  15.366  0.1212  0.1366  0.1374
 8052TIP3    H245572   1.140   4.107  15.344 -0.3682  1.1997 -0.2379
 8053TIP3   OH245573   5.678   3.145  14.363 -0.0480 -0.8148  0.4211
 8053TIP3    H145574   5.684   3.228  14.410  0.5016  0.2845 -1.4527
 8053TIP3    H245575   5.585   3.122  14.364 -0.0526 -0.7733  1.9038
 8054TIP3   OH245576   1.349   5.340   1.648  0.0422 -0.0935  0.2154
 8054TIP3    H145577   1.414   5.288   1.695  0.9936 -0.0435 -0.9844
 8054TIP3    H245578   1.347   5.424   1.693  4.1490  1.5934 -2.1839
 8055TIP3   OH245579   1.915   6.481  15.677  0.3949  0.6173  0.4795
 8055TIP3    H145580   1.978   6.415  15.648  1.8977  1.5412  1.4519
 8055TIP3    H245581   1.917   6.548  15.608 -2.0091 -0.8021 -1.0957
 8056TIP3   OH245582   4.048   5.779   4.212 -0.1197  0.4422  0.1461
 8056TIP3    H145583   3.954   5.762   4.199 -0.3049  1.9873 -0.7886
 8056TIP3    H245584   4.058   5.786   4.307 -0.9236  0.1425  0.2640
 8057TIP3   OH245585   4.798   2.535   4.617  0.1902  0.3162  0.1945
 8057TIP3    H145586   4.839   2.457   4.579 -1.6616 -1.6613  1.9655
 8057TIP3    H245587   4.861   2.566   4.682  0.1220 -0.9867  0.9189
 8058TIP3   OH245588   1.105   2.423   4.819  0.3475 -0.4413  0.0483
 8058TIP3    H145589   1.094   2.516   4.838 -0.0365 -0.6274  0.8082
 8058TIP3    H245590   1.144   2.420   4.732  0.8796  0.4406  0.2422
 8059TIP3   OH245591   4.063   3.801  12.876  0.2038 -0.2805  1.0685
 8059TIP3    H145592   4.059   3.708  12.852  3.1126 -0.2021 -0.1784
 8059TIP3    H245593   4.137   3.807  12.936 -0.9911  1.0503  2.4836
 8060TIP3   OH245594   4.201   3.856   5.636 -0.0593  0.3338  0.1881
 8060TIP3    H145595   4.132   3.918   5.611  1.5426  1.9339 -0.4963
 8060TIP3    H245596   4.279   3.910   5.646  2.1419 -1.8497 -3.2059
 8061TIP3   OH245597   5.166   1.970  14.699 -0.0820 -0.1948  0.6608
 8061TIP3    H145598   5.164   1.921  14.618 -0.1280  0.5921  0.1739
 8061TIP3    H245599   5.210   2.052  14.677 -1.2233  0.5681  1.1067
 8062TIP3   OH245600   1.302   5.712   6.311 -0.6120  0.2224 -0.0163
 8062TIP3    H145601   1.209   5.735   6.308 -0.4393  0.9577  0.1663
 8062TIP3    H245602   1.341   5.779   6.366  0.1266  0.2385 -0.5526
 8063TIP3   OH245603   4.278   1.998   0.376 -0.5777 -0.1954 -0.4671
 8063TIP3    H145604   4.188   2.019   0.355 -0.4982  2.7502  1.5470
 8063TIP3    H245605   4.330   2.036   0.306 -0.7973 -0.6667 -0.8934
 8064TIP3   OH245606   2.101   1.571  11.180  0.5008  0.0478 -0.2410
 8064TIP3    H145607   2.033   1.623  11.136  0.2607 -0.1997 -0.1622
 8064TIP3    H245608   2.112   1.494  11.125 -0.2439 -0.5643  0.4606
 8065TIP3   OH245609   5.781   6.173  15.520 -0.1000 -0.2538  0.9728
 8065TIP3    H145610   5.808   6.085  15.547  2.4980  0.7920  2.0601
 8065TIP3    H245611   5.726   6.205  15.592 -0.8693 -0.8538  0.6740
 8066TIP3   OH245612   0.032   5.929  13.463 -0.4046  0.7138  0.1506
 8066TIP3    H145613   0.024   5.905  13.371 -1.5954 -0.6849  0.5863
 8066TIP3    H245614   0.072   5.853  13.504 -0.2180  1.1880  0.8701
 8067TIP3   OH245615   2.332   6.736   4.342 -0.3577  0.5340 -0.4280
 8067TIP3    H145616   2.315   6.830   4.337 -0.0536  0.6491  0.4090
 8067TIP3    H245617   2.311   6.702   4.255  0.2752  1.4979 -0.9789
 8068TIP3   OH245618   3.909   1.532   0.551  0.0769  0.2004  0.2550
 8068TIP3    H145619   3.838   1.577   0.505 -0.4133  0.4967  1.2544
 8068TIP3    H245620   3.918   1.448   0.506 -0.2061  0.5781 -0.5241
 8069TIP3   OH245621   1.192   3.982   0.996  0.2834 -0.4181  0.0833
 8069TIP3    H145622   1.159   4.068   0.969  1.4647  0.0376  0.0333
 8069TIP3    H245623   1.113   3.930   1.011 -0.4623  0.1132 -1.6642
 8070TIP3   OH245624   0.100   4.031   6.008  0.2522  0.2712  0.4833
 8070TIP3    H145625   0.043   4.097   6.048 -1.1192 -1.3692  1.3755
 8070TIP3    H245626   0.055   4.006   5.927  0.3798 -0.0865  0.5194
 8071TIP3   OH245627   1.101   1.835  13.918 -0.8073 -0.3960  0.1845
 8071TIP3    H145628   1.165   1.839  13.989  0.7069 -1.5597 -1.0529
 8071TIP3    H245629   1.027   1.786  13.956 -0.6705  0.2863  1.3900
 8072TIP3   OH245630   6.681   0.916  12.034  0.4129 -0.3748  0.1010
 8072TIP3    H145631   6.679   0.949  11.944 -1.0524  0.2187  0.3120
 8072TIP3    H245632   6.766   0.942  12.068  0.7345 -0.0562 -0.9210
 8073TIP3   OH245633   2.501   3.321  11.750  0.0686  0.4398 -0.3160
 8073TIP3    H145634   2.436   3.390  11.764 -1.2861 -0.7653 -0.4520
 8073TIP3    H245635   2.478   3.253  11.813 -0.0889 -0.8908 -1.7700
 8074TIP3   OH245636   4.656   1.251  12.683  0.1616  0.0412 -0.0276
 8074TIP3    H145637   4.667   1.164  12.720 -1.0124 -0.2053 -0.1989
 8074TIP3    H245638   4.568   1.249  12.644 -0.0314  1.4130  0.2852
 8075TIP3   OH245639   1.046   5.549   3.113  0.2844  0.0455  0.2133
 8075TIP3    H145640   0.985   5.593   3.054 -0.8396 -0.9231  0.6032
 8075TIP3    H245641   1.122   5.528   3.059 -0.6522 -0.6632 -0.8554
 8076TIP3   OH245642   4.048   2.376  12.377 -0.0768  0.0909  0.3019
 8076TIP3    H145643   3.960   2.401  12.407 -0.6961 -1.6042 -0.0159
 8076TIP3    H245644   4.070   2.443  12.313 -0.7739  1.0112  0.9743
 8077TIP3   OH245645   3.067   1.075  10.854 -0.0171  0.3130  0.0718
 8077TIP3    H145646   3.125   1.056  10.928  0.1294 -0.3252 -0.1983
 8077TIP3    H245647   2.986   1.029  10.874 -0.7385  1.8435  0.8277
 8078TIP3   OH245648   4.340   3.398  14.577  0.2897 -0.0164 -0.0959
 8078TIP3    H145649   4.349   3.454  14.500 -2.8163  1.2767  0.3343
 8078TIP3    H245650   4.389   3.444  14.645  0.8480  0.2225 -0.6510
 8079TIP3   OH245651   1.901   6.064  17.219 -0.6395 -0.4166  0.2771
 8079TIP3    H145652   1.822   6.065  17.164  0.1950  0.9660 -0.9874
 8079TIP3    H245653   1.886   6.133  17.283  0.1554  1.0215 -0.9983
 8080TIP3   OH245654   3.027   4.422   4.797 -0.0026 -0.2804 -0.2020
 8080TIP3    H145655   3.069   4.376   4.870  0.7510 -1.6986 -1.4602
 8080TIP3    H245656   2.969   4.485   4.839  3.0748  1.6002  1.6628
 8081TIP3   OH245657   2.064   0.458  11.683 -0.2291  0.2430 -0.8499
 8081TIP3    H145658   2.036   0.547  11.704 -0.1784  0.3205 -1.1044
 8081TIP3    H245659   2.139   0.442  11.741 -0.0910  0.4522 -0.9700
 8082TIP3   OH245660   0.842   5.093  16.243  0.2594  0.2289 -0.2412
 8082TIP3    H145661   0.914   5.137  16.288  0.3018  0.6647 -0.7262
 8082TIP3    H245662   0.882   5.014  16.207 -0.0304 -0.7550  1.4606
 8083TIP3   OH245663   4.308   2.632   4.646  0.5111  0.4051 -0.2675
 8083TIP3    H145664   4.253   2.595   4.715 -0.5782  0.3463 -1.1442
 8083TIP3    H245665   4.393   2.589   4.658  0.0183 -0.4321  0.3472
 8084TIP3   OH245666   6.396   5.498  12.430 -0.1264 -0.4027 -0.2974
 8084TIP3    H145667   6.367   5.423  12.378 -0.2711 -0.9391  0.5365
 8084TIP3    H245668   6.407   5.463  12.519  0.2265  0.4648  0.0131
 8085TIP3   OH245669   6.358   5.189  16.732  0.4527 -0.0888 -0.7376
 8085TIP3    H145670   6.415   5.113  16.742 -0.3197 -0.6261 -0.3855
 8085TIP3    H245671   6.336   5.214  16.822 -0.9761 -0.7319 -0.8896
 8086TIP3   OH245672   6.260   5.695   1.188  0.3492  0.0766 -0.2067
 8086TIP3    H145673   6.347   5.660   1.208  0.5253  0.7665  0.2581
 8086TIP3    H245674   6.215   5.698   1.273  0.4119  1.1747 -0.1983
 8087TIP3   OH245675   5.343   6.201   0.894 -0.1064 -0.0007  0.3016
 8087TIP3    H145676   5.248   6.195   0.889 -0.0192 -0.1730 -2.3539
 8087TIP3    H245677   5.373   6.110   0.887  0.2662  0.1949 -0.8502
 8088TIP3   OH245678   1.574   2.845  14.410 -0.2090 -0.7057  0.3020
 8088TIP3    H145679   1.591   2.821  14.319  1.2324  0.3102  0.2710
 8088TIP3    H245680   1.547   2.937  14.406 -2.3857 -1.2844  0.7189
 8089TIP3   OH245681   3.571   1.571  17.068  0.1730 -0.1098  0.4815
 8089TIP3    H145682   3.632   1.518  17.119  0.0728  1.1158  1.9467
 8089TIP3    H245683   3.501   1.593  17.130  0.1123  1.5364 -0.1278
 8090TIP3   OH245684   3.695   5.958  12.733 -0.1751  0.6558  0.7090
 8090TIP3    H145685   3.752   5.993  12.802 -2.5117  1.1710  2.4874
 8090TIP3    H245686   3.691   5.864  12.752  0.5235  0.5168  0.2093
 8091TIP3   OH245687   5.124   3.912  13.706  0.0238  0.3137 -0.4526
 8091TIP3    H145688   5.049   3.876  13.659 -1.4138 -0.8588  2.4559
 8091TIP3    H245689   5.086   3.967  13.774  1.9280  1.3382 -0.1429
 8092TIP3   OH245690   2.671   5.096   4.763 -0.2951 -0.0018 -0.5376
 8092TIP3    H145691   2.683   5.173   4.819  1.4240  0.4465 -1.4590
 8092TIP3    H245692   2.579   5.073   4.773 -0.3375  0.8451  1.4478
 8093TIP3   OH245693   6.705   2.833   0.448 -0.4206  0.1091 -0.1422
 8093TIP3    H145694   6.689   2.755   0.394  0.7915 -0.5771  0.4385
 8093TIP3    H245695   6.795   2.822   0.479 -0.9898  0.5769  1.8274
 8094TIP3   OH245696   6.763   1.680  12.772  0.4141  0.1771 -0.1281
 8094TIP3    H145697   6.783   1.651  12.683  1.1610  2.5695 -0.8253
 8094TIP3    H245698   6.678   1.723  12.766 -0.8150 -1.9438  0.9367
 8095TIP3   OH245699   4.686   5.878  14.265  0.2224 -0.0007 -0.4095
 8095TIP3    H145700   4.680   5.950  14.202 -0.0806 -1.1932 -1.8037
 8095TIP3    H245701   4.596   5.847  14.274  0.5574 -1.1691 -1.0040
 8096TIP3   OH245702   6.161   3.870  16.906  0.5063 -0.5336 -0.5129
 8096TIP3    H145703   6.166   3.950  16.853  0.3190 -1.1613 -1.5124
 8096TIP3    H245704   6.243   3.869  16.955  1.0427 -0.3248 -1.3818
 8097TIP3   OH245705   4.605   1.527  13.775  0.6767  0.0190 -0.4365
 8097TIP3    H145706   4.640   1.439  13.773 -2.3598 -1.3263 -1.3745
 8097TIP3    H245707   4.578   1.541  13.866  1.8491  0.3186 -0.1237
 8098TIP3   OH245708   1.008   2.583   5.354  0.4425  0.5477 -0.3497
 8098TIP3    H145709   1.084   2.641   5.361 -0.2255  1.3321  0.4947
 8098TIP3    H245710   0.985   2.563   5.444  1.7334 -2.4980 -0.5665
 8099TIP3   OH245711   1.035   5.837   5.106  0.1304 -0.0643  0.8805
 8099TIP3    H145712   1.084   5.760   5.077  1.3717  0.3731  1.7909
 8099TIP3    H245713   0.953   5.833   5.055  1.2454 -0.5838 -0.9719
 8100TIP3   OH245714   4.624   2.196  16.685 -0.1249  0.0294 -0.8650
 8100TIP3    H145715   4.552   2.174  16.744 -0.8248 -0.3113 -1.8202
 8100TIP3    H245716   4.586   2.189  16.598  0.8165  0.7922 -1.3516
 8101TIP3   OH245717   4.708   0.192  16.289  0.3755  0.2398  0.0210
 8101TIP3    H145718   4.706   0.286  16.305  0.0796  0.0670  1.1359
 8101TIP3    H245719   4.770   0.158  16.353 -0.5938 -0.4713  0.6250
 8102TIP3   OH245720   2.474   2.825  14.014 -0.2569  0.4474 -0.1320
 8102TIP3    H145721   2.524   2.780  13.946 -2.5378 -0.2686 -1.4503
 8102TIP3    H245722   2.419   2.887  13.966 -1.6168  0.2228  1.0958
 8103TIP3   OH245723   4.496   1.553  16.258 -0.3778 -0.2105  0.3832
 8103TIP3    H145724   4.476   1.556  16.351  1.2206  0.3737  0.7563
 8103TIP3    H245725   4.546   1.634  16.242  0.9609 -1.1678 -0.5453
 8104TIP3   OH245726   4.256   3.570   0.013 -0.3476 -0.6574 -0.0943
 8104TIP3    H145727   4.279   3.662   0.001 -0.6039 -0.4358  0.9917
 8104TIP3    H245728   4.189   3.553  -0.054 -0.7973  0.1402  0.1456
 8105TIP3   OH245729   2.316   2.260   0.056 -0.1879  0.5540  0.2450
 8105TIP3    H145730   2.294   2.167   0.060 -1.4394  0.8581  1.8783
 8105TIP3    H245731   2.365   2.271  -0.025  0.1590 -1.5619  0.1350
 8106TIP3   OH245732   3.969   5.941  12.254 -0.0043  0.0121  1.1564
 8106TIP3    H145733   3.929   6.028  12.256 -0.1193 -0.0409  1.1169
 8106TIP3    H245734   4.055   5.955  12.213 -0.5400 -0.1084 -0.0411
 8107TIP3   OH245735   2.966   6.136  13.187 -0.0885 -0.5553  0.3301
 8107TIP3    H145736   2.981   6.206  13.123 -2.6455  0.7937  1.0573
 8107TIP3    H245737   3.000   6.058  13.145 -0.5343  0.4881 -2.1702
 8108TIP3   OH245738   4.445   1.047  12.400 -0.1201 -0.3005  0.2260
 8108TIP3    H145739   4.449   0.954  12.420  0.7863 -0.4894 -0.7591
 8108TIP3    H245740   4.532   1.069  12.368 -0.3490  0.8680  0.3679
 8109TIP3   OH245741   1.860   0.474  11.198  0.2507  0.0035  0.2810
 8109TIP3    H145742   1.921   0.408  11.230 -1.3517 -1.1369  1.1356
 8109TIP3    H245743   1.899   0.506  11.117  1.5838 -1.2278  0.3981
 8110TIP3   OH245744   5.498   0.585   2.966 -0.0477 -0.1905 -0.5009
 8110TIP3    H145745   5.586   0.557   2.939  0.0657 -1.2788  0.8748
 8110TIP3    H245746   5.439   0.524   2.922 -0.0068 -0.5092 -0.1166
 8111TIP3   OH245747   0.751   0.643   0.133  0.1193  0.4864 -0.3265
 8111TIP3    H145748   0.705   0.685   0.206  0.1014  1.0928 -0.6794
 8111TIP3    H245749   0.843   0.660   0.150  0.0705  1.5043 -0.9492
 8112TIP3   OH245750   6.068   1.049   4.501 -0.1709  0.1296  0.0425
 8112TIP3    H145751   6.010   1.118   4.532  0.2604  0.8194 -0.6492
 8112TIP3    H245752   6.008   0.981   4.468 -0.5951  0.6335 -0.2513
 8113TIP3   OH245753   1.358   2.036  12.199 -0.6535 -0.2823 -0.0305
 8113TIP3    H145754   1.319   1.954  12.229 -0.5313 -0.4658 -0.3682
 8113TIP3    H245755   1.352   2.032  12.104 -1.3893  0.4647 -0.0381
 8114TIP3   OH245756   3.008   5.417   6.193  0.8759 -0.5812 -0.1385
 8114TIP3    H145757   2.954   5.399   6.116  2.1420 -1.5599 -0.8496
 8114TIP3    H245758   2.982   5.350   6.257 -0.6205  0.6143  0.5738
 8115TIP3   OH245759   3.892   4.581  17.198 -0.2350 -0.3927  0.0289
 8115TIP3    H145760   3.959   4.645  17.176  0.7128 -0.4660  2.4126
 8115TIP3    H245761   3.810   4.622  17.172  0.4433  1.3468  0.5153
 8116TIP3   OH245762   2.738   6.120  16.674 -0.2696  0.0475  0.5381
 8116TIP3    H145763   2.709   6.063  16.746 -1.4899 -1.7150 -1.2048
 8116TIP3    H245764   2.659   6.133  16.621  0.2197  2.6160  0.3094
 8117TIP3   OH245765   3.865   3.477   6.126  0.6813 -0.5167  0.3537
 8117TIP3    H145766   3.933   3.529   6.082  1.7957  0.0489  2.5819
 8117TIP3    H245767   3.793   3.538   6.141  1.0762 -0.1880  0.9642
 8118TIP3   OH245768   5.567   2.382  15.880 -0.0861  0.4933  0.2223
 8118TIP3    H145769   5.568   2.430  15.797 -1.0605  1.2423  0.6316
 8118TIP3    H245770   5.610   2.441  15.943 -0.6711  0.5554  0.5715
 8119TIP3   OH245771   1.214   2.170  17.143 -0.1551  0.1006  0.4615
 8119TIP3    H145772   1.225   2.217  17.226 -3.6376  0.9336  0.6312
 8119TIP3    H245773   1.197   2.238  17.078  0.7521 -0.6485 -0.5965
 8120TIP3   OH245774   2.483   4.218  12.630  0.0866 -0.3809 -0.0210
 8120TIP3    H145775   2.537   4.221  12.551  1.1244  0.3440  0.6928
 8120TIP3    H245776   2.533   4.163  12.691  0.2681  0.6978  0.8189
 8121TIP3   OH245777   0.208   4.500   4.391  0.0179  0.5337  0.0226
 8121TIP3    H145778   0.266   4.426   4.407 -0.6948 -0.0601 -0.1288
 8121TIP3    H245779   0.120   4.464   4.396 -0.3393  1.3645 -0.0789
 8122TIP3   OH245780   4.051   3.392  13.297 -0.1948  0.0822  0.1693
 8122TIP3    H145781   4.108   3.468  13.308  2.3249 -1.7560  0.7139
 8122TIP3    H245782   4.052   3.374  13.203  2.4640 -1.4836  0.3944
 8123TIP3   OH245783   4.958   3.109  11.314 -0.3183  0.3450 -0.2058
 8123TIP3    H145784   4.905   3.112  11.234 -1.6805  0.2573  0.6659
 8123TIP3    H245785   4.938   3.024  11.353 -1.8181  1.4472  1.6010
 8124TIP3   OH245786   1.805   4.630  16.814 -0.4664  0.0776  0.6772
 8124TIP3    H145787   1.809   4.535  16.806 -0.2570  0.0654  0.9175
 8124TIP3    H245788   1.896   4.659  16.806 -0.5853  0.3027  0.0802
 8125TIP3   OH245789   4.422   5.584  11.887  0.4811 -0.1154 -0.4247
 8125TIP3    H145790   4.490   5.651  11.893 -0.0110  0.2411  1.9661
 8125TIP3    H245791   4.463   5.514  11.836  1.7550  1.0662 -1.1176
 8126TIP3   OH245792   4.998   5.097  11.802  0.2575  0.0797 -0.4475
 8126TIP3    H145793   5.084   5.134  11.818 -0.2001  2.6112 -3.0153
 8126TIP3    H245794   4.936   5.167  11.823 -1.1295 -1.2762  0.2116
 8127TIP3   OH245795   5.022   6.012  14.983  0.2397  0.1238 -0.1789
 8127TIP3    H145796   5.066   5.971  15.058 -0.4846  0.1750  0.2814
 8127TIP3    H245797   4.959   5.946  14.953  1.0826 -0.2293 -1.2801
 8128TIP3   OH245798   1.612   2.903  15.125 -0.3201 -0.0774  0.3067
 8128TIP3    H145799   1.608   2.858  15.209 -2.9967 -0.8041 -0.1197
 8128TIP3    H245800   1.528   2.949  15.118  0.3853  1.0567 -1.3974
 8129TIP3   OH245801   4.102   1.200  14.160 -0.6059  0.6130  0.5789
 8129TIP3    H145802   4.064   1.124  14.203 -1.2127  1.1599  1.0321
 8129TIP3    H245803   4.091   1.183  14.067 -1.3212  0.4415  0.6918
 8130TIP3   OH245804   5.401   5.298   4.127 -0.2451  0.1495 -0.7419
 8130TIP3    H145805   5.350   5.323   4.204  0.8525 -0.1789  0.1373
 8130TIP3    H245806   5.343   5.311   4.053 -1.2106  0.8367  0.1191
 8131TIP3   OH245807   2.037   3.860   3.282  0.8850  0.1024  0.5335
 8131TIP3    H145808   2.003   3.855   3.193 -1.0237 -1.5598  1.2970
 8131TIP3    H245809   1.960   3.857   3.339  1.8836  3.0539  2.2966
 8132TIP3   OH245810   2.792   2.387   3.082  0.5881 -0.7262 -0.0270
 8132TIP3    H145811   2.731   2.439   3.029 -0.0776 -1.0216  0.4346
 8132TIP3    H245812   2.834   2.329   3.018 -2.9944 -3.8690  0.0802
 8133TIP3   OH245813   0.165   6.287  12.442 -0.2647  0.6854  0.4497
 8133TIP3    H145814   0.187   6.214  12.500 -1.0346 -0.8466 -1.0921
 8133TIP3    H245815   0.105   6.249  12.378  0.1006  2.4485 -1.0121
 8134TIP3   OH245816   5.179   1.136  11.470  0.2724 -0.2896 -0.1464
 8134TIP3    H145817   5.195   1.085  11.391  0.7755  0.4653 -0.5341
 8134TIP3    H245818   5.244   1.206  11.468 -0.2873  0.2645  0.4759
 8135TIP3   OH245819   2.550   3.803   3.051  0.1675  0.5810  0.0958
 8135TIP3    H145820   2.579   3.752   3.126  0.4129 -0.6663 -0.8083
 8135TIP3    H245821   2.471   3.849   3.082  0.9908  1.1194  1.4715
 8136TIP3   OH245822   3.357   2.703  16.500  0.1469 -0.2242 -0.2236
 8136TIP3    H145823   3.400   2.769  16.555 -1.6116  0.7123  0.0689
 8136TIP3    H245824   3.278   2.679  16.548 -0.1934 -1.1857 -1.2309
 8137TIP3   OH245825   3.286   0.609  11.243 -0.2648 -0.1460 -0.3658
 8137TIP3    H145826   3.304   0.610  11.337 -1.4835  0.2528 -0.1214
 8137TIP3    H245827   3.363   0.651  11.204 -0.1693  0.5449  0.5326
 8138TIP3   OH245828   6.517   6.204   5.456  0.9218 -0.2056 -0.2879
 8138TIP3    H145829   6.536   6.296   5.476  0.6608 -0.3616  0.7397
 8138TIP3    H245830   6.495   6.165   5.541  2.0014 -1.4632 -0.5545
 8139TIP3   OH245831   6.572   4.547   3.483 -0.3091 -0.4536 -0.1184
 8139TIP3    H145832   6.492   4.588   3.517 -0.8777 -0.3708 -1.5016
 8139TIP3    H245833   6.546   4.456   3.466  0.4418 -0.9482  1.2059
 8140TIP3   OH245834   5.426   3.356  17.098 -0.6454 -0.0797  0.3687
 8140TIP3    H145835   5.420   3.412  17.021 -0.0471  0.2345  0.5542
 8140TIP3    H245836   5.503   3.302  17.083 -1.6910 -1.4972 -0.2255
 8141TIP3   OH245837   1.389   0.356   5.367  0.0911  0.0766  0.5925
 8141TIP3    H145838   1.308   0.349   5.316  0.9946  2.0511 -1.3096
 8141TIP3    H245839   1.396   0.449   5.388  2.4133  0.1828 -0.3270
 8142TIP3   OH245840   3.234   4.365   4.133 -0.3414 -0.3386  0.0611
 8142TIP3    H145841   3.176   4.337   4.203 -1.7125 -1.5611 -1.4959
 8142TIP3    H245842   3.235   4.292   4.072 -0.3371  1.2229 -1.9014
 8143TIP3   OH245843   2.476   2.393  11.299 -0.3066  0.3518 -0.5312
 8143TIP3    H145844   2.563   2.424  11.275  1.2308 -3.7631 -1.2299
 8143TIP3    H245845   2.429   2.389  11.216  0.0207 -0.4246 -0.6934
 8144TIP3   OH245846   6.506   1.956  11.493 -0.2158 -0.3559 -0.0073
 8144TIP3    H145847   6.428   2.011  11.495 -0.1398 -0.2669  1.3202
 8144TIP3    H245848   6.474   1.867  11.507 -0.4501 -0.8811 -3.1009
 8145TIP3   OH245849   6.105   6.590   5.230  0.0232  0.6857 -0.2259
 8145TIP3    H145850   6.112   6.631   5.316  2.1902 -0.5842  0.2905
 8145TIP3    H245851   6.022   6.621   5.195 -1.3342  0.6193  2.6537
 8146TIP3   OH245852   1.301   6.594  11.489  0.3177 -0.2604  0.3882
 8146TIP3    H145853   1.314   6.534  11.416  0.5648 -1.4850  1.4061
 8146TIP3    H245854   1.365   6.664  11.474  0.3266 -0.4545 -0.5758
 8147TIP3   OH245855   6.099   4.440  12.591  0.1249  0.2834  0.4690
 8147TIP3    H145856   6.042   4.504  12.549 -0.2645  1.2858  2.4022
 8147TIP3    H245857   6.154   4.407  12.520 -0.0038  2.3869 -0.6964
 8148TIP3   OH245858   0.838   2.736   3.538 -0.2876  0.0129  0.4144
 8148TIP3    H145859   0.830   2.803   3.470 -0.3456 -0.4820 -0.0769
 8148TIP3    H245860   0.815   2.781   3.619  1.0347  0.9511  0.2991
 8149TIP3   OH245861   6.747   4.592  15.204  0.0490  0.1466 -0.4614
 8149TIP3    H145862   6.651   4.592  15.197 -0.1379  0.7389  1.4171
 8149TIP3    H245863   6.767   4.522  15.266  0.7547  0.5247 -0.2462
 8150TIP3   OH245864   6.282   6.059  11.150 -0.0317 -0.0007  0.3088
 8150TIP3    H145865   6.260   6.143  11.191 -1.1337 -0.0810 -0.0705
 8150TIP3    H245866   6.373   6.068  11.123 -0.7060  1.9000 -1.6620
 8151TIP3   OH245867   3.965   1.811  14.335  0.4531 -0.0388 -0.1432
 8151TIP3    H145868   4.033   1.808  14.402  0.2977  0.1038  0.0197
 8151TIP3    H245869   4.014   1.814  14.252  0.6453 -0.4044 -0.0494
 8152TIP3   OH245870   1.373   1.312  13.252  0.4024  0.0174  0.1240
 8152TIP3    H145871   1.350   1.342  13.340  0.2554  1.5074 -0.3911
 8152TIP3    H245872   1.469   1.314  13.251  0.3999  0.1694  0.1888
 8153TIP3   OH245873   1.343   1.875   2.382  0.0249  0.6531  0.1279
 8153TIP3    H145874   1.370   1.942   2.319  0.6735 -0.5153 -0.8953
 8153TIP3    H245875   1.257   1.904   2.412 -0.1908  1.3917 -1.1079
 8154TIP3   OH245876   0.548   2.226   4.269  0.4828  0.6031  0.0948
 8154TIP3    H145877   0.545   2.187   4.182 -1.0272  0.5096  0.1488
 8154TIP3    H245878   0.532   2.152   4.328 -1.9136  1.1340  0.2266
 8155TIP3   OH245879   3.531   2.886   1.700 -0.0973 -0.5296  0.2243
 8155TIP3    H145880   3.492   2.962   1.657  1.0503 -0.0839 -0.0654
 8155TIP3    H245881   3.460   2.851   1.755 -1.9767 -1.7410 -2.7298
 8156TIP3   OH245882   1.908   1.096  14.225 -0.0764  0.2838 -0.3624
 8156TIP3    H145883   1.973   1.060  14.286 -0.0883  2.2371  0.8916
 8156TIP3    H245884   1.910   1.190  14.242 -2.0062  0.5691 -1.5372
 8157TIP3   OH245885   6.592   4.566  11.171  0.6617  0.0492  0.0161
 8157TIP3    H145886   6.642   4.540  11.247  0.7774  2.1793  0.7433
 8157TIP3    H245887   6.514   4.609  11.207 -0.5318 -1.0816 -1.0946
 8158TIP3   OH245888   1.320   3.338   3.341 -0.1949  0.1766 -0.2285
 8158TIP3    H145889   1.368   3.285   3.404 -0.2061  1.6616  1.0979
 8158TIP3    H245890   1.241   3.365   3.388 -0.5582  0.7322 -1.1363
 8159TIP3   OH245891   1.064   4.260  12.789 -0.1891 -0.2493  0.4270
 8159TIP3    H145892   1.059   4.173  12.829  0.9939 -0.4926  0.0721
 8159TIP3    H245893   1.096   4.244  12.700 -1.4215  0.4219 -0.1735
 8160TIP3   OH245894   2.358   0.399  15.635 -0.1795  0.1096 -0.0014
 8160TIP3    H145895   2.304   0.432  15.707 -1.2454  1.6045 -1.3949
 8160TIP3    H245896   2.408   0.475  15.606  1.5859 -0.8986  0.2633
 8161TIP3   OH245897   2.278   0.793  13.111  0.2462 -0.5221 -0.3552
 8161TIP3    H145898   2.189   0.830  13.116 -0.4510 -2.1977  0.2633
 8161TIP3    H245899   2.292   0.779  13.017 -0.0503 -0.0847 -0.4726
 8162TIP3   OH245900   0.657   4.777   5.131  0.2511  0.0570 -0.1200
 8162TIP3    H145901   0.709   4.834   5.074  1.7030 -2.5185 -1.5154
 8162TIP3    H245902   0.566   4.805   5.117  0.8082  1.2192 -1.6302
 8163TIP3   OH245903   2.533   3.694   2.217  0.2279 -0.3050  0.2221
 8163TIP3    H145904   2.565   3.666   2.131  0.5055  0.5838  0.0350
 8163TIP3    H245905   2.531   3.789   2.213 -2.7310 -0.3001  0.1349
 8164TIP3   OH245906   2.307   6.174  14.628  0.2609 -0.0554 -0.1401
 8164TIP3    H145907   2.305   6.162  14.533 -1.3760 -0.0313 -0.1263
 8164TIP3    H245908   2.398   6.197  14.647  0.6811 -0.3686 -1.6596
 8165TIP3   OH245909   5.045   3.585   4.754  0.5299 -0.0182 -0.7147
 8165TIP3    H145910   5.014   3.523   4.820 -1.8425  0.8934 -0.8738
 8165TIP3    H245911   5.061   3.666   4.803 -2.4247  1.0439 -1.2648
 8166TIP3   OH245912   4.530   0.445   1.422  0.2803 -0.1627 -0.2654
 8166TIP3    H145913   4.494   0.529   1.391 -0.2150 -0.4091 -0.3616
 8166TIP3    H245914   4.453   0.394   1.448  0.6534 -0.1255  0.9791
 8167TIP3   OH245915   3.026   0.695   6.112  0.1277  0.8195 -0.6240
 8167TIP3    H145916   3.118   0.721   6.113  0.7809 -1.1440  1.9528
 8167TIP3    H245917   2.977   0.778   6.112  1.8852  1.8994 -1.1787
 8168TIP3   OH245918   1.889   1.904  16.899 -0.2357  0.0020  0.0547
 8168TIP3    H145919   1.812   1.873  16.947 -1.1894 -0.1804 -1.5126
 8168TIP3    H245920   1.919   1.828  16.849 -0.1821  0.5478 -0.7711
 8169TIP3   OH245921   3.370   6.022  16.331 -0.3353  0.4824  0.3121
 8169TIP3    H145922   3.319   6.059  16.259 -1.8167  0.5277  1.3364
 8169TIP3    H245923   3.314   5.953  16.368  0.8634 -0.3122  0.7244
 8170TIP3   OH245924   2.500   4.123   2.462  0.4594 -0.5345 -0.5401
 8170TIP3    H145925   2.526   4.196   2.405  1.3151 -1.3052 -1.1537
 8170TIP3    H245926   2.441   4.071   2.407 -0.2583 -0.2624 -0.0558
 8171TIP3   OH245927   4.898   0.219   1.234  0.4306  0.2610  0.0574
 8171TIP3    H145928   4.831   0.161   1.199  1.7157 -0.9042 -0.5588
 8171TIP3    H245929   4.862   0.248   1.318 -0.3392 -1.2712  0.2969
 8172TIP3   OH245930   5.418   5.412  13.352 -0.0061 -0.4387  0.1099
 8172TIP3    H145931   5.414   5.432  13.445  2.1432 -0.9467  0.3691
 8172TIP3    H245932   5.336   5.366  13.334 -1.2614  1.1903  1.3112
 8173TIP3   OH245933   3.237   5.819  12.205 -0.1476  0.3204  0.3289
 8173TIP3    H145934   3.148   5.784  12.212  0.5563 -1.7055 -0.2731
 8173TIP3    H245935   3.256   5.819  12.111  0.3270  1.1920  0.4181
 8174TIP3   OH245936   1.013   0.307   4.905  0.0749 -0.2421 -0.3407
 8174TIP3    H145937   0.963   0.316   4.824 -0.8412  0.3763  0.2782
 8174TIP3    H245938   0.973   0.369   4.965  1.2271 -0.1481  0.3652
 8175TIP3   OH245939   6.243   0.639   1.253  0.1961 -0.5342 -0.5589
 8175TIP3    H145940   6.164   0.606   1.210  0.8551  0.3630 -2.5736
 8175TIP3    H245941   6.305   0.565   1.250 -0.0890 -0.7911 -0.2207
 8176TIP3   OH245942   0.482   0.236  11.224  0.6038  0.1126 -0.1470
 8176TIP3    H145943   0.426   0.261  11.151 -0.5681 -1.2679  0.2441
 8176TIP3    H245944   0.425   0.241  11.301  1.4594  0.2660  0.4928
 8177TIP3   OH245945   1.546   1.446   3.055 -0.4021 -0.4231 -0.0516
 8177TIP3    H145946   1.518   1.480   3.141 -1.4154 -0.7837 -0.2197
 8177TIP3    H245947   1.631   1.406   3.072 -0.1750  0.2986  0.5956
 8178TIP3   OH245948   1.439   6.152   1.730  0.5700 -0.4051 -0.9500
 8178TIP3    H145949   1.475   6.079   1.780  0.6848 -0.2604 -0.8173
 8178TIP3    H245950   1.473   6.230   1.775  0.0808 -0.2682 -0.8105
 8179TIP3   OH245951   5.624   5.760   3.085 -0.0149  0.2263 -0.4801
 8179TIP3    H145952   5.689   5.760   3.155  0.4762  0.8366 -0.9172
 8179TIP3    H245953   5.550   5.810   3.119 -0.2396 -0.4228 -0.0004
 8180TIP3   OH245954   4.166   6.268   1.419 -0.0195  0.3258  0.8058
 8180TIP3    H145955   4.119   6.189   1.391 -0.3578  1.6604 -2.8903
 8180TIP3    H245956   4.106   6.311   1.480 -0.2780 -1.6587  2.0519
 8181TIP3   OH245957   2.377   5.503  14.587  0.0019 -0.9926 -0.2112
 8181TIP3    H145958   2.299   5.465  14.547  0.5129 -2.7933  0.4299
 8181TIP3    H245959   2.390   5.586  14.540 -1.4337 -1.3610 -1.3196
 8182TIP3   OH245960   0.083   1.378   0.694 -0.8091  0.4221 -0.6768
 8182TIP3    H145961   0.150   1.414   0.753 -0.7527  0.6735 -0.8941
 8182TIP3    H245962   0.132   1.351   0.616 -0.5700 -1.7149  0.1251
 8183TIP3   OH245963   5.752   5.110   4.830  0.2729 -0.3782 -0.4363
 8183TIP3    H145964   5.797   5.107   4.746  1.6909 -2.2124  0.3170
 8183TIP3    H245965   5.659   5.109   4.808  0.5919  0.4491 -1.9738
 8184TIP3   OH245966   1.507   3.713   1.136  0.0254 -0.0859 -0.1276
 8184TIP3    H145967   1.452   3.759   1.200  0.5664  0.3265  0.0560
 8184TIP3    H245968   1.562   3.656   1.189  1.2201  1.0344 -0.0966
 8185TIP3   OH245969   0.590   5.849   0.133 -0.0865  0.3735 -0.2068
 8185TIP3    H145970   0.664   5.796   0.107  0.8629  1.1416  0.8293
 8185TIP3    H245971   0.546   5.798   0.201  0.5918  0.7063  0.5016
 8186TIP3   OH245972   5.115   1.205  16.975  0.5158 -0.5898  0.0119
 8186TIP3    H145973   5.148   1.240  17.057  0.7312 -2.4115  0.7548
 8186TIP3    H245974   5.186   1.150  16.941 -0.8139 -2.7189  0.4660
 8187TIP3   OH245975   5.953   1.449   2.582  0.1115 -0.8364  0.3153
 8187TIP3    H145976   5.876   1.403   2.548 -0.5888 -1.1645  2.2212
 8187TIP3    H245977   6.007   1.381   2.621 -0.4373 -0.2514  2.2359
 8188TIP3   OH245978   5.293   2.796   0.064 -0.2030  0.3184 -0.1612
 8188TIP3    H145979   5.259   2.782   0.153  0.1384  0.6125  0.0161
 8188TIP3    H245980   5.368   2.738   0.058 -0.6965 -0.2890 -0.5345
 8189TIP3   OH245981   3.929   5.252   1.600  0.4869  0.2231 -0.0606
 8189TIP3    H145982   3.971   5.299   1.529  0.3937 -0.8113 -0.8308
 8189TIP3    H245983   3.859   5.310   1.630 -0.0580  0.3121 -1.4252
 8190TIP3   OH245984   2.236   5.393   0.418  0.5413 -0.0998  0.0689
 8190TIP3    H145985   2.329   5.416   0.411  0.8346 -1.4737 -0.8814
 8190TIP3    H245986   2.228   5.310   0.371 -0.8889 -0.7741  1.4077
 8191TIP3   OH245987   1.367   5.371   0.508  0.0941 -0.6247  0.2885
 8191TIP3    H145988   1.271   5.374   0.509  0.0221 -1.2861 -1.4362
 8191TIP3    H245989   1.389   5.285   0.544  0.0490 -0.5169  0.5793
 8192TIP3   OH245990   5.520   4.215   5.323  0.2804 -0.8870 -0.3188
 8192TIP3    H145991   5.602   4.178   5.291  0.1581  0.2331 -1.9908
 8192TIP3    H245992   5.530   4.309   5.314 -0.3940 -0.6017  1.4867
 8193TIP3   OH245993   6.194   6.406  13.089 -0.1174 -0.4931 -0.0119
 8193TIP3    H145994   6.210   6.359  13.171 -0.5331 -0.2442  0.2117
 8193TIP3    H245995   6.158   6.341  13.030  2.7642 -1.4151 -0.9413
 8194TIP3   OH245996   5.338   2.708   1.612 -0.9470  0.2010 -0.0745
 8194TIP3    H145997   5.418   2.747   1.578 -1.3563 -0.5310 -2.0001
 8194TIP3    H245998   5.346   2.715   1.707  2.0602 -1.1572 -0.1314
 8195TIP3   OH245999   2.771   6.791   4.662 -0.5371  0.0653 -0.8740
 8195TIP3    H146000   2.766   6.726   4.732  3.0682 -2.4664 -2.6488
 8195TIP3    H246001   2.720   6.754   4.590  0.6916 -0.3557 -1.5515
 8196TIP3   OH246002   6.147   2.403   1.424  0.2289 -1.0529 -0.4329
 8196TIP3    H146003   6.193   2.378   1.504  0.2599 -1.2354 -0.5087
 8196TIP3    H246004   6.064   2.441   1.455  0.0022 -1.6177 -0.3326
 8197TIP3   OH246005   0.491   2.458   5.771  0.2040 -0.3056 -0.8162
 8197TIP3    H146006   0.396   2.454   5.758  0.3256  0.3149 -1.9691
 8197TIP3    H246007   0.505   2.409   5.852 -1.2809  0.9827  0.2995
 8198TIP3   OH246008   5.712   6.551  16.586 -0.1370 -0.0602  0.4590
 8198TIP3    H146009   5.735   6.554  16.493 -1.3762  1.3780  0.1498
 8198TIP3    H246010   5.635   6.495  16.590 -1.6434  1.8692  0.1750
 8199TIP3   OH246011   2.787   5.713  11.897 -0.2133  1.1194  0.7375
 8199TIP3    H146012   2.806   5.741  11.808 -0.6095  0.8535  0.5662
 8199TIP3    H246013   2.694   5.731  11.909 -0.2784  0.6717  0.9197
 8200TIP3   OH246014   2.462   3.817   6.312 -0.3583  0.1524 -0.6551
 8200TIP3    H146015   2.545   3.863   6.325 -1.2055  2.3129 -2.2844
 8200TIP3    H246016   2.475   3.764   6.233 -1.1193  2.2779 -2.3122
 8201TIP3   OH246017   0.203   5.452   5.011  0.2001  0.6749  0.0480
 8201TIP3    H146018   0.166   5.495   4.934 -1.5231 -2.0224 -0.7664
 8201TIP3    H246019   0.144   5.476   5.083  0.3730  1.2112  0.0104
 8202TIP3   OH246020   5.849   5.803   0.338  0.2729  0.4435  0.7339
 8202TIP3    H146021   5.932   5.761   0.358  1.9378  1.8740 -2.3989
 8202TIP3    H246022   5.844   5.877   0.399  0.6950 -0.3234  1.7135
 8203TIP3   OH246023   2.063   0.992  10.895  0.0387  0.7518  0.4200
 8203TIP3    H146024   2.008   1.067  10.873  0.2431  0.9234  0.4879
 8203TIP3    H246025   2.013   0.916  10.866 -0.2937  0.8983  0.6009
 8204TIP3   OH246026   6.734   3.398  14.932  0.2010 -0.2535  0.2895
 8204TIP3    H146027   6.735   3.377  15.025  0.9594  0.1153  0.3727
 8204TIP3    H246028   6.647   3.435  14.916  0.1903 -0.0034  0.9219
 8205TIP3   OH246029   5.708   2.539  10.843 -0.2214  0.3070 -0.1478
 8205TIP3    H146030   5.644   2.587  10.792 -1.1695  1.2296  1.8085
 8205TIP3    H246031   5.793   2.575  10.816 -0.4533 -0.8764 -2.7081
 8206TIP3   OH246032   3.137   4.276  11.620  0.5261 -0.3942  0.0806
 8206TIP3    H146033   3.076   4.346  11.597 -0.2739 -1.8084 -2.4762
 8206TIP3    H246034   3.209   4.285  11.557 -0.3224 -2.6913 -1.3406
 8207TIP3   OH246035   4.270   2.979  16.018  0.3160 -0.3550 -0.0978
 8207TIP3    H146036   4.341   2.920  16.042  0.3353 -0.5073 -0.5294
 8207TIP3    H246037   4.268   3.044  16.089  3.0663  1.6445 -1.6398
 8208TIP3   OH246038   1.001   0.222  14.181  0.2419 -0.2510  0.1324
 8208TIP3    H146039   0.938   0.207  14.110  0.8868 -0.0671 -0.4847
 8208TIP3    H246040   1.040   0.307  14.160 -0.2589  0.2714  1.2436
 8209TIP3   OH246041   0.259   2.086   4.177  0.2981 -0.2096 -0.3876
 8209TIP3    H146042   0.301   2.095   4.092 -1.2089  0.7954 -1.0676
 8209TIP3    H246043   0.319   2.130   4.238  2.2446 -2.4210 -0.5648
 8210TIP3   OH246044   0.163   4.970  12.198 -0.4923  0.2026 -0.1319
 8210TIP3    H146045   0.233   4.978  12.263 -2.0483 -0.1999  1.6716
 8210TIP3    H246046   0.085   4.948  12.249 -2.0771  1.1769 -2.0041
 8211TIP3   OH246047   4.491   0.171  11.325 -0.0011 -0.7813  0.0965
 8211TIP3    H146048   4.430   0.235  11.361 -0.8232 -1.0460 -0.7888
 8211TIP3    H246049   4.439   0.121  11.262  1.2202 -0.7340 -0.9943
 8212TIP3   OH246050   6.154   0.727   2.035  0.1562  0.2678 -0.5272
 8212TIP3    H146051   6.155   0.669   2.111 -0.1670 -0.9492 -1.4262
 8212TIP3    H246052   6.061   0.738   2.015  0.2210  1.0272 -0.4265
 8213TIP3   OH246053   2.831   1.031   4.600 -0.4403  0.4247 -0.2092
 8213TIP3    H146054   2.921   1.063   4.611 -0.6502  0.8157  0.4117
 8213TIP3    H246055   2.841   0.941   4.569  0.1737  0.2751  0.4074
 8214TIP3   OH246056   6.365   2.705  11.635 -0.2287  0.4422 -0.9649
 8214TIP3    H146057   6.397   2.714  11.725 -1.4009  1.2693 -0.6072
 8214TIP3    H246058   6.434   2.656  11.590  1.8463  2.6130 -0.3831
 8215TIP3   OH246059   3.327   5.248  12.842 -0.3310  0.6527 -0.3468
 8215TIP3    H146060   3.231   5.254  12.846 -0.2301  1.9993  0.6290
 8215TIP3    H246061   3.353   5.317  12.782  0.1086  1.2250  0.4979
 8216TIP3   OH246062   4.092   1.801  11.431 -0.4341  0.0081 -0.3424
 8216TIP3    H146063   4.169   1.792  11.374 -0.0118  1.1256  0.0201
 8216TIP3    H246064   4.076   1.895  11.435 -0.9736 -0.1139  0.7050
 8217TIP3   OH246065   5.805   0.719  15.919  0.5189  0.1125  0.4841
 8217TIP3    H146066   5.856   0.757  15.991  0.9337  1.3794 -0.4535
 8217TIP3    H246067   5.851   0.638  15.898 -0.4809 -1.1226  2.6305
 8218TIP3   OH246068   0.217   3.665  11.424  0.2693 -0.3067  0.1727
 8218TIP3    H146069   0.150   3.687  11.488  1.3279  2.1083  0.5254
 8218TIP3    H246070   0.192   3.713  11.345  0.4979 -1.0541 -0.3772
 8219TIP3   OH246071   2.372   4.574  15.957  0.4995 -0.4439 -0.0296
 8219TIP3    H146072   2.301   4.523  15.916  0.7017  0.0047 -0.9576
 8219TIP3    H246073   2.447   4.515  15.954  0.9135  0.0897 -1.7199
 8220TIP3   OH246074   5.215   2.860  10.779  0.1500 -0.0441  0.1948
 8220TIP3    H146075   5.236   2.952  10.764  0.1466 -0.1990 -0.8283
 8220TIP3    H246076   5.140   2.843  10.722  2.0573 -1.4514 -2.0379
 8221TIP3   OH246077   1.005   2.671  14.983 -0.7595 -0.4654  0.1482
 8221TIP3    H146078   1.098   2.654  15.002 -0.1802  0.2137 -1.8366
 8221TIP3    H246079   0.996   2.766  14.994 -0.7981 -0.2960 -1.2150
 8222TIP3   OH246080   1.872   1.648   5.939 -0.4098 -0.2511 -0.2865
 8222TIP3    H146081   1.796   1.703   5.961 -1.2928 -1.0791 -1.1597
 8222TIP3    H246082   1.908   1.688   5.860  1.6488  1.6299  1.4599
 8223TIP3   OH246083   2.522   5.480   4.961 -0.1448 -0.2816  0.3094
 8223TIP3    H146084   2.432   5.495   4.991 -0.6937 -2.7948  0.1521
 8223TIP3    H246085   2.515   5.474   4.866  0.1879 -0.5254  0.3009
 8224TIP3   OH246086   3.669   3.499   2.313  0.1664 -0.5002  0.0472
 8224TIP3    H146087   3.652   3.553   2.391 -0.0572  1.1299 -1.0928
 8224TIP3    H246088   3.763   3.508   2.297  0.0108  0.1387 -0.5480
 8225TIP3   OH246089   6.237   0.143   5.167  0.0290  0.4400  0.1406
 8225TIP3    H146090   6.288   0.185   5.098  0.6566 -0.2053  0.2039
 8225TIP3    H246091   6.240   0.050   5.147 -0.3254  0.3060  0.6767
 8226TIP3   OH246092   3.054   2.847  16.348 -0.1976  0.2905 -0.5047
 8226TIP3    H146093   2.975   2.844  16.402 -0.7008 -0.0367 -1.2387
 8226TIP3    H246094   3.122   2.882  16.406 -0.5455 -0.7343  0.5560
 8227TIP3   OH246095   5.110   0.648   3.722  0.1508  0.5064  0.7384
 8227TIP3    H146096   5.077   0.731   3.689  0.2289  0.9892  1.8123
 8227TIP3    H246097   5.031   0.599   3.746  0.0989  0.1947 -0.0556
 8228TIP3   OH246098   0.299   3.619  17.174  0.3513  0.0212  0.2542
 8228TIP3    H146099   0.321   3.711  17.156 -0.8735  0.2259 -0.2587
 8228TIP3    H246100   0.218   3.623  17.225  0.9760 -0.7480  1.3376
 8229TIP3   OH246101   1.009   5.771  16.414 -0.1570 -0.7050 -0.2032
 8229TIP3    H146102   1.014   5.856  16.371 -1.7078 -0.3371  0.2873
 8229TIP3    H246103   1.033   5.788  16.505 -1.0681 -0.6686  0.0347
 8230TIP3   OH246104   2.412   4.303  11.460 -0.0787  0.1597  0.0049
 8230TIP3    H146105   2.457   4.288  11.376  1.7552  1.3171  0.7060
 8230TIP3    H246106   2.441   4.231  11.516  1.4398  1.1888  0.6191
 8231TIP3   OH246107   4.303   3.878   3.427  0.2677  0.2124 -0.4036
 8231TIP3    H146108   4.305   3.889   3.332  2.7645  2.0579 -0.2384
 8231TIP3    H246109   4.260   3.958   3.459 -1.7947 -1.0000  0.0446
 8232TIP3   OH246110   6.229   4.493  13.704  0.1485 -0.6352  0.0224
 8232TIP3    H146111   6.226   4.490  13.800  1.2837 -0.1769  0.0759
 8232TIP3    H246112   6.321   4.481  13.682  0.2798  1.5926 -0.9199
 8233TIP3   OH246113   2.160   6.373   3.957  0.0743 -0.0043  0.8106
 8233TIP3    H146114   2.182   6.358   3.865  0.3483 -1.4050  1.0728
 8233TIP3    H246115   2.087   6.434   3.956  1.0480  1.1858 -0.2702
 8234TIP3   OH246116   3.378   5.737  12.736  0.0552  0.4953 -0.2484
 8234TIP3    H146117   3.343   5.649  12.719  1.4581  0.1627 -1.7016
 8234TIP3    H246118   3.313   5.797  12.701 -0.0496 -0.0406 -0.9928
 8235TIP3   OH246119   2.186   1.109   5.800 -0.8144  0.2688  0.3053
 8235TIP3    H146120   2.102   1.102   5.754  0.0618 -1.5947 -1.1796
 8235TIP3    H246121   2.190   1.030   5.854  0.7434 -0.7101 -1.1308
 8236TIP3   OH246122   1.374   3.601  14.925  0.4018 -0.4747  0.0304
 8236TIP3    H146123   1.298   3.563  14.881 -0.1980  1.0956 -0.3732
 8236TIP3    H246124   1.370   3.694  14.903  1.6030 -0.1039  1.2434
 8237TIP3   OH246125   0.828   2.477   3.232 -0.1853  0.0468  0.4540
 8237TIP3    H146126   0.875   2.554   3.200  0.1634 -0.5656 -0.5721
 8237TIP3    H246127   0.890   2.434   3.291  0.7120 -0.8959 -1.0905
 8238TIP3   OH246128   6.090   0.319   2.238 -0.0762  0.2643  0.2949
 8238TIP3    H146129   6.186   0.311   2.242 -0.1076 -0.9806 -0.7510
 8238TIP3    H246130   6.061   0.292   2.325  0.5910  2.7932  1.3869
 8239TIP3   OH246131   5.870   1.836  15.288  0.3032  0.8334  0.1847
 8239TIP3    H146132   5.881   1.806  15.198  0.8686  0.0591  0.4997
 8239TIP3    H246133   5.877   1.756  15.341  0.7919  1.3806  0.9722
 8240TIP3   OH246134   3.455   1.811  12.380  0.1561  0.3982  0.2109
 8240TIP3    H146135   3.383   1.800  12.318  0.4889  0.2160 -0.1510
 8240TIP3    H246136   3.470   1.722  12.414  0.4937  0.3569 -0.0408
 8241TIP3   OH246137   0.349   3.518  12.767  0.3722  0.0152  0.0857
 8241TIP3    H146138   0.392   3.538  12.850  3.3187 -2.5129 -0.6436
 8241TIP3    H246139   0.380   3.430  12.744 -0.6346  0.4205 -3.4821
 8242TIP3   OH246140   4.989   4.867   5.446 -0.4525  0.0051  0.3303
 8242TIP3    H146141   5.070   4.864   5.394 -0.0197  0.7630  0.9349
 8242TIP3    H246142   5.005   4.808   5.519 -1.1056 -1.1499 -0.4347
 8243TIP3   OH246143   4.730   3.881   4.423 -1.1694  0.1039  0.2225
 8243TIP3    H146144   4.767   3.970   4.418 -0.2786 -0.2571  0.2747
 8243TIP3    H246145   4.719   3.854   4.332  0.3925 -0.4693  0.1817
 8244TIP3   OH246146   5.516   0.529   4.740 -0.3189 -0.2218  0.1972
 8244TIP3    H146147   5.524   0.573   4.656  0.9927 -0.5244  0.1518
 8244TIP3    H246148   5.554   0.443   4.727 -2.2268 -1.1542  0.4824
 8245TIP3   OH246149   1.651   5.085   0.878  0.5056 -0.0125  0.0697
 8245TIP3    H146150   1.571   5.084   0.931  0.3838 -1.2107 -0.1129
 8245TIP3    H246151   1.628   5.036   0.799  2.4210 -3.8204  1.6058
 8246TIP3   OH246152   4.406   6.541  17.054  0.4589  0.0147 -0.1728
 8246TIP3    H146153   4.445   6.628  17.058 -1.4406  0.9159 -0.3146
 8246TIP3    H246154   4.458   6.494  16.989  2.2848  0.6102  0.7965
 8247TIP3   OH246155   4.546   5.616   0.733  0.6619  0.5920 -0.0537
 8247TIP3    H146156   4.505   5.619   0.647  2.5521  1.7503 -0.9677
 8247TIP3    H246157   4.625   5.563   0.721  1.4562  1.5586  0.7032
 8248TIP3   OH246158   4.795   0.684   4.080  0.4182 -0.4084 -0.5819
 8248TIP3    H146159   4.841   0.752   4.130  1.0532 -0.9740 -0.3809
 8248TIP3    H246160   4.703   0.700   4.098  0.6347 -0.8152  1.0984
 8249TIP3   OH246161   6.737   0.081  15.136 -0.8200  0.5979  0.8790
 8249TIP3    H146162   6.716   0.140  15.064  0.9793 -1.1958 -1.3034
 8249TIP3    H246163   6.828   0.101  15.157  0.4327 -2.2876 -1.0901
 8250TIP3   OH246164   3.706   0.890  12.807 -0.3685 -0.7599  0.3111
 8250TIP3    H146165   3.695   0.907  12.713 -0.7307  2.0917  0.7510
 8250TIP3    H246166   3.627   0.927  12.846  1.5748  1.9677  1.9975
 8251TIP3   OH246167   2.891   1.252  12.802  0.3287 -0.0703  0.1991
 8251TIP3    H146168   2.937   1.212  12.728 -1.3102 -0.5178 -0.6090
 8251TIP3    H246169   2.823   1.189  12.825  0.9201 -0.0353  2.2448
 8252TIP3   OH246170   4.021   5.997   0.505 -0.4970  0.0610 -0.6200
 8252TIP3    H146171   4.034   5.915   0.458  1.5534  0.0217 -0.0969
 8252TIP3    H246172   3.985   6.057   0.440 -0.9844 -0.9316 -1.2936
 8253TIP3   OH246173   4.465   0.251   3.047  0.2158 -0.4255  0.2547
 8253TIP3    H146174   4.534   0.246   2.981  1.0856 -0.8142  1.1694
 8253TIP3    H246175   4.462   0.344   3.072  0.3424 -0.3922  0.1464
 8254TIP3   OH246176   6.177   2.186   0.502  0.0554  0.4931 -0.8157
 8254TIP3    H146177   6.171   2.176   0.597 -0.0530 -1.7659 -1.0086
 8254TIP3    H246178   6.268   2.168   0.482  0.0061  0.6356 -1.1707
 8255TIP3   OH246179   0.124   3.255   3.564  0.7038 -0.1065  0.2449
 8255TIP3    H146180   0.144   3.222   3.476 -1.3659 -2.0766  0.3958
 8255TIP3    H246181   0.033   3.227   3.579 -0.9790  4.8156  0.9471
 8256TIP3   OH246182   5.172   3.036   5.648  0.1211 -0.3391 -0.3778
 8256TIP3    H146183   5.202   2.990   5.570 -1.2753 -1.4919 -0.2788
 8256TIP3    H246184   5.210   2.986   5.721 -0.4382 -0.6519 -0.2932
 8257TIP3   OH246185   5.293   3.078  12.725  0.5219  0.5460  0.1422
 8257TIP3    H146186   5.233   3.021  12.678 -1.6396  1.4935  1.5715
 8257TIP3    H246187   5.283   3.163  12.682  1.9208  0.4314 -0.4618
 8258TIP3   OH246188   1.985   0.333  13.429 -0.1706 -0.2171 -0.7400
 8258TIP3    H146189   2.067   0.335  13.379 -0.2367 -0.0444 -0.8425
 8258TIP3    H246190   1.948   0.247  13.411  0.2166 -0.4708 -0.3258
 8259TIP3   OH246191   3.274   5.058  16.286 -0.2367  0.0985 -0.1844
 8259TIP3    H146192   3.351   5.029  16.238 -0.1814 -2.2127  1.1592
 8259TIP3    H246193   3.286   5.153  16.295  2.6897 -0.2143  0.2998
 8260TIP3   OH246194   5.996   6.102   4.689  0.1070 -0.5414  0.1084
 8260TIP3    H146195   5.964   6.186   4.656 -0.8039 -1.2563 -0.8650
 8260TIP3    H246196   6.018   6.120   4.781  3.1896  1.6240 -0.8894
 8261TIP3   OH246197   6.556   3.139   4.871 -0.2186  0.2947  0.1718
 8261TIP3    H146198   6.608   3.131   4.951 -0.0820  0.9751  0.1549
 8261TIP3    H246199   6.486   3.076   4.881  0.6684 -0.7301  0.1575
 8262TIP3   OH246200   0.718   5.524   1.127  0.1200  0.2923  0.4013
 8262TIP3    H146201   0.706   5.435   1.093  1.4750 -0.0225  0.6647
 8262TIP3    H246202   0.736   5.512   1.221  0.3374  0.8379  0.4365
 8263TIP3   OH246203   4.869   4.742  14.341  0.4500  0.0697 -0.0868
 8263TIP3    H146204   4.877   4.764  14.434 -1.5928 -0.6790  0.3122
 8263TIP3    H246205   4.818   4.661  14.340  1.0677 -0.3285 -1.8481
 8264TIP3   OH246206   4.935   3.975  12.366  0.2393  0.4226 -0.6073
 8264TIP3    H146207   4.895   3.890  12.346  0.1100  0.8684 -2.3275
 8264TIP3    H246208   5.028   3.955  12.378 -0.0589 -0.2309  0.9959
 8265TIP3   OH246209   6.712   6.579  15.260  0.1397  0.3300 -0.3074
 8265TIP3    H146210   6.768   6.656  15.259 -1.6907  1.7158 -0.4344
 8265TIP3    H246211   6.664   6.585  15.343  2.0030 -2.2706  1.0919
 8266TIP3   OH246212   5.355   2.637   5.261  0.0632  0.2580 -0.1932
 8266TIP3    H146213   5.293   2.581   5.308  0.6222 -0.5524 -0.3821
 8266TIP3    H246214   5.361   2.716   5.314 -0.3298 -0.0921  0.3871
 8267TIP3   OH246215   6.562   3.063   5.529  0.1933 -0.0928  0.0435
 8267TIP3    H146216   6.637   3.037   5.476 -0.2409 -1.8072  0.2100
 8267TIP3    H246217   6.569   3.010   5.608 -0.4203  0.7642  0.6888
 8268TIP3   OH246218   5.257   4.083  16.846 -0.3269 -0.7701 -0.0154
 8268TIP3    H146219   5.207   4.074  16.765 -1.6538 -1.2974  0.8312
 8268TIP3    H246220   5.339   4.037  16.829 -0.0664  0.1461 -1.4452
 8269TIP3   OH246221   3.562   1.946   3.144 -0.0462  0.2271 -0.1989
 8269TIP3    H146222   3.640   1.948   3.088  1.3348  0.5565  1.6414
 8269TIP3    H246223   3.490   1.926   3.084  1.3847  0.2854 -2.0277
 8270TIP3   OH246224   4.349   6.427   1.303 -0.7221 -0.5153 -0.3622
 8270TIP3    H146225   4.320   6.463   1.219 -0.5430  2.2399  0.6563
 8270TIP3    H246226   4.280   6.366   1.328 -1.3688 -0.4680 -1.9361
 8271TIP3   OH246227   1.367   3.362   6.687 -0.1609 -0.1241  0.3850
 8271TIP3    H146228   1.382   3.455   6.704  1.6657 -0.3272  0.0630
 8271TIP3    H246229   1.339   3.359   6.595 -0.6617  0.1438  0.5292
 8272TIP3   OH246230   5.248   0.299   1.028 -0.1142 -0.1819 -0.0157
 8272TIP3    H146231   5.290   0.284   0.943  0.9822 -1.3633  0.7103
 8272TIP3    H246232   5.280   0.229   1.084 -2.7961 -0.9538  0.7088
 8273TIP3   OH246233   0.547   5.393   5.403 -0.4553  1.1476  0.3221
 8273TIP3    H146234   0.490   5.391   5.480 -0.4611 -0.9684  0.3197
 8273TIP3    H246235   0.635   5.401   5.438 -0.4998  0.7397  0.5349
 8274TIP3   OH246236   5.059   1.630  12.750 -0.3275 -0.0303 -0.0654
 8274TIP3    H146237   5.011   1.674  12.679 -2.3744 -1.4487  0.3405
 8274TIP3    H246238   5.131   1.690  12.771 -2.7470  3.0186  0.2801
 8275TIP3   OH246239   2.154   1.092  11.157  0.0384 -0.1260 -0.2951
 8275TIP3    H146240   2.078   1.047  11.192 -1.1104  1.1261 -1.0942
 8275TIP3    H246241   2.149   1.079  11.063 -0.8773  2.3459 -0.6829
 8276TIP3   OH246242   2.998   3.409  16.092 -0.5872  0.5912  0.1742
 8276TIP3    H146243   2.974   3.501  16.102 -1.2891  0.5769 -1.1299
 8276TIP3    H246244   2.917   3.362  16.110 -0.3105  0.2318  0.5058
 8277TIP3   OH246245   5.131   4.415   0.964  0.2074  0.1111  0.6479
 8277TIP3    H146246   5.167   4.503   0.959 -0.5439  0.4521  1.0297
 8277TIP3    H246247   5.068   4.419   1.036 -1.0092 -0.3043 -0.3670
 8278TIP3   OH246248   1.816   1.758   1.520  0.1466  0.5909  0.4642
 8278TIP3    H146249   1.754   1.787   1.587  0.9993 -0.9513  2.0074
 8278TIP3    H246250   1.890   1.819   1.527  0.0786  0.6500  0.6564
 8279TIP3   OH246251   0.184   4.286  15.145  0.5112  0.2208 -0.1256
 8279TIP3    H146252   0.193   4.352  15.214 -2.9712  0.1924  0.5338
 8279TIP3    H246253   0.192   4.202  15.190 -2.6771  0.1833  0.5696
 8280TIP3   OH246254   0.686   3.984   1.739 -0.1308 -0.7418  0.4082
 8280TIP3    H146255   0.594   3.980   1.764  0.0592 -2.1235  0.9847
 8280TIP3    H246256   0.689   3.941   1.653 -0.1344  0.0309  0.0163
 8281TIP3   OH246257   0.504   0.640   6.502 -0.2327  0.0743  0.1221
 8281TIP3    H146258   0.426   0.648   6.448 -0.9426  1.5237  1.2911
 8281TIP3    H246259   0.472   0.643   6.592  1.0960 -0.1638  0.6342
 8282TIP3   OH246260   0.307   5.561  16.688  0.0183 -0.3528 -0.2201
 8282TIP3    H146261   0.293   5.525  16.600 -2.2682 -0.3424  0.0723
 8282TIP3    H246262   0.331   5.652  16.674 -1.8654  0.0919 -0.8673
 8283TIP3   OH246263   4.428   3.558  10.519 -0.1979  0.0637  0.3385
 8283TIP3    H146264   4.499   3.597  10.570  1.2662 -1.3987 -0.4814
 8283TIP3    H246265   4.406   3.624  10.454  0.0101  0.7618  0.9680
 8284TIP3   OH246266   0.869   1.934  16.097  0.2865 -0.3914  0.4341
 8284TIP3    H146267   0.953   1.892  16.081  0.5597 -0.1960  1.2978
 8284TIP3    H246268   0.888   2.028  16.091  0.0151 -0.3546  0.1079
 8285TIP3   OH246269   4.271   1.598  15.582  0.6450 -0.4128  0.0965
 8285TIP3    H146270   4.263   1.625  15.673  0.2322  0.0493 -0.0745
 8285TIP3    H246271   4.202   1.645  15.536  0.2640 -1.3341 -0.3043
 8286TIP3   OH246272   4.102   5.544  11.476 -0.3319  0.2769 -0.3432
 8286TIP3    H146273   4.013   5.535  11.441 -0.1783 -1.2333 -0.3965
 8286TIP3    H246274   4.112   5.471  11.537  0.5304  1.0250  0.4561
 8287TIP3   OH246275   4.699   3.882   5.397 -0.1006  0.8236  0.1401
 8287TIP3    H146276   4.637   3.867   5.326 -0.0853 -1.5666  0.5485
 8287TIP3    H246277   4.783   3.897   5.352 -0.2109 -0.0187 -0.3605
 8288TIP3   OH246278   5.924   3.729   3.373  0.0597 -0.9377 -0.5647
 8288TIP3    H146279   5.974   3.763   3.299 -0.6219  1.0291 -0.1716
 8288TIP3    H246280   5.833   3.738   3.347 -0.1853 -2.8005 -0.5381
 8289TIP3   OH246281   3.740   6.646  10.493 -0.2449 -0.0024  0.2814
 8289TIP3    H146282   3.770   6.557  10.512 -0.0807  0.3201  1.6243
 8289TIP3    H246283   3.819   6.700  10.501 -0.4749  0.3584  0.1471
 8290TIP3   OH246284   5.272   1.775  13.349 -0.5752 -0.3588 -0.9376
 8290TIP3    H146285   5.275   1.684  13.379 -1.6571 -0.0638  0.1465
 8290TIP3    H246286   5.356   1.788  13.304 -0.6252 -2.0391 -1.6064
 8291TIP3   OH246287   2.413   4.058   0.636 -0.2587 -0.4077 -0.0359
 8291TIP3    H146288   2.507   4.061   0.655 -0.5433 -0.2778  1.4621
 8291TIP3    H246289   2.404   4.105   0.553  0.8465  0.6512  0.4156
 8292TIP3   OH246290   4.555   4.549  16.456 -0.1394  0.0900 -0.1626
 8292TIP3    H146291   4.592   4.625  16.412 -0.9460 -0.6036 -2.1472
 8292TIP3    H246292   4.578   4.561  16.548  1.9354  1.4285 -0.7921
 8293TIP3   OH246293   5.990   4.775  17.035 -0.0722 -0.2506 -0.0166
 8293TIP3    H146294   6.061   4.821  16.992 -0.1040  1.2016  1.3910
 8293TIP3    H246295   5.936   4.742  16.964  0.6198  0.8394 -1.0840
 8294TIP3   OH246296   1.377   2.615   2.897  0.8164 -0.0417 -0.1002
 8294TIP3    H146297   1.407   2.618   2.807  0.7996  1.9356 -0.0949
 8294TIP3    H246298   1.419   2.537   2.934  2.4510  0.2265 -1.2697
 8295TIP3   OH246299   1.319   1.435   1.108 -0.3025 -0.0181 -0.1682
 8295TIP3    H146300   1.304   1.512   1.162  1.3013 -0.1889  0.5723
 8295TIP3    H246301   1.341   1.366   1.170 -2.7477 -1.4293 -0.7152
 8296TIP3   OH246302   3.758   2.979   5.548 -0.2992 -0.0290 -0.4101
 8296TIP3    H146303   3.832   2.950   5.494 -0.2462  0.2950 -0.5141
 8296TIP3    H246304   3.797   3.036   5.614 -0.4397  0.0301 -0.3786
 8297TIP3   OH246305   3.959   5.456   2.764 -0.2076 -0.8326 -0.3884
 8297TIP3    H146306   3.988   5.446   2.855  1.0032 -1.8760 -0.8577
 8297TIP3    H246307   3.875   5.410   2.761  0.2852 -1.7868 -0.0481
 8298TIP3   OH246308   2.242   1.732   6.085  0.3464 -0.4285  0.2677
 8298TIP3    H146309   2.322   1.777   6.110  0.7631 -1.5991  1.1346
 8298TIP3    H246310   2.171   1.788   6.118  0.8301 -0.0688  0.7003
 8299TIP3   OH246311   4.035   2.073   0.284  0.4291 -0.1819 -0.1259
 8299TIP3    H146312   4.031   1.987   0.244 -0.0941 -0.3566  0.2961
 8299TIP3    H246313   4.067   2.130   0.214 -0.9001 -0.3929 -0.9518
 8300TIP3   OH246314   4.458   1.267   5.702  0.0056 -0.1776 -0.0885
 8300TIP3    H146315   4.477   1.206   5.630  0.8101  0.1918 -0.1969
 8300TIP3    H246316   4.544   1.295   5.733 -0.3388 -0.1020  0.8286
 8301TIP3   OH246317   3.725   4.705  14.806 -0.0044  0.1913 -0.4401
 8301TIP3    H146318   3.656   4.684  14.868 -0.3627  0.2951 -0.7983
 8301TIP3    H246319   3.735   4.627  14.753  0.2799  0.1135 -0.2761
 8302TIP3   OH246320   4.081   2.162   0.972 -0.2594 -0.0789 -0.5394
 8302TIP3    H146321   4.092   2.212   0.892 -0.4000  0.8006 -0.0267
 8302TIP3    H246322   4.140   2.203   1.035  0.4752 -1.2816 -0.4035
 8303TIP3   OH246323   0.733   3.796  13.344 -0.5162 -0.5665  0.0765
 8303TIP3    H146324   0.696   3.778  13.430 -1.5848  0.8013 -0.0522
 8303TIP3    H246325   0.694   3.880  13.318  0.8355 -0.2718 -1.1493
 8304TIP3   OH246326   5.246   1.020  11.204 -0.2159  0.3442  0.4917
 8304TIP3    H146327   5.277   0.930  11.203 -1.2189 -0.0297 -1.0811
 8304TIP3    H246328   5.282   1.060  11.125  0.0786  1.2825  1.0767
 8305TIP3   OH246329   1.520   4.141   4.909  0.2924  0.2460  0.0198
 8305TIP3    H146330   1.425   4.136   4.905  0.2229  1.3524 -0.0930
 8305TIP3    H246331   1.541   4.113   4.998 -0.0142 -1.3684 -0.3971
 8306TIP3   OH246332   5.434   3.314  15.965  0.5282 -0.3703  0.0518
 8306TIP3    H146333   5.368   3.382  15.975  0.7015 -0.2147  0.1469
 8306TIP3    H246334   5.389   3.244  15.918  1.0631  0.8343 -2.3849
 8307TIP3   OH246335   4.021   4.892   6.023 -0.1763 -0.3067  0.1651
 8307TIP3    H146336   4.073   4.959   5.980  1.7004  0.2261  2.9968
 8307TIP3    H246337   4.074   4.812   6.017 -1.1196 -0.8927 -0.7603
 8308TIP3   OH246338   5.214   5.364  11.752  0.1529 -0.6515  0.0871
 8308TIP3    H146339   5.178   5.379  11.664  0.4192  0.5600  0.1629
 8308TIP3    H246340   5.307   5.385  11.743 -0.2412  2.0366  1.1852
 8309TIP3   OH246341   2.411   6.674   3.407  0.1188 -0.0244 -0.3701
 8309TIP3    H146342   2.436   6.721   3.328 -0.9935 -0.6251 -1.1153
 8309TIP3    H246343   2.428   6.582   3.386  3.3326  0.0188  1.4678
 8310TIP3   OH246344   6.056   2.151   5.863  0.2321  0.0851  0.0495
 8310TIP3    H146345   6.107   2.128   5.786 -0.7929 -3.7969  0.3188
 8310TIP3    H246346   5.998   2.221   5.833  2.2890  1.1915 -1.5972
 8311TIP3   OH246347   2.612   3.151  11.089 -0.0514 -0.1910 -0.4106
 8311TIP3    H146348   2.620   3.246  11.085  1.4718 -0.3231 -2.6186
 8311TIP3    H246349   2.701   3.120  11.110 -0.1485 -1.1362 -1.2931
 8312TIP3   OH246350   4.324   0.338  15.604 -0.4713 -0.3144 -0.0277
 8312TIP3    H146351   4.332   0.421  15.557  1.5365 -0.2147  0.4160
 8312TIP3    H246352   4.256   0.354  15.670  1.4739  1.7781  1.5883
 8313TIP3   OH246353   4.787   3.533   0.042 -1.2513  0.5444 -0.0692
 8313TIP3    H146354   4.692   3.523   0.049 -1.4555  1.9837 -0.3163
 8313TIP3    H246355   4.809   3.597   0.109 -0.1613 -1.1015  1.2116
 8314TIP3   OH246356   4.886   3.035   3.027  0.7960  0.3456 -0.1520
 8314TIP3    H146357   4.924   3.076   3.105 -2.4215 -0.5404  2.0819
 8314TIP3    H246358   4.873   2.943   3.052 -0.9590  0.2025 -1.4016
 8315TIP3   OH246359   6.022   3.347  17.176  0.2532 -0.1916 -0.1665
 8315TIP3    H146360   6.003   3.254  17.183  1.5820 -0.3426  2.6707
 8315TIP3    H246361   6.030   3.377  17.267  1.7348  2.2776 -1.0122
 8316TIP3   OH246362   5.334   0.815  15.062  0.0230  1.0311 -0.6872
 8316TIP3    H146363   5.325   0.908  15.086 -0.3088  1.5394 -2.5628
 8316TIP3    H246364   5.250   0.776  15.087 -1.2827  2.0774 -3.0459
 8317TIP3   OH246365   6.546   3.106  13.587  0.3566  0.0595  0.2485
 8317TIP3    H146366   6.554   3.102  13.682 -0.0765 -1.2019  0.2502
 8317TIP3    H246367   6.567   3.017  13.558 -0.4020  0.1998 -0.7640
 8318TIP3   OH246368   4.082   5.008   5.193 -0.4058 -0.1784 -0.5433
 8318TIP3    H146369   4.065   4.970   5.107 -1.3996 -3.4043  0.9332
 8318TIP3    H246370   4.045   4.945   5.255  0.3018  1.9805  2.2787
 8319TIP3   OH246371   6.306   1.571  15.953 -0.5965  0.5119  0.1267
 8319TIP3    H146372   6.227   1.597  16.000 -0.2726 -0.5236  1.3067
 8319TIP3    H246373   6.353   1.653  15.937 -0.3318  0.8581  2.3599
 8320TIP3   OH246374   0.435   4.501  14.778 -0.3676 -0.1720 -0.3630
 8320TIP3    H146375   0.358   4.500  14.720 -1.2896  1.5384  0.7482
 8320TIP3    H246376   0.405   4.457  14.857 -0.0415  0.0691 -0.1067
 8321TIP3   OH246377   0.260   4.421   5.772 -0.3240 -0.0284  0.0408
 8321TIP3    H146378   0.299   4.491   5.825 -1.8893  0.3195  0.7873
 8321TIP3    H246379   0.257   4.345   5.830 -0.5418 -0.1114 -0.0774
 8322TIP3   OH246380   1.599   6.193  13.251  0.1204 -0.1052  0.0972
 8322TIP3    H146381   1.679   6.200  13.199  0.3963 -1.2779  0.3488
 8322TIP3    H246382   1.623   6.227  13.337 -0.3386  1.8481 -0.4968
 8323TIP3   OH246383   2.624   5.308  16.551  0.2859 -0.3561 -0.2763
 8323TIP3    H146384   2.586   5.332  16.466 -0.9457  0.0937  0.3758
 8323TIP3    H246385   2.564   5.243  16.587  1.8155 -1.9831 -0.5492
 8324TIP3   OH246386   5.188   6.245  10.566 -0.0581  0.4232  0.3611
 8324TIP3    H146387   5.204   6.154  10.591  0.7685  0.2406 -0.8055
 8324TIP3    H246388   5.115   6.240  10.504 -0.2832  0.6065  0.6075
 8325TIP3   OH246389   6.597   4.957   1.437 -0.0003 -0.1928  0.2066
 8325TIP3    H146390   6.652   4.884   1.467  0.2031  0.2896  1.0218
 8325TIP3    H246391   6.660   5.020   1.401 -0.0271  0.2647  0.9432
 8326TIP3   OH246392   6.464   4.077  14.245  0.0658  0.2328 -0.3536
 8326TIP3    H146393   6.385   4.032  14.275 -0.6040  0.7031 -1.3502
 8326TIP3    H246394   6.486   4.035  14.162  0.0669  1.0000 -0.7555
 8327TIP3   OH246395   6.403   3.984  13.329  0.6378  0.2163  0.3992
 8327TIP3    H146396   6.328   3.939  13.289 -0.7930  1.2298  1.8267
 8327TIP3    H246397   6.465   3.997  13.257 -0.1071 -1.5181 -0.6143
 8328TIP3   OH246398   2.594   6.350  14.297 -0.2798  0.4156 -0.0832
 8328TIP3    H146399   2.534   6.397  14.239 -1.5668 -1.0165  0.0220
 8328TIP3    H246400   2.588   6.398  14.380 -1.2465  0.3433 -0.0962
 8329TIP3   OH246401   6.789   5.617  16.836  0.0433 -0.1732 -0.6651
 8329TIP3    H146402   6.880   5.598  16.857  0.3477 -0.1961 -1.9206
 8329TIP3    H246403   6.747   5.630  16.921  1.5786  1.4878 -0.0946
 8330TIP3   OH246404   0.965   5.482  11.946 -0.1728  0.3186  0.1913
 8330TIP3    H146405   1.008   5.411  11.898  1.2008 -0.8799  2.9492
 8330TIP3    H246406   0.980   5.560  11.893 -0.4630 -1.1873 -2.2195
 8331TIP3   OH246407   1.898   2.105  14.074  0.1938 -0.2345 -0.2319
 8331TIP3    H146408   1.888   2.176  14.010  0.8377  1.0947  1.0588
 8331TIP3    H246409   1.872   2.145  14.158 -1.9046 -2.2939  0.1863
 8332TIP3   OH246410   4.890   3.990   0.362 -0.4137 -0.0187  0.2883
 8332TIP3    H146411   4.961   4.049   0.337 -1.2778  1.1811  0.5497
 8332TIP3    H246412   4.853   4.030   0.441 -1.4266 -0.5705  0.1102
 8333TIP3   OH246413   4.071   5.374  13.687  0.1967  0.1841 -0.3483
 8333TIP3    H146414   4.017   5.295  13.684 -0.2128  0.4341  0.2648
 8333TIP3    H246415   4.160   5.343  13.668 -0.3286 -0.0354 -2.7989
 8334TIP3   OH246416   2.929   3.826   3.305 -0.3431 -0.2233 -0.1649
 8334TIP3    H146417   2.947   3.904   3.253 -2.6273 -0.1788 -0.9979
 8334TIP3    H246418   2.981   3.757   3.263  0.5869  0.5407 -0.2962
 8335TIP3   OH246419   5.895   4.907   3.725 -0.0378  0.4358 -0.0951
 8335TIP3    H146420   5.818   4.886   3.672  0.3698  0.6219 -0.7864
 8335TIP3    H246421   5.860   4.944   3.805 -0.7252 -1.1162  0.3708
 8336TIP3   OH246422   2.258   0.079  13.123 -0.8376 -0.6055 -0.4254
 8336TIP3    H146423   2.176   0.119  13.151 -0.3597  0.4504 -0.4843
 8336TIP3    H246424   2.325   0.146  13.139  0.0599 -1.5508 -0.1122
 8337TIP3   OH246425   0.753   5.859   4.470  0.4373 -0.0463 -0.5973
 8337TIP3    H146426   0.701   5.779   4.476  0.7890 -0.4416 -2.1695
 8337TIP3    H246427   0.798   5.865   4.554 -0.1899 -1.0847 -0.1693
 8338TIP3   OH246428   6.609   6.190   3.914  0.2424  0.6129  0.2216
 8338TIP3    H146429   6.520   6.161   3.891  1.0510 -1.5359 -0.4719
 8338TIP3    H246430   6.640   6.234   3.834  0.1259  0.5712  0.1517
 8339TIP3   OH246431   3.070   5.912   6.325  0.0806  0.4364  0.3822
 8339TIP3    H146432   3.123   5.833   6.315 -1.2789 -0.5148  0.4379
 8339TIP3    H246433   2.980   5.883   6.308 -0.3175  2.2477 -0.8840
 8340TIP3   OH246434   0.247   5.396   2.091  0.3347  0.0364  0.1374
 8340TIP3    H146435   0.270   5.304   2.078  1.1248  0.4743 -1.8164
 8340TIP3    H246436   0.168   5.393   2.146  1.7942 -1.6830  2.3577
 8341TIP3   OH246437   6.608   0.342   1.774  0.1297  0.3308  0.4341
 8341TIP3    H146438   6.620   0.421   1.826  2.0253  0.4235 -0.0685
 8341TIP3    H246439   6.655   0.274   1.823 -1.3134 -0.4877  0.7641
 8342TIP3   OH246440   5.072   5.726   2.779  0.2043 -0.0994 -0.4850
 8342TIP3    H146441   5.088   5.816   2.809  0.7319  0.2330 -1.7287
 8342TIP3    H246442   5.024   5.686   2.852  2.1159  0.4329  1.1594
 8343TIP3   OH246443   0.691   3.675  13.618  0.3327  0.2215 -0.1625
 8343TIP3    H146444   0.615   3.704  13.569 -0.7028  1.7637  2.1865
 8343TIP3    H246445   0.696   3.581  13.600 -0.4264  0.5602 -2.5026
 8344TIP3   OH246446   1.995   1.440  13.723  0.9524  0.3742  0.1383
 8344TIP3    H146447   2.090   1.437  13.731  1.1663 -3.4825 -1.6019
 8344TIP3    H246448   1.978   1.417  13.631 -1.6952 -0.2369  0.6970
 8345TIP3   OH246449   0.035   4.106  13.762  0.4175 -0.3770 -0.4462
 8345TIP3    H146450   0.059   4.060  13.842 -2.8162 -0.4864  0.6232
 8345TIP3    H246451   0.086   4.063  13.693 -0.0151 -3.4147  0.9547
 8346TIP3   OH246452   1.111   6.336  11.538 -0.1851  0.1798 -0.7359
 8346TIP3    H146453   1.149   6.367  11.456 -2.0818  0.7561 -1.4294
 8346TIP3    H246454   1.096   6.416  11.589 -0.5992 -0.0256 -0.5358
 8347TIP3   OH246455   6.613   4.454   4.738 -0.5590 -0.9756 -0.1607
 8347TIP3    H146456   6.655   4.453   4.824  1.3801 -1.4085 -1.0583
 8347TIP3    H246457   6.673   4.406   4.682 -0.3083  1.7270 -2.4190
 8348TIP3   OH246458   5.924   0.917   5.070  0.2267  0.3108  0.6421
 8348TIP3    H146459   5.931   0.853   4.999 -0.0278  0.2619  0.6616
 8348TIP3    H246460   6.004   0.969   5.063 -0.9083  1.9618 -1.2624
 8349TIP3   OH246461   5.423   1.568   0.026 -0.2733  0.2495  0.2975
 8349TIP3    H146462   5.492   1.520   0.071  1.4386  2.6594  0.4535
 8349TIP3    H246463   5.362   1.594   0.095  0.4174  0.8476  0.6981
 8350TIP3   OH246464   3.573   2.207   2.524 -0.4070 -0.0246 -0.1775
 8350TIP3    H146465   3.557   2.183   2.433 -1.6468 -1.3425  0.3395
 8350TIP3    H246466   3.525   2.142   2.574 -1.5650  1.9159  1.3997
 8351TIP3   OH246467   2.108   3.466   1.160  0.1727 -0.2035  0.1160
 8351TIP3    H146468   2.019   3.450   1.189 -0.2056 -2.6133 -1.9638
 8351TIP3    H246469   2.101   3.541   1.101 -0.2830  0.2078  0.6806
 8352TIP3   OH246470   4.480   0.277   3.506  0.2448  0.0952 -0.1541
 8352TIP3    H146471   4.427   0.245   3.433  0.5475  0.1558 -0.4014
 8352TIP3    H246472   4.518   0.359   3.475  0.0420  0.3332  0.2239
 8353TIP3   OH246473   0.659   6.614   4.120  0.0820  0.5868  0.2695
 8353TIP3    H146474   0.655   6.527   4.081 -2.3760 -0.3245  2.2457
 8353TIP3    H246475   0.743   6.617   4.165 -0.5108 -1.5125  1.6174
 8354TIP3   OH246476   0.997   0.542   5.421  0.1814 -0.1818 -0.0665
 8354TIP3    H146477   1.000   0.598   5.498 -0.9470 -1.5823  1.0726
 8354TIP3    H246478   1.055   0.468   5.442  1.1941  0.2295 -1.2894
 8355TIP3   OH246479   4.511   2.846  16.153  0.2983 -0.0801  0.2790
 8355TIP3    H146480   4.594   2.894  16.162 -0.4204  1.1725  0.4491
 8355TIP3    H246481   4.528   2.783  16.082  1.3983  0.1253  0.3318
 8356TIP3   OH246482   2.010   0.566   4.251  0.6661 -0.1062 -0.5516
 8356TIP3    H146483   1.919   0.537   4.262  0.3737  1.1602  0.8128
 8356TIP3    H246484   2.063   0.498   4.293  0.2361 -0.2061 -0.1623
 8357TIP3   OH246485   3.492   4.390  14.712  0.3037 -0.4426 -0.5248
 8357TIP3    H146486   3.466   4.322  14.650 -1.9137 -1.0624  0.9753
 8357TIP3    H246487   3.522   4.343  14.789 -0.9932  0.2177  0.4228
 8358TIP3   OH246488   5.522   5.797   1.612  0.0340  0.7194 -0.4070
 8358TIP3    H146489   5.454   5.765   1.672  1.1085  1.6885  1.4046
 8358TIP3    H246490   5.529   5.729   1.545  0.9022 -1.9288  2.2057
 8359TIP3   OH246491   1.961   0.364   6.624  0.3779  0.6168  0.9507
 8359TIP3    H146492   2.039   0.415   6.599  1.1250 -1.0151 -0.2211
 8359TIP3    H246493   1.910   0.358   6.544  1.3049 -2.1328  0.4842
 8360TIP3   OH246494   0.994   4.616  13.339  0.4080 -0.4023 -0.1206
 8360TIP3    H146495   0.907   4.578  13.332 -0.1659  0.8251  0.0922
 8360TIP3    H246496   1.053   4.546  13.313 -0.5436 -1.6938  1.0503
 8361TIP3   OH246497   4.841   1.204   0.654  0.3763  0.3267  0.5702
 8361TIP3    H146498   4.791   1.224   0.575 -0.2635 -1.5182  0.4463
 8361TIP3    H246499   4.812   1.268   0.719 -2.0355 -0.5324  0.4348
 8362TIP3   OH246500   1.567   5.830  15.058  0.8046 -0.0221  0.1344
 8362TIP3    H146501   1.614   5.754  15.024  0.9743 -0.1964  0.7535
 8362TIP3    H246502   1.506   5.853  14.988  1.5017 -0.0625 -0.4945
 8363TIP3   OH246503   1.449   6.355  12.483  0.2767  0.7466 -0.3509
 8363TIP3    H146504   1.398   6.436  12.488 -0.8059  0.1363 -0.9889
 8363TIP3    H246505   1.435   6.323  12.393  0.7073 -0.1295 -0.1227
 8364TIP3   OH246506   5.411   5.784  14.448  0.1363  0.4548  0.0347
 8364TIP3    H146507   5.463   5.824  14.518  0.1119  2.2895 -0.9342
 8364TIP3    H246508   5.460   5.803  14.369  0.4102 -2.0088 -0.4546
 8365TIP3   OH246509   1.939   2.266   4.610  0.1330  0.4278  0.0561
 8365TIP3    H146510   2.018   2.217   4.588  0.3551  0.5607  0.5411
 8365TIP3    H246511   1.884   2.259   4.532  0.6372  0.3705 -0.2984
 8366TIP3   OH246512   4.762   4.915  11.164  0.1959  0.2648  0.3209
 8366TIP3    H146513   4.729   4.912  11.074  0.6220 -0.1098  0.1772
 8366TIP3    H246514   4.857   4.919  11.155  0.2240  0.6683  0.7487
 8367TIP3   OH246515   4.265   0.197   3.248 -0.0833 -0.1966  0.4596
 8367TIP3    H146516   4.238   0.286   3.267  2.2057  0.0507  3.1676
 8367TIP3    H246517   4.329   0.206   3.177 -0.2456  0.2520  0.3712
 8368TIP3   OH246518   0.328   3.466  11.555 -0.1317  0.3407 -0.2169
 8368TIP3    H146519   0.273   3.538  11.523 -1.1297  0.1758  1.0351
 8368TIP3    H246520   0.271   3.418  11.614  0.5800 -1.3948 -0.8891
 8369TIP3   OH246521   3.091   4.842   5.311 -0.4351  0.3946  0.0898
 8369TIP3    H146522   3.097   4.874   5.401 -0.9487  2.7967 -0.6424
 8369TIP3    H246523   3.166   4.882   5.267 -1.3319  0.9648 -0.9687
 8370TIP3   OH246524   0.127   1.348   2.353  0.5639  0.4677  0.2096
 8370TIP3    H146525   0.218   1.324   2.371  0.3173 -0.2207  0.5728
 8370TIP3    H246526   0.079   1.316   2.429 -0.1099  0.0413 -0.3858
 8371TIP3   OH246527   2.939   5.701  16.764 -0.3826  0.0903 -0.2677
 8371TIP3    H146528   2.858   5.748  16.784 -0.0217  0.9736 -0.8281
 8371TIP3    H246529   3.003   5.770  16.747  0.8397 -0.5592  1.4601
 8372TIP3   OH246530   4.425   4.934   1.690 -0.0030 -1.1021  0.1289
 8372TIP3    H146531   4.340   4.924   1.732  0.1517  1.4596  1.2333
 8372TIP3    H246532   4.407   4.986   1.611  0.5305 -0.5062  0.3918
 8373TIP3   OH246533   0.728   1.664  15.620  0.4482  0.0286  0.1756
 8373TIP3    H146534   0.739   1.759  15.626  0.1097  0.2265 -1.5584
 8373TIP3    H246535   0.669   1.642  15.692  2.3820  0.7452  2.0479
 8374TIP3   OH246536   1.165   6.158   1.716  0.6339 -0.5356 -0.0887
 8374TIP3    H146537   1.167   6.095   1.788 -0.2166  0.4253  0.8112
 8374TIP3    H246538   1.254   6.194   1.714  0.2083  0.7784  1.7662
 8375TIP3   OH246539   3.361   2.679  11.912  0.0015  0.4362  0.1707
 8375TIP3    H146540   3.351   2.689  11.817  2.4191 -0.1485 -0.2358
 8375TIP3    H246541   3.383   2.766  11.943  1.5780  0.2212 -0.2376
 8376TIP3   OH246542   1.418   0.831  12.466  0.5835 -0.4075  0.2161
 8376TIP3    H146543   1.376   0.914  12.442  1.4493 -0.1806 -0.5612
 8376TIP3    H246544   1.497   0.858  12.514  0.5775 -0.7995  0.4490
 8377TIP3   OH246545   4.939   2.532   1.187  0.5094 -0.1797 -0.3705
 8377TIP3    H146546   4.902   2.467   1.127 -0.0154 -0.0179 -0.2297
 8377TIP3    H246547   4.916   2.499   1.275  1.5577 -0.5898 -0.2339
 8378TIP3   OH246548   5.935   4.513  16.038 -0.2996 -0.5955 -0.8106
 8378TIP3    H146549   5.912   4.597  16.076  1.3772 -0.6644  0.4851
 8378TIP3    H246550   5.852   4.467  16.027 -1.2628  1.2894 -1.7675
 8379TIP3   OH246551   4.124   6.397   6.065  0.1147  0.0740  0.2982
 8379TIP3    H146552   4.213   6.372   6.040 -0.1709  0.2696 -0.9783
 8379TIP3    H246553   4.134   6.484   6.105  0.5458 -0.0812  0.5342
 8380TIP3   OH246554   5.839   2.637   2.880 -0.4590 -0.0381  0.1953
 8380TIP3    H146555   5.764   2.694   2.860  0.8456  0.7361 -3.0253
 8380TIP3    H246556   5.913   2.697   2.888  0.3730 -1.0441  0.1770
 8381TIP3   OH246557   6.423   4.934  13.947 -0.3401 -0.2963  0.1787
 8381TIP3    H146558   6.444   4.841  13.951 -1.4064 -0.5040  2.6835
 8381TIP3    H246559   6.341   4.938  13.898  0.0235 -0.5994 -0.4612
 8382TIP3   OH246560   0.399   2.070  13.281  0.7362 -0.4329 -0.3349
 8382TIP3    H146561   0.378   2.102  13.193 -3.3181 -0.2482  0.5089
 8382TIP3    H246562   0.404   2.150  13.334 -2.9970 -0.6479  0.5874
 8383TIP3   OH246563   3.018   0.459   6.285  0.2669 -0.4928 -1.1266
 8383TIP3    H146564   3.091   0.452   6.346  1.0471 -1.4908 -2.1273
 8383TIP3    H246565   3.034   0.541   6.238 -0.7920  0.7122  0.5269
 8384TIP3   OH246566   4.317   2.408   0.108 -0.4878  0.2834 -0.1271
 8384TIP3    H146567   4.393   2.431   0.161  2.2184 -1.7947 -2.7264
 8384TIP3    H246568   4.321   2.468   0.034  0.6673 -1.7787 -1.8670
 8385TIP3   OH246569   5.118   0.695   2.020  0.5226 -0.1444 -0.3958
 8385TIP3    H146570   5.144   0.785   2.001 -0.4413  0.0093 -1.0595
 8385TIP3    H246571   5.023   0.695   2.012  0.5392 -1.3052 -0.7705
 8386TIP3   OH246572   2.265   0.376  13.927 -0.2639 -0.3697 -0.1087
 8386TIP3    H146573   2.329   0.417  13.869 -0.5936 -1.3809 -1.2300
 8386TIP3    H246574   2.308   0.298  13.960  0.7450  1.2738  2.8464
 8387TIP3   OH246575   1.327   3.592  15.214  0.3334 -0.8992  0.4791
 8387TIP3    H146576   1.347   3.607  15.122 -0.2026 -0.0849  0.4833
 8387TIP3    H246577   1.242   3.547  15.213 -0.1667  0.0160  0.5909
 8388TIP3   OH246578   0.495   5.608  11.502  0.8395  0.3210  0.0463
 8388TIP3    H146579   0.409   5.633  11.537  0.8658 -0.0690  0.4033
 8388TIP3    H246580   0.506   5.662  11.424 -0.5363 -0.9355 -1.0618
 8389TIP3   OH246581   2.198   5.962   0.786  0.1102  0.2680 -0.0104
 8389TIP3    H146582   2.158   5.875   0.784 -0.0110  0.3207 -2.6871
 8389TIP3    H246583   2.150   6.008   0.855 -1.3991 -1.0714 -0.1099
 8390TIP3   OH246584   5.549   2.694   3.571 -0.3819 -0.4811  0.4041
 8390TIP3    H146585   5.559   2.600   3.582  1.2473 -0.1679  2.0979
 8390TIP3    H246586   5.558   2.730   3.659  0.1252  1.3364 -0.3394
 8391TIP3   OH246587   2.771   1.773  11.751  0.2465  0.3417 -0.4542
 8391TIP3    H146588   2.746   1.839  11.816  0.0052  1.2263 -1.4269
 8391TIP3    H246589   2.694   1.716  11.745  0.8657 -0.7505  1.2230
 8392TIP3   OH246590   0.591   5.486  16.475  0.4803 -0.1109  0.0394
 8392TIP3    H146591   0.603   5.571  16.433  0.2731 -1.2208 -2.4521
 8392TIP3    H246592   0.643   5.426  16.422 -0.6334 -1.7944  0.7726
 8393TIP3   OH246593   2.055   0.573   3.040  0.3486  0.0296  0.0399
 8393TIP3    H146594   2.068   0.660   3.002  3.1172  0.0860  0.8640
 8393TIP3    H246595   2.098   0.578   3.126 -0.1904 -1.9104  0.4690
 8394TIP3   OH246596   3.775   4.086  12.401  0.0086 -0.0350  0.0111
 8394TIP3    H146597   3.821   4.071  12.318  0.7916  1.8877  0.0381
 8394TIP3    H246598   3.846   4.092  12.466 -0.6152 -1.9470  0.9481
 8395TIP3   OH246599   3.157   4.023  14.888 -0.1664 -0.1612 -0.3104
 8395TIP3    H146600   3.089   3.956  14.903  0.2777 -0.3960  0.7280
 8395TIP3    H246601   3.239   3.975  14.896  0.1443  0.0925 -1.7376
 8396TIP3   OH246602   0.083   1.733  12.020 -0.4760  0.1636  0.2889
 8396TIP3    H146603  -0.011   1.755  12.024 -1.2877 -2.2655 -2.3642
 8396TIP3    H246604   0.110   1.759  11.932  1.3634  0.6554  0.9502
 8397TIP3   OH246605   4.354   2.981   2.168  0.0835 -0.4263  0.0960
 8397TIP3    H146606   4.259   2.989   2.157  0.1373  0.6171  0.3157
 8397TIP3    H246607   4.389   3.065   2.138  1.0919 -1.3490 -1.4609
 8398TIP3   OH246608   1.932   0.657   1.532  0.2138 -0.4518  0.6684
 8398TIP3    H146609   1.836   0.653   1.536  0.1362  1.2252  1.1289
 8398TIP3    H246610   1.961   0.584   1.587 -0.8129 -0.6148  1.0134
 8399TIP3   OH246611   4.082   0.901  12.444  0.2900 -0.5949 -0.2069
 8399TIP3    H146612   4.105   0.990  12.417  0.8918 -0.3435  1.0895
 8399TIP3    H246613   4.045   0.910  12.531  1.0554 -1.6851  0.2603
 8400TIP3   OH246614   4.401   1.567  13.596  0.3357  0.3858 -0.2046
 8400TIP3    H146615   4.388   1.652  13.554 -1.2554  1.1147  1.6065
 8400TIP3    H246616   4.483   1.577  13.645 -0.4917  1.3670  1.0308
 8401TIP3   OH246617   2.997   0.259  13.664 -0.2091  0.1274 -0.6056
 8401TIP3    H146618   2.904   0.248  13.645 -0.2827 -0.2437 -0.0527
 8401TIP3    H246619   3.016   0.351  13.641 -0.2978 -0.2663 -2.3759
 8402TIP3   OH246620   0.317   4.151  14.722 -0.2847  0.3355  0.5008
 8402TIP3    H146621   0.233   4.142  14.766 -1.0914  0.8524 -0.8726
 8402TIP3    H246622   0.334   4.064  14.684  0.5079 -0.1663  1.9451
 8403TIP3   OH246623   4.483   0.009  17.070 -0.1199  0.2831  0.5434
 8403TIP3    H146624   4.570   0.040  17.097  0.5433 -2.1277  1.4740
 8403TIP3    H246625   4.424   0.041  17.139 -0.0370  2.0129 -0.1384
 8404TIP3   OH246626   5.381   3.213   5.116  0.1698  0.1632  0.0409
 8404TIP3    H146627   5.314   3.197   5.049  0.5061  0.5546 -0.3936
 8404TIP3    H246628   5.462   3.183   5.076  0.4838  1.0414 -0.0051
 8405TIP3   OH246629   1.465   1.483  16.619 -0.3844  0.0125  0.0416
 8405TIP3    H146630   1.480   1.462  16.527  2.7799 -0.8963  0.6530
 8405TIP3    H246631   1.378   1.447  16.637 -0.0825 -1.9973 -2.0105
 8406TIP3   OH246632   1.881   4.287   1.850  0.4165  0.2654  0.8900
 8406TIP3    H146633   1.904   4.196   1.830  0.7937  0.2707  1.2855
 8406TIP3    H246634   1.844   4.321   1.768 -1.8761 -0.9092  1.3317
 8407TIP3   OH246635   3.175   3.759   0.834 -1.0000 -0.5178  0.3573
 8407TIP3    H146636   3.258   3.802   0.813 -1.0166 -1.0701 -0.9320
 8407TIP3    H246637   3.170   3.763   0.929 -1.0131  2.3453  0.3423
 8408TIP3   OH246638   3.027   6.309  11.902  0.1102 -0.6719 -0.2112
 8408TIP3    H146639   2.940   6.303  11.943  0.2627 -0.4593  0.1490
 8408TIP3    H246640   3.086   6.270  11.967  0.2392 -1.1478 -0.6104
 8409TIP3   OH246641   5.693   4.758  12.376 -0.3291  0.1977 -0.2690
 8409TIP3    H146642   5.623   4.770  12.441  0.1678 -0.0680  0.3359
 8409TIP3    H246643   5.650   4.770  12.292 -1.4171 -1.3155  0.0220
 8410TIP3   OH246644   0.371   2.232   5.543 -0.0493 -0.3975 -0.7094
 8410TIP3    H146645   0.383   2.316   5.588 -0.4211 -0.3958 -0.6137
 8410TIP3    H246646   0.278   2.213   5.553 -0.1599 -0.3392 -1.5820
 8411TIP3   OH246647   0.676   1.776  15.960  0.0769 -0.1278 -0.4712
 8411TIP3    H146648   0.730   1.841  16.006  1.1994  0.4528 -2.5094
 8411TIP3    H246649   0.738   1.728  15.904 -0.8590 -2.4220  0.3081
 8412TIP3   OH246650   6.344   4.441  15.857  0.2763  0.3839  0.2477
 8412TIP3    H146651   6.413   4.507  15.855  1.4480 -0.7702 -2.5526
 8412TIP3    H246652   6.365   4.382  15.785 -2.1451 -1.6088  1.0212
 8413TIP3   OH246653   2.352   5.241  15.381 -0.1754 -0.7840 -0.4789
 8413TIP3    H146654   2.308   5.220  15.464  0.0048 -1.4993 -0.5534
 8413TIP3    H246655   2.285   5.286  15.329  0.0157  0.6072  0.4334
 8414TIP3   OH246656   5.740   0.898   7.044  0.7969  0.4270  0.0216
 8414TIP3    H146657   5.712   0.989   7.047 -0.5300  0.2352 -2.8971
 8414TIP3    H246658   5.818   0.899   6.989  1.1954 -0.1429  0.5646
 8415TIP3   OH246659   2.062   5.602  12.514 -0.2502  0.6995  0.1314
 8415TIP3    H146660   1.993   5.537  12.507  0.5736 -0.0629 -1.3819
 8415TIP3    H246661   2.143   5.551  12.521  0.4813  1.4936 -1.7979
 8416TIP3   OH246662   4.836   2.141   0.451 -0.0222 -0.2400 -0.1495
 8416TIP3    H146663   4.820   2.121   0.543  0.1360  1.6403  0.3211
 8416TIP3    H246664   4.931   2.154   0.445 -0.2096  1.2345 -0.2111
 8417TIP3   OH246665   3.638   2.632   4.883  0.5645  0.7494  0.4048
 8417TIP3    H146666   3.571   2.606   4.947 -1.4561 -0.7336 -2.1364
 8417TIP3    H246667   3.621   2.724   4.867 -0.2862  0.6236  0.5138
 8418TIP3   OH246668   5.432   0.744  14.247 -0.5965 -0.7314 -0.1611
 8418TIP3    H146669   5.417   0.818  14.306  0.5232 -1.0799  0.6043
 8418TIP3    H246670   5.346   0.723  14.212 -1.3112 -0.5054  1.3633
 8419TIP3   OH246671   4.431   2.306   0.814 -0.4953 -0.2715  0.3759
 8419TIP3    H146672   4.400   2.254   0.739  1.3434 -0.4504 -0.3184
 8419TIP3    H246673   4.385   2.389   0.805  1.2336  0.5366 -2.2817
 8420TIP3   OH246674   1.389   4.883  12.268  0.4541  0.4278 -0.5435
 8420TIP3    H146675   1.337   4.943  12.322 -1.7734 -1.2961 -0.6248
 8420TIP3    H246676   1.386   4.800  12.315  2.4807  0.0208 -1.0259
 8421TIP3   OH246677   2.362   3.282  10.789  0.2179  0.0798  0.8551
 8421TIP3    H146678   2.436   3.302  10.731  0.1749  0.5626  0.9625
 8421TIP3    H246679   2.323   3.368  10.808  0.4470 -0.0338  1.8817
 8422TIP3   OH246680   3.744   4.727   4.420 -0.1910 -0.5236 -0.2587
 8422TIP3    H146681   3.829   4.771   4.420  0.3441 -1.5135 -1.4273
 8422TIP3    H246682   3.727   4.708   4.328 -1.1369 -1.3697  0.0814
 8423TIP3   OH246683   3.845   6.459  11.445 -0.5391  0.0222 -0.3298
 8423TIP3    H146684   3.762   6.447  11.490  1.0092  0.1469  2.8257
 8423TIP3    H246685   3.900   6.507  11.507  1.6045  0.8496 -2.6700
 8424TIP3   OH246686   3.000   4.727   4.919  0.0097 -0.0967 -0.4637
 8424TIP3    H146687   2.975   4.732   4.827  0.5172  0.6660 -0.5734
 8424TIP3    H246688   3.096   4.724   4.918  0.0017 -1.5350 -0.0019
 8425TIP3   OH246689   6.266   1.500   4.569 -0.7653 -0.3169 -0.2238
 8425TIP3    H146690   6.308   1.416   4.556 -0.3570 -0.0664 -0.5259
 8425TIP3    H246691   6.184   1.494   4.519 -0.6751 -0.4867 -0.3516
 8426TIP3   OH246692   5.979   1.155  11.898 -0.7499 -0.4366  0.0782
 8426TIP3    H146693   5.953   1.216  11.968  2.1346  2.1060 -0.8454
 8426TIP3    H246694   5.990   1.211  11.821  1.4371 -2.2160 -0.9993
 8427TIP3   OH246695   3.464   6.419   4.357 -0.2643  0.2158  0.3221
 8427TIP3    H146696   3.373   6.429   4.382  0.2761 -0.5211  2.9138
 8427TIP3    H246697   3.479   6.487   4.291 -2.7214  0.1158 -0.4410
 8428TIP3   OH246698   6.617   2.844  11.999 -0.0200  0.0734 -0.8269
 8428TIP3    H146699   6.602   2.761  11.955 -1.9823  0.3662 -0.7709
 8428TIP3    H246700   6.570   2.836  12.082  2.4419  0.0558  0.6820
 8429TIP3   OH246701   5.761   0.447  13.928 -0.4085  0.0062  0.0206
 8429TIP3    H146702   5.702   0.515  13.896 -0.3497  0.1216  0.1534
 8429TIP3    H246703   5.849   0.480  13.907 -0.2378  1.0804  2.1275
 8430TIP3   OH246704   3.262   5.987   5.161 -0.5695  0.0024  0.2020
 8430TIP3    H146705   3.253   5.894   5.142  1.3893 -0.3795  0.9325
 8430TIP3    H246706   3.214   6.000   5.243  0.3738 -0.7212  0.9039
 8431TIP3   OH246707   1.360   5.511  12.676 -0.6532  0.6504  0.5473
 8431TIP3    H146708   1.352   5.573  12.749 -0.9111  0.4723  0.6681
 8431TIP3    H246709   1.357   5.567  12.598  1.3346  1.0424  0.6845
 8432TIP3   OH246710   5.852   1.273   1.866  0.2468 -0.2178  0.2359
 8432TIP3    H146711   5.868   1.337   1.936  1.0284 -2.5037  2.3047
 8432TIP3    H246712   5.757   1.272   1.855 -0.0266 -0.6763  2.2403
 8433TIP3   OH246713   0.525   5.834   2.128 -0.0272 -0.0921  0.1134
 8433TIP3    H146714   0.454   5.810   2.187  0.8374 -1.2338  0.7609
 8433TIP3    H246715   0.561   5.750   2.099  0.6420  0.4544 -0.6994
 8434TIP3   OH246716   3.983   4.617  14.853 -0.2093 -0.2269  0.0967
 8434TIP3    H146717   3.923   4.667  14.798  0.1953  0.9894  0.7159
 8434TIP3    H246718   4.060   4.604  14.798 -0.6074 -0.8322 -0.3242
 8435TIP3   OH246719   0.505   1.909  11.546  0.3606 -0.4309  0.3249
 8435TIP3    H146720   0.473   1.996  11.571 -0.8675 -0.9472  0.6220
 8435TIP3    H246721   0.600   1.916  11.549  0.2892  1.0501 -0.1663
 8436TIP3   OH246722   5.346   1.017  14.094  0.4914  0.0468  0.8548
 8436TIP3    H146723   5.383   0.936  14.060 -0.4565  0.3603 -1.0621
 8436TIP3    H246724   5.257   0.994  14.119  1.1100 -0.1411  3.1649
 8437TIP3   OH246725   1.144   3.836  15.771 -0.1552  0.1235 -0.5408
 8437TIP3    H146726   1.234   3.838  15.739  0.3262  0.1646  0.7325
 8437TIP3    H246727   1.090   3.853  15.694  0.9971  1.8314 -1.0330
 8438TIP3   OH246728   2.071   2.784   0.532  0.3782 -0.5755  0.1654
 8438TIP3    H146729   2.131   2.815   0.464 -1.1793  1.8418 -0.2311
 8438TIP3    H246730   1.988   2.770   0.487 -0.2775 -0.4341  1.2954
 8439TIP3   OH246731   1.396   4.641   0.251  0.1123  0.0667  0.7443
 8439TIP3    H146732   1.313   4.627   0.206 -0.6005  3.2782  0.8609
 8439TIP3    H246733   1.445   4.700   0.194  0.0818  2.4609  3.0098
 8440TIP3   OH246734   0.115   2.929  14.785  0.5910 -0.0766  0.3754
 8440TIP3    H146735   0.128   2.853  14.841  2.3978 -0.2229 -0.1979
 8440TIP3    H246736   0.121   3.004  14.844 -1.2022 -0.3308  0.9440
 8441TIP3   OH246737   0.931   6.280   2.155  1.1836  0.2365  0.2135
 8441TIP3    H146738   0.972   6.283   2.069  1.1710 -2.7789  0.0101
 8441TIP3    H246739   0.838   6.271   2.137  1.0774  0.5786  0.5738
 8442TIP3   OH246740   4.962   0.004   5.565  0.0103 -0.1559  0.4176
 8442TIP3    H146741   4.940  -0.054   5.492 -1.8060 -0.8475  1.4571
 8442TIP3    H246742   4.926   0.089   5.540 -1.2235 -0.5597  0.7869
 8443TIP3   OH246743   5.545   0.438   1.448  0.7743 -0.0293 -0.0751
 8443TIP3    H146744   5.572   0.519   1.492 -1.0896  0.7601 -0.2909
 8443TIP3    H246745   5.523   0.379   1.520  0.6039  0.2159  0.0787
 8444TIP3   OH246746   2.662   0.817   4.397 -0.6878 -0.4098  0.1082
 8444TIP3    H146747   2.570   0.826   4.373 -0.3167  1.8329 -0.6588
 8444TIP3    H246748   2.662   0.751   4.467 -2.8010 -0.7308 -0.1366
 8445TIP3   OH246749   3.396   2.481   1.957  0.5967 -0.2493 -0.3469
 8445TIP3    H146750   3.446   2.516   1.884  0.1772  2.0465  0.3946
 8445TIP3    H246751   3.414   2.541   2.030  1.0748 -2.4865  1.4937
 8446TIP3   OH246752   5.173   2.894  11.449 -0.2159 -0.6234 -0.0434
 8446TIP3    H146753   5.092   2.846  11.430 -0.8909 -0.5584  2.2810
 8446TIP3    H246754   5.145   2.983  11.469  0.2228 -0.8917  2.0013
 8447TIP3   OH246755   1.133   3.554   4.455  0.0124  0.3327  0.1943
 8447TIP3    H146756   1.111   3.462   4.447  0.2487  0.3384 -0.6114
 8447TIP3    H246757   1.104   3.578   4.543 -0.1004 -0.4891  0.3886
 8448TIP3   OH246758   4.225   2.833   0.436 -0.4456 -0.2407  0.5071
 8448TIP3    H146759   4.272   2.782   0.503  1.5402 -0.3338 -0.8463
 8448TIP3    H246760   4.263   2.921   0.442 -1.4351  0.1882  0.5930
 8449TIP3   OH246761   6.438   2.473   1.703  0.5524 -0.3586  0.4199
 8449TIP3    H146762   6.491   2.461   1.625  1.8304 -2.7138  1.5469
 8449TIP3    H246763   6.495   2.520   1.764 -0.5513  1.7773 -0.0730
 8450TIP3   OH246764   6.000   2.901  11.393  0.4842 -0.2932  0.1718
 8450TIP3    H146765   6.043   2.818  11.413 -1.9748 -1.1755  2.4380
 8450TIP3    H246766   5.921   2.876  11.344 -0.3934  0.6327  1.0547
 8451TIP3   OH246767   5.621   5.257  10.801 -0.0408  0.3919  0.1306
 8451TIP3    H146768   5.533   5.268  10.837 -1.0286 -1.8717 -1.3117
 8451TIP3    H246769   5.638   5.163  10.807  1.7360  0.5887 -0.8475
 8452TIP3   OH246770   5.348   0.387   6.035  0.2490 -0.1101 -0.0209
 8452TIP3    H146771   5.348   0.482   6.045  0.9931  0.0440 -1.2214
 8452TIP3    H246772   5.436   0.360   6.060 -0.0979 -0.5484  0.7573
 8453TIP3   OH246773   0.412   0.491   0.026 -0.2868  0.5760 -0.8931
 8453TIP3    H146774   0.426   0.399   0.003 -0.1336  0.4602 -0.3419
 8453TIP3    H246775   0.458   0.503   0.109 -1.2038  0.8714 -0.4139
 8454TIP3   OH246776   4.685   5.705  12.542  0.2378  0.0736 -0.1040
 8454TIP3    H146777   4.609   5.763  12.531  0.1315 -0.0405  0.0319
 8454TIP3    H246778   4.668   5.633  12.481  0.1574 -0.0340  0.0448
 8455TIP3   OH246779   4.837   3.499   4.581 -0.3124 -0.0600  0.1015
 8455TIP3    H146780   4.763   3.560   4.582  0.1250  0.4845 -0.3384
 8455TIP3    H246781   4.894   3.528   4.652  0.8302  1.2470 -1.2730
 8456TIP3   OH246782   0.253   6.609   1.614 -0.0342 -0.3405  0.6035
 8456TIP3    H146783   0.166   6.577   1.589 -0.0392 -0.6208  0.9776
 8456TIP3    H246784   0.312   6.569   1.551 -0.2942  0.7425 -0.3578
 8457TIP3   OH246785   4.614   1.686  15.817 -0.6989 -0.4169  0.1415
 8457TIP3    H146786   4.571   1.746  15.756 -0.3659 -0.0001  0.3079
 8457TIP3    H246787   4.626   1.605  15.767  0.6641  0.3014 -0.7649
 8458TIP3   OH246788   2.847   0.223   0.614 -0.1556 -0.6492 -0.0673
 8458TIP3    H146789   2.765   0.270   0.631  0.8946  1.0444  0.5775
 8458TIP3    H246790   2.858   0.228   0.519 -0.3755 -0.1095 -0.0688
 8459TIP3   OH246791   2.091   3.638   0.939 -0.4697  0.3396 -0.1734
 8459TIP3    H146792   2.100   3.563   0.880 -1.1423 -0.5919  0.8860
 8459TIP3    H246793   2.153   3.703   0.904 -0.4339 -0.4069 -1.5489
 8460TIP3   OH246794   4.336   0.669  16.430  0.0109  0.2843  0.0654
 8460TIP3    H146795   4.341   0.602  16.362 -0.2800  0.6101 -0.2807
 8460TIP3    H246796   4.353   0.622  16.511 -1.7740 -0.5274  0.0218
 8461TIP3   OH246797   0.322   5.583  12.762  0.1578 -0.8515 -0.4144
 8461TIP3    H146798   0.320   5.579  12.666  0.5561  0.6647 -0.5159
 8461TIP3    H246799   0.386   5.518  12.787 -0.4159 -1.7231 -1.1299
 8462TIP3   OH246800   0.792   4.225  10.556  0.0937 -0.4282 -0.1719
 8462TIP3    H146801   0.818   4.147  10.606 -0.5601 -1.4741 -1.4127
 8462TIP3    H246802   0.875   4.265  10.530  0.4508  0.0856  1.6058
 8463TIP3   OH246803   3.430   6.522   1.764  0.8525  0.2803  0.0508
 8463TIP3    H146804   3.347   6.564   1.743 -0.2097 -1.4035  0.6590
 8463TIP3    H246805   3.456   6.479   1.682  0.4226 -0.2732  0.1926
 8464TIP3   OH246806   6.788   0.286   0.322  1.0369  0.0368  0.3471
 8464TIP3    H146807   6.876   0.269   0.288  1.1163  0.0789  0.5270
 8464TIP3    H246808   6.780   0.381   0.320  0.8783  0.0145  0.0409
 8465TIP3   OH246809   5.131   1.170  14.452 -0.0683 -0.7029  0.0591
 8465TIP3    H146810   5.178   1.089  14.431 -0.9181 -1.3449  0.5896
 8465TIP3    H246811   5.173   1.201  14.532  0.9546 -0.0343 -0.7035
 8466TIP3   OH246812   3.856   0.921  16.341 -0.3488  0.0307 -0.0603
 8466TIP3    H146813   3.887   0.873  16.264  2.2369  1.5291 -0.0588
 8466TIP3    H246814   3.879   0.865  16.415  0.0235 -0.0255 -0.2177
 8467TIP3   OH246815   4.601   5.806   0.033 -0.0584 -0.3630  0.4745
 8467TIP3    H146816   4.612   5.865  -0.042 -0.2123  0.6793  1.2505
 8467TIP3    H246817   4.681   5.754   0.035 -0.8339 -1.8155 -1.5709
 8468TIP3   OH246818   5.061   0.321  13.346 -0.1623  0.4822 -0.1283
 8468TIP3    H146819   5.128   0.335  13.413 -0.1493 -1.0740  0.2279
 8468TIP3    H246820   4.990   0.278  13.393 -1.8306  2.8567 -0.3065
 8469TIP3   OH246821   5.541   3.619  15.041  0.0363 -0.3559  0.1476
 8469TIP3    H146822   5.504   3.532  15.029 -0.3848 -0.0586 -0.7918
 8469TIP3    H246823   5.471   3.670  15.083  0.1890 -0.4000  0.4567
 8470TIP3   OH246824   2.162   1.804   1.417  0.0229  0.0062  0.0047
 8470TIP3    H146825   2.251   1.839   1.427  0.2190 -1.0054  2.4579
 8470TIP3    H246826   2.106   1.866   1.462 -0.1029 -0.8333  1.0525
 8471TIP3   OH246827   2.076   6.588  12.227  0.5183 -0.4351  0.3497
 8471TIP3    H146828   2.116   6.564  12.311  0.9763 -1.3911 -0.1270
 8471TIP3    H246829   2.029   6.670  12.245 -2.1410 -2.2104  2.3995
 8472TIP3   OH246830   1.938   5.333  12.612 -0.7822 -0.0687 -0.1831
 8472TIP3    H146831   2.018   5.345  12.663 -2.2513  0.9801  2.0341
 8472TIP3    H246832   1.914   5.242  12.625  0.5431 -0.7034 -1.7568
 8473TIP3   OH246833   1.202   5.250   4.872  0.0885  0.6596  0.5880
 8473TIP3    H146834   1.208   5.290   4.959  1.4107 -1.6311  1.6563
 8473TIP3    H246835   1.287   5.268   4.831 -0.6992  2.1300 -0.4538
 8474TIP3   OH246836   5.252   4.111  15.230  0.3255 -0.4358  0.7122
 8474TIP3    H146837   5.199   4.073  15.160  1.3600 -0.4929 -0.0628
 8474TIP3    H246838   5.239   4.205  15.221  0.2849 -0.4535  0.5809
 8475TIP3   OH246839   6.672   0.556   0.299 -0.0691  0.1726  0.0505
 8475TIP3    H146840   6.703   0.603   0.223  0.6466 -0.5518 -0.1210
 8475TIP3    H246841   6.698   0.610   0.374  0.5765  0.1494 -0.1511
 8476TIP3   OH246842   0.497   6.298   1.538 -0.2925 -0.3089  0.1202
 8476TIP3    H146843   0.414   6.283   1.493 -0.5993  0.4614  0.4229
 8476TIP3    H246844   0.555   6.331   1.469 -0.2087 -0.9036 -0.1047
 8477TIP3   OH246845   3.362   4.474  12.294 -0.2505 -0.0274  0.3528
 8477TIP3    H146846   3.276   4.507  12.269 -0.0794  1.0641  1.1714
 8477TIP3    H246847   3.344   4.392  12.341 -0.7238 -0.6469 -0.8576
 8478TIP3   OH246848   1.482   5.853  13.313 -0.3764  0.5005  0.5288
 8478TIP3    H146849   1.453   5.845  13.222 -1.6881  0.0627  0.9688
 8478TIP3    H246850   1.577   5.864  13.307 -0.1898 -1.4389 -0.8242
 8479TIP3   OH246851   1.270   4.974  11.687  0.2258 -0.1172 -0.4780
 8479TIP3    H146852   1.221   4.976  11.769  0.0171  0.4891 -0.6140
 8479TIP3    H246853   1.229   4.904  11.636  0.6275 -0.7798  0.0968
 8480TIP3   OH246854   5.584   0.037   5.269  0.7162 -0.5432  0.0664
 8480TIP3    H146855   5.587   0.116   5.215  1.4149  0.4170  1.4393
 8480TIP3    H246856   5.640   0.057   5.344  0.2010 -2.0197  0.8927
 8481TIP3   OH246857   5.514   3.490   1.771  0.4389 -0.5766  0.4809
 8481TIP3    H146858   5.592   3.524   1.814  0.6777  1.2896 -1.3055
 8481TIP3    H246859   5.513   3.531   1.685 -1.0566 -2.6602 -0.6027
 8482TIP3   OH246860   2.359   3.606   1.215 -0.7220 -0.3563 -0.6791
 8482TIP3    H146861   2.271   3.568   1.219 -0.0244 -2.0704  2.2865
 8482TIP3    H246862   2.417   3.531   1.202  0.4280  0.3626  0.0500
 8483TIP3   OH246863   3.405   0.886   5.393  0.4754  0.4365 -0.0183
 8483TIP3    H146864   3.424   0.851   5.480 -0.3603 -0.6358 -0.2470
 8483TIP3    H246865   3.321   0.846   5.369  0.8700  0.4219 -1.4731
 8484TIP3   OH246866   0.786   1.461  13.164 -0.1732  0.4864  0.0291
 8484TIP3    H146867   0.819   1.477  13.076 -0.2933 -0.2583 -0.1550
 8484TIP3    H246868   0.803   1.542  13.211 -0.1080  0.8871 -0.6793
 8485TIP3   OH246869   4.243   2.815  11.340  0.4647  0.2298  0.9212
 8485TIP3    H146870   4.206   2.739  11.387  0.6681  0.7002  1.8680
 8485TIP3    H246871   4.240   2.790  11.248  0.3141 -0.8424  1.2029
 8486TIP3   OH246872   6.429   2.014  10.390 -0.3891 -0.1056 -0.3455
 8486TIP3    H146873   6.515   1.982  10.417 -0.2509 -0.7368 -1.4957
 8486TIP3    H246874   6.367   1.953  10.432 -0.1880 -0.9081 -1.1930
 8487TIP3   OH246875   6.733   5.258  13.659 -0.1863 -0.2000 -0.1480
 8487TIP3    H146876   6.652   5.242  13.708 -0.1457  0.8824  0.2974
 8487TIP3    H246877   6.795   5.194  13.695 -0.3432  0.1446  0.7847
 8488TIP3   OH246878   2.784   1.279   1.237 -0.1858  0.1504 -0.1558
 8488TIP3    H146879   2.764   1.253   1.147  1.4231 -0.9032 -0.2633
 8488TIP3    H246880   2.786   1.196   1.286 -1.3552  0.7347  0.9463
 8489TIP3   OH246881   4.166   4.949   2.998 -0.4577 -0.6117  0.3757
 8489TIP3    H146882   4.183   4.993   3.081 -0.3769  0.0053  0.0417
 8489TIP3    H246883   4.089   4.994   2.963 -0.5486 -0.9305  0.1621
 8490TIP3   OH246884   3.967   0.524   5.026 -0.4773  0.2510  0.2591
 8490TIP3    H146885   3.887   0.560   5.064  0.0171  1.7851 -0.0787
 8490TIP3    H246886   4.029   0.520   5.100 -1.4592 -3.0889  1.0638
 8491TIP3   OH246887   6.230   0.653   1.610 -0.1914  0.0145 -0.3683
 8491TIP3    H146888   6.261   0.583   1.553  0.2249  0.5176 -0.7647
 8491TIP3    H246889   6.266   0.733   1.572  1.2272  0.2514  1.3520
 8492TIP3   OH246890   4.383   1.366  11.082  0.2498  0.5320  0.0131
 8492TIP3    H146891   4.428   1.291  11.044  0.0278  0.1812  0.4315
 8492TIP3    H246892   4.380   1.431  11.011 -1.4098 -0.6341 -1.0491
 8493TIP3   OH246893   0.332   0.969   3.253 -0.0120 -0.0114  0.0924
 8493TIP3    H146894   0.343   0.890   3.305  3.2143  0.0572 -0.2827
 8493TIP3    H246895   0.330   0.938   3.162  1.8857  0.2927 -0.0950
 8494TIP3   OH246896   1.002   1.924   6.087  0.4420 -0.1452  0.0498
 8494TIP3    H146897   1.092   1.949   6.105  0.2488 -0.5713  1.8843
 8494TIP3    H246898   1.007   1.830   6.066  0.4136 -0.2230  0.3811
 8495TIP3   OH246899   4.210   3.757   2.580 -0.2103  0.1710 -0.3332
 8495TIP3    H146900   4.299   3.745   2.613 -0.1186  0.8762 -0.3082
 8495TIP3    H246901   4.182   3.842   2.615 -0.9312 -0.0864 -0.2616
 8496TIP3   OH246902   5.195   6.329   2.886  0.3475 -0.3630 -0.3412
 8496TIP3    H146903   5.243   6.255   2.849 -0.5599 -1.7661  1.1523
 8496TIP3    H246904   5.245   6.354   2.964  1.0013  1.0804 -1.1690
 8497TIP3   OH246905   4.366   6.272   5.461 -0.3372 -1.1917 -0.0668
 8497TIP3    H146906   4.311   6.295   5.536  0.6531 -2.1711  1.0066
 8497TIP3    H246907   4.349   6.179   5.446  0.6966 -1.4190  0.0401
 8498TIP3   OH246908   4.397   0.258   2.760  0.0299 -0.2480 -0.3052
 8498TIP3    H146909   4.337   0.226   2.827 -0.0625  0.6375  0.0590
 8498TIP3    H246910   4.483   0.226   2.787  0.1041  0.7176  0.6659
 8499TIP3   OH246911   0.551   2.444  14.717  0.4645  0.2590  0.5342
 8499TIP3    H146912   0.645   2.456  14.734  0.1740  1.6522  1.2599
 8499TIP3    H246913   0.521   2.387  14.788  0.6521  0.2184  0.5815
 8500TIP3   OH246914   3.831   1.899  14.717  0.0210  0.2197  0.1440
 8500TIP3    H146915   3.741   1.917  14.742  0.2126  0.3857  0.7414
 8500TIP3    H246916   3.830   1.896  14.621 -0.4457  1.1137  0.1177
 8501TIP3   OH246917   4.544   0.669   2.848 -0.0258  0.5026  0.5698
 8501TIP3    H146918   4.469   0.655   2.906 -0.4661  0.9245  0.1124
 8501TIP3    H246919   4.601   0.730   2.897  0.2488 -0.1745  1.1090
 8502TIP3   OH246920   4.603   4.849  15.067  0.0418  0.2648  0.2745
 8502TIP3    H146921   4.579   4.914  15.134  0.2696  1.2707 -0.5839
 8502TIP3    H246922   4.540   4.863  14.996  1.1968  0.8069 -0.6890
 8503TIP3   OH246923   2.688   1.843  12.322 -0.0478  0.5043 -0.2543
 8503TIP3    H146924   2.630   1.917  12.342  0.3904  0.5757  0.7948
 8503TIP3    H246925   2.642   1.796  12.252 -0.9898  1.0117 -0.0059
 8504TIP3   OH246926   4.748   0.769   1.813 -0.7331 -0.2077  0.2362
 8504TIP3    H146927   4.697   0.828   1.758 -2.6123 -0.9783  1.0334
 8504TIP3    H246928   4.713   0.682   1.794  0.5966 -0.8363  0.5304
 8505TIP3   OH246929   2.283   6.480  14.904  0.2740 -0.0079  0.4449
 8505TIP3    H146930   2.301   6.512  14.992 -0.6128  1.2780  0.1785
 8505TIP3    H246931   2.307   6.387  14.908  0.7855  0.1509  1.8681
 8506TIP3   OH246932   0.933   0.748   0.452 -0.0459  0.2519  0.1663
 8506TIP3    H146933   0.899   0.832   0.422  0.4533  0.7087  0.8440
 8506TIP3    H246934   0.879   0.726   0.528  1.1891  1.0285  1.3047
 8507TIP3   OH246935   3.391   5.152   4.866  0.0983 -0.2132  0.4407
 8507TIP3    H146936   3.469   5.204   4.887  0.3194  0.1481 -1.1116
 8507TIP3    H246937   3.419   5.061   4.875  1.4763 -0.1705 -2.3588
 8508TIP3   OH246938   3.078   1.632   3.273 -0.6344 -0.4111  0.2046
 8508TIP3    H146939   3.105   1.662   3.360 -0.6588  0.0203  0.0651
 8508TIP3    H246940   3.155   1.586   3.239 -0.1704  0.5265 -0.0568
 8509TIP3   OH246941   3.236   4.673  14.174  0.1452 -0.0998 -0.6890
 8509TIP3    H146942   3.181   4.719  14.111 -2.1402 -0.9061  0.5764
 8509TIP3    H246943   3.280   4.743  14.223  0.1575  0.5786 -1.6342
 8510TIP3   OH246944   0.188   3.895  11.204  0.1354 -0.1579  0.2281
 8510TIP3    H146945   0.253   3.950  11.161 -1.8223  2.5818  0.4983
 8510TIP3    H246946   0.146   3.846  11.133  2.3723 -2.0226  0.0564
 8511TIP3   OH246947   5.913   0.408   3.207 -0.3809 -0.1408  0.0212
 8511TIP3    H146948   5.992   0.429   3.157 -1.7147  0.6649 -1.8646
 8511TIP3    H246949   5.899   0.314   3.192  0.1666 -0.2757  0.3241
 8512TIP3   OH246950   0.164   3.550   2.863  0.4395  0.5224  0.1442
 8512TIP3    H146951   0.078   3.537   2.823 -0.1861  1.3679  1.1889
 8512TIP3    H246952   0.204   3.463   2.861  0.1804  0.3950 -1.6883
 8513TIP3   OH246953   0.458   0.413   1.840  0.2722  0.7721 -0.2751
 8513TIP3    H146954   0.442   0.440   1.750  0.4071 -0.9240 -0.8359
 8513TIP3    H246955   0.537   0.461   1.866  1.2736 -0.0423 -1.6915
 8514TIP3   OH246956   4.723   4.664  13.813 -0.6605  0.6387 -0.3919
 8514TIP3    H146957   4.728   4.627  13.726  1.4305 -0.0143 -0.0504
 8514TIP3    H246958   4.808   4.706  13.826  0.1607 -1.5652  2.2855
 8515TIP3   OH246959   3.547   1.133   6.309  0.6668 -0.2837 -0.0666
 8515TIP3    H146960   3.496   1.070   6.257  1.1733 -1.2279  0.5453
 8515TIP3    H246961   3.609   1.079   6.357  1.8687  0.7949 -0.3492
 8516TIP3   OH246962   5.019   5.850   5.272  0.3806  0.0151  0.0411
 8516TIP3    H146963   5.092   5.911   5.286  0.4055 -0.3841  1.9622
 8516TIP3    H246964   4.942   5.906   5.264  0.6787  0.3767 -0.3276
 8517TIP3   OH246965   4.709   0.794   0.815 -0.6042  0.0279 -0.2099
 8517TIP3    H146966   4.731   0.831   0.900 -1.4076  0.5601 -0.2338
 8517TIP3    H246967   4.708   0.699   0.830  1.1708 -0.0138 -0.0894
 8518TIP3   OH246968   4.043   0.712   5.911  0.1438 -0.5110  0.3550
 8518TIP3    H146969   4.086   0.737   5.993  1.3517  1.4290 -0.7897
 8518TIP3    H246970   4.074   0.624   5.893  1.6131 -0.1234  0.8828
 8519TIP3   OH246971   3.924   5.275  12.504 -0.3795  0.5321 -0.1938
 8519TIP3    H146972   3.844   5.226  12.486 -0.4088  1.0127 -1.5089
 8519TIP3    H246973   3.896   5.367  12.503  0.1328  0.6897 -0.3087
 8520TIP3   OH246974   2.002   0.796  14.516  0.2654  0.1386  0.4468
 8520TIP3    H146975   1.920   0.812  14.563  0.3254  0.4380  0.4505
 8520TIP3    H246976   2.021   0.880  14.473 -0.2040 -0.3413 -0.7398
 8521TIP3   OH246977   1.028   1.732   4.841  0.3937  0.2705  0.7426
 8521TIP3    H146978   0.939   1.737   4.809 -0.0386  1.8963  2.0441
 8521TIP3    H246979   1.045   1.818   4.878  2.4177 -0.0887  0.7686
 8522TIP3   OH246980   3.929   0.705   3.781 -0.3390  0.4139 -0.3947
 8522TIP3    H146981   3.906   0.776   3.721 -1.9013  1.0810  0.9316
 8522TIP3    H246982   3.864   0.710   3.851  0.6923 -1.1029  0.7447
 8523TIP3   OH246983   2.025   5.507  15.858  0.0465 -0.4641 -0.0964
 8523TIP3    H146984   1.936   5.498  15.892 -0.3618  0.4955 -0.8512
 8523TIP3    H246985   2.082   5.485  15.932 -0.8189 -0.8894  0.4490
 8524TIP3   OH246986   5.412   2.289   2.689 -0.3229  0.5427  0.4391
 8524TIP3    H146987   5.441   2.242   2.611 -0.6578 -0.2318  0.7736
 8524TIP3    H246988   5.476   2.360   2.699  0.9851 -0.6166  0.6732
 8525TIP3   OH246989   1.040   6.265   5.871 -0.3690 -0.2611  0.0095
 8525TIP3    H146990   1.109   6.226   5.924  0.1213 -0.4644 -0.7634
 8525TIP3    H246991   1.072   6.258   5.781 -1.0456  0.3643 -0.2871
 8526TIP3   OH246992   2.274   5.093   2.545  0.6562  0.1229  0.1289
 8526TIP3    H146993   2.311   5.157   2.605  2.8243  0.8448 -1.8231
 8526TIP3    H246994   2.183   5.121   2.532  0.6533  0.9270  1.7007
 8527TIP3   OH246995   6.531   0.005   2.352  0.0636 -0.0275  0.4201
 8527TIP3    H146996   6.460   0.050   2.399  0.2410 -0.7260  1.4032
 8527TIP3    H246997   6.590   0.075   2.325  0.5207  0.3596  2.2384
 8528TIP3   OH246998   4.216   3.212  11.015  0.4535  0.3337 -0.4152
 8528TIP3    H146999   4.156   3.137  11.006  2.9703 -1.5502 -2.9212
 8528TIP3    H247000   4.200   3.265  10.937  2.4058 -0.5569 -1.4790
 8529TIP3   OH247001   3.252   0.047  13.121 -0.6275 -0.3399 -0.0568
 8529TIP3    H147002   3.168  -0.000  13.123 -1.1070  0.5018  0.1422
 8529TIP3    H247003   3.256   0.084  13.033 -0.1559 -0.9077 -0.2804
 8530TIP3   OH247004   2.224   1.694   1.176 -0.6227 -0.4345  0.2433
 8530TIP3    H147005   2.198   1.746   1.100  2.4694  0.1377 -0.5774
 8530TIP3    H247006   2.192   1.743   1.252  0.5382  1.7084 -0.5722
 8531TIP3   OH247007   5.196   3.534  14.807 -0.0934  0.3608  0.2482
 8531TIP3    H147008   5.262   3.603  14.799  0.0699  0.3010  1.0296
 8531TIP3    H247009   5.151   3.552  14.889 -0.0982 -0.4137  0.4253
 8532TIP3   OH247010   5.462   3.026  14.631 -0.0434  0.0750 -0.0410
 8532TIP3    H147011   5.440   3.055  14.542 -1.6450 -1.0719 -0.0707
 8532TIP3    H247012   5.539   2.970  14.620  1.3776  2.0071 -0.3334
 8533TIP3   OH247013   2.474   1.702  11.601  0.3212  0.3684  0.5582
 8533TIP3    H147014   2.526   1.627  11.574  1.8205  0.9803  1.6484
 8533TIP3    H247015   2.404   1.707  11.536 -1.1491 -3.2490  1.6159
 8534TIP3   OH247016   3.611   1.295   1.586  1.0451  0.1644  0.4233
 8534TIP3    H147017   3.630   1.279   1.678 -0.4403 -0.5068  0.6368
 8534TIP3    H247018   3.616   1.390   1.577 -1.9252  0.5930  1.9982
 8535TIP3   OH247019   0.067   0.924   4.318 -0.3743  0.3935 -0.6713
 8535TIP3    H147020   0.054   0.879   4.235 -0.6259 -0.1870 -0.3256
 8535TIP3    H247021   0.067   0.854   4.383 -0.5402  0.8754 -0.1443
 8536TIP3   OH247022   3.486   0.715   0.175  0.1285  0.4938  0.3409
 8536TIP3    H147023   3.482   0.687   0.084 -1.1193  1.6467  0.0149
 8536TIP3    H247024   3.575   0.695   0.202  0.5409  0.1899 -1.1470
 8537TIP3   OH247025   3.696   2.296   1.907 -0.2972  0.6297  0.3185
 8537TIP3    H147026   3.787   2.268   1.902 -0.4142  0.2633  0.2281
 8537TIP3    H247027   3.679   2.340   1.823 -1.1520 -2.1738 -1.0962
 8538TIP3   OH247028   6.370   1.107   5.660  0.0595 -0.3608 -0.1130
 8538TIP3    H147029   6.384   1.068   5.574  0.7835  1.7685 -1.0220
 8538TIP3    H247030   6.398   1.040   5.722  1.7152 -1.0997 -1.5900
 8539TIP3   OH247031   2.632   4.665  13.711  0.5394 -0.3067 -0.9781
 8539TIP3    H147032   2.714   4.652  13.760  0.1616  0.0887 -0.2224
 8539TIP3    H247033   2.650   4.629  13.625  0.4322 -3.3573  0.1598
 8540TIP3   OH247034   4.843   2.090  14.597  0.6837 -0.3555 -0.2600
 8540TIP3    H147035   4.858   2.142  14.518  1.2173  0.6490  0.4919
 8540TIP3    H247036   4.902   2.015  14.588  0.6528 -0.3120 -0.8658
 8541TIP3   OH247037   4.110   4.115  17.167  0.1623  0.3885  0.4068
 8541TIP3    H147038   4.192   4.083  17.207  0.1704  0.2441  0.2792
 8541TIP3    H247039   4.089   4.049  17.101 -1.6796 -1.2262  2.4335
 8542TIP3   OH247040   0.724   4.285  14.378  0.4630 -0.1836 -0.4787
 8542TIP3    H147041   0.663   4.315  14.445  1.8564 -0.1185  0.8079
 8542TIP3    H247042   0.792   4.352  14.374  1.4697 -1.1631 -0.4834
 8543TIP3   OH247043   5.434   4.427  14.306 -0.0637 -0.2979 -0.0232
 8543TIP3    H147044   5.369   4.454  14.372 -1.5617  0.7952 -1.8563
 8543TIP3    H247045   5.516   4.466  14.337 -0.6438 -0.1422  1.4020
 8544TIP3   OH247046   4.121   2.128  17.031  0.3759 -0.3984  0.2111
 8544TIP3    H147047   4.120   2.178  17.113  1.0679  0.9487 -0.5694
 8544TIP3    H247048   4.173   2.050  17.051 -0.5756 -0.7622  1.4088
 8545TIP3   OH247049   0.613   4.863   6.237 -0.2019  0.2628 -0.0132
 8545TIP3    H147050   0.662   4.788   6.272 -0.6265  0.1655  0.3856
 8545TIP3    H247051   0.663   4.890   6.160  0.6602  0.3672  0.5605
 8546TIP3   OH247052   2.664   4.954   5.105  0.3166 -0.7872  0.5713
 8546TIP3    H147053   2.746   4.949   5.057 -1.4697 -1.2690 -2.7007
 8546TIP3    H247054   2.633   5.044   5.092 -1.2062 -1.5048 -1.1339
 8547TIP3   OH247055   1.668   2.152   5.395  0.3320  0.3457  0.2135
 8547TIP3    H147056   1.679   2.243   5.422  0.5218  0.7569 -1.1600
 8547TIP3    H247057   1.587   2.123   5.438  0.6641  0.9179  1.2427
 8548TIP3   OH247058   1.142   3.096   0.592  0.2761  0.2254  0.0589
 8548TIP3    H147059   1.220   3.121   0.642  2.0126 -1.8398 -1.4414
 8548TIP3    H247060   1.086   3.051   0.656  2.5052 -2.4871  0.2809
 8549TIP3   OH247061   4.039   4.181   0.469  0.3073  0.8276 -0.4730
 8549TIP3    H147062   4.039   4.152   0.378  1.3647  0.6666 -0.4349
 8549TIP3    H247063   4.049   4.276   0.464 -0.5917  0.9360 -0.5300
 8550TIP3   OH247064   1.262   0.400   1.564  0.0977 -0.3634 -0.2096
 8550TIP3    H147065   1.268   0.459   1.489  0.0275 -1.0681 -0.7777
 8550TIP3    H247066   1.338   0.421   1.618 -0.2854  0.7091 -0.0572
 8551TIP3   OH247067   3.378   5.895  11.460  0.4167  0.0478 -0.0289
 8551TIP3    H147068   3.449   5.923  11.517  0.7917  2.7928 -1.6293
 8551TIP3    H247069   3.418   5.890  11.373 -0.7591 -1.1064 -0.5265
 8552TIP3   OH247070   1.722   2.698  16.647  0.0051 -0.3357  0.6230
 8552TIP3    H147071   1.806   2.743  16.641 -0.7796  1.1107 -0.1908
 8552TIP3    H247072   1.737   2.626  16.708  2.0103 -0.5900 -0.1140
 8553TIP3   OH247073   5.593   0.874  14.914  0.4679 -0.4012  0.1687
 8553TIP3    H147074   5.512   0.825  14.931  0.1501  0.1993  0.4250
 8553TIP3    H247075   5.648   0.856  14.990  0.0403  0.2564  0.6484
 8554TIP3   OH247076   2.379   3.812  15.048 -0.4832  0.1241  0.4484
 8554TIP3    H147077   2.410   3.745  14.987 -1.8263  1.5919 -1.9627
 8554TIP3    H247078   2.285   3.795  15.057 -0.7991  1.5350 -0.0427
 8555TIP3   OH247079   1.135   3.265   4.499  0.1833  0.6882 -0.5680
 8555TIP3    H147080   1.215   3.231   4.460 -0.5294  0.3666 -1.8144
 8555TIP3    H247081   1.099   3.192   4.549  1.6193  1.3964  1.6352
 8556TIP3   OH247082   6.271   6.525  16.966 -0.0032 -0.0089  0.1133
 8556TIP3    H147083   6.317   6.448  16.999  1.0524  0.5578 -0.0045
 8556TIP3    H247084   6.238   6.499  16.880 -0.5929 -0.6692  0.5261
 8557TIP3   OH247085   4.713   1.123  14.179 -0.3087  0.2638 -0.1077
 8557TIP3    H147086   4.694   1.091  14.091 -0.7070 -2.2992  0.8192
 8557TIP3    H247087   4.783   1.187  14.166 -1.0770  0.7565 -2.3610
 8558TIP3   OH247088   0.939   5.515   2.587  0.0755 -0.1188  0.1006
 8558TIP3    H147089   0.962   5.482   2.501  0.5959  0.9353 -0.1805
 8558TIP3    H247090   0.961   5.443   2.647  1.8180 -0.0673 -0.4217
 8559TIP3   OH247091   2.803   5.676  15.632 -0.0943 -0.4557 -0.1621
 8559TIP3    H147092   2.712   5.685  15.604  0.5896  0.1769 -2.3878
 8559TIP3    H247093   2.802   5.699  15.725 -2.2350 -0.7394 -0.0757
 8560TIP3   OH247094   5.148   0.456  15.615  0.5455  0.0694  0.1090
 8560TIP3    H147095   5.169   0.363  15.613  2.6931  0.5187 -0.8141
 8560TIP3    H247096   5.088   0.466  15.689  1.2303 -1.8473  0.9779
 8561TIP3   OH247097   2.929   3.773   2.109  0.0754  0.6332  0.4947
 8561TIP3    H147098   2.948   3.859   2.147  1.4508  0.3368  0.5234
 8561TIP3    H247099   3.011   3.724   2.118 -0.6112 -0.6101  0.2651
 8562TIP3   OH247100   0.427   5.810   4.266  0.1663 -0.2492  0.0518
 8562TIP3    H147101   0.355   5.816   4.202 -0.8986  1.3000  1.3083
 8562TIP3    H247102   0.484   5.884   4.245  0.0837 -0.0360  0.5792
 8563TIP3   OH247103   0.811   3.463  13.999 -0.0428  0.0953  0.3620
 8563TIP3    H147104   0.844   3.487  13.913  2.9302 -0.0148  1.3776
 8563TIP3    H247105   0.830   3.369  14.008 -1.2983 -0.1467  0.7617
 8564TIP3   OH247106   0.824   1.158   1.950  0.5981  0.5900 -0.3532
 8564TIP3    H147107   0.897   1.098   1.965  0.8005  0.5463 -1.4297
 8564TIP3    H247108   0.746   1.105   1.968  0.7190 -0.4300 -2.4983
 8565TIP3   OH247109   3.656   6.638  12.844  0.7015  0.4257  0.0105
 8565TIP3    H147110   3.572   6.615  12.884  1.5494 -1.0757  1.0170
 8565TIP3    H247111   3.681   6.720  12.885  0.1884  0.3793  0.4284
 8566TIP3   OH247112   3.301   3.359  15.925 -0.6862  0.3529 -0.3089
 8566TIP3    H147113   3.222   3.386  15.879  0.1192  2.8663 -0.4250
 8566TIP3    H247114   3.357   3.323  15.857 -1.5046 -0.9422 -0.3152
 8567TIP3   OH247115   0.024   1.315  12.571 -0.6464  0.2220 -0.1209
 8567TIP3    H147116   0.026   1.241  12.632  0.3597  0.1735 -0.2002
 8567TIP3    H247117  -0.023   1.383  12.618 -1.1874 -0.3073  0.1288
 8568TIP3   OH247118   6.401   4.694   5.297  0.0232  0.4025 -0.3931
 8568TIP3    H147119   6.363   4.608   5.281 -1.2533  0.6988  0.7798
 8568TIP3    H247120   6.495   4.680   5.299 -0.1752 -0.9708 -0.1966
 8569TIP3   OH247121   0.814   5.650   0.887  0.2003  0.0300  0.5155
 8569TIP3    H147122   0.771   5.610   0.963 -0.3783  0.6415  0.5223
 8569TIP3    H247123   0.892   5.693   0.922 -0.4799  0.9823  0.9071
 8570TIP3   OH247124   3.626   4.819   2.153  0.3564 -0.1010  0.2148
 8570TIP3    H147125   3.580   4.814   2.069  3.2788  0.5837 -1.5872
 8570TIP3    H247126   3.657   4.730   2.168 -0.0794 -0.2014  0.5315
 8571TIP3   OH247127   0.678   4.146   3.112  0.2298 -0.2575 -0.3758
 8571TIP3    H147128   0.664   4.069   3.168 -1.8772  0.7878  0.6278
 8571TIP3    H247129   0.613   4.138   3.043 -0.1355  0.6967 -0.1582
 8572TIP3   OH247130   6.461   5.750  16.814  0.1842  0.0870 -0.5581
 8572TIP3    H147131   6.506   5.715  16.891 -1.6491 -0.2751  0.4254
 8572TIP3    H247132   6.530   5.769  16.751  1.8645  1.3981  1.5514
 8573TIP3   OH247133   0.761   4.431  16.799 -0.2691 -0.0441  0.5414
 8573TIP3    H147134   0.752   4.524  16.779 -1.9795  0.1648  2.0400
 8573TIP3    H247135   0.721   4.420  16.885  1.1875 -1.9419  1.0633
 8574TIP3   OH247136   0.752   5.342  16.286  0.2481 -0.0870  0.0255
 8574TIP3    H147137   0.753   5.248  16.271  0.8651  0.2311 -2.3074
 8574TIP3    H247138   0.814   5.378  16.222 -1.4949  2.0550 -0.5940
 8575TIP3   OH247139   1.699   2.727   4.769 -0.4543 -0.2989  0.4818
 8575TIP3    H147140   1.771   2.667   4.789  0.4630  0.2740 -0.9627
 8575TIP3    H247141   1.620   2.674   4.778  0.3883 -2.2120 -2.2621
 8576TIP3   OH247142   5.764   4.106   5.243  1.1306 -0.3883  0.2761
 8576TIP3    H147143   5.833   4.101   5.177  0.9065  0.5253 -0.0314
 8576TIP3    H247144   5.799   4.164   5.310 -0.2945  2.2025 -1.0889
 8577TIP3   OH247145   0.455   4.534  12.545 -0.3557 -0.0226  0.2807
 8577TIP3    H147146   0.386   4.592  12.514  1.1825  0.5880 -2.3618
 8577TIP3    H247147   0.516   4.591  12.592  0.1529  0.1671 -0.5850
 8578TIP3   OH247148   0.096   6.354  14.966 -0.4761 -0.3357  0.6516
 8578TIP3    H147149   0.032   6.414  15.004 -0.8943 -0.0684 -0.4427
 8578TIP3    H247150   0.126   6.301  15.040 -1.9794 -0.4900  1.1847
 8579TIP3   OH247151   4.843   3.855  11.530 -0.0752 -0.6625  0.3952
 8579TIP3    H147152   4.812   3.767  11.510  0.2930 -0.8407  0.5811
 8579TIP3    H247153   4.879   3.848  11.619  0.2546 -0.4070  0.2850
 8580TIP3   OH247154   0.853   6.655  13.250  0.0163 -0.6734  0.1112
 8580TIP3    H147155   0.823   6.708  13.176  1.5551 -1.1789 -0.9351
 8580TIP3    H247156   0.807   6.572  13.239 -0.3347 -0.4918  0.1763
 8581TIP3   OH247157   4.598   2.643  11.683 -0.3061 -0.0897 -0.5066
 8581TIP3    H147158   4.598   2.626  11.589 -0.6467 -0.1480 -0.4984
 8581TIP3    H247159   4.625   2.560  11.722  0.3400  0.0832 -0.5745
 8582TIP3   OH247160   1.944   3.283  13.505 -0.4656 -0.0985  0.1048
 8582TIP3    H147161   1.952   3.296  13.599 -2.3258  0.3574  0.2505
 8582TIP3    H247162   1.972   3.192  13.490 -1.2908 -0.5679  1.2920
 8583TIP3   OH247163   4.905   3.099  13.662 -0.3275  0.1142 -0.1480
 8583TIP3    H147164   4.877   3.009  13.675  1.8062 -0.6566 -0.4470
 8583TIP3    H247165   4.961   3.118  13.738 -1.4098  1.4895  0.3410
 8584TIP3   OH247166   6.231   2.028   3.188  0.5829  0.1075  0.2776
 8584TIP3    H147167   6.153   2.001   3.140  0.2185 -0.2922  1.0723
 8584TIP3    H247168   6.231   1.974   3.267  1.0982  0.8223  0.7845
 8585TIP3   OH247169   4.841   2.321   3.333  0.0643  0.0966  0.3457
 8585TIP3    H147170   4.926   2.349   3.297  0.1843 -1.5077 -0.7308
 8585TIP3    H247171   4.806   2.399   3.376  1.9022  0.9009  0.4628
 8586TIP3   OH247172   2.924   3.129  11.418  0.1073 -0.2237 -0.7241
 8586TIP3    H147173   3.017   3.149  11.428 -0.1628  2.0259 -2.0856
 8586TIP3    H247174   2.897   3.095  11.503  1.8054  0.7269  0.2401
 8587TIP3   OH247175   3.758   5.786  11.450  0.1590  0.1439 -0.8754
 8587TIP3    H147176   3.758   5.690  11.445 -2.7269  0.0192  0.0055
 8587TIP3    H247177   3.672   5.808  11.485  1.0115  3.0544 -0.3818
 8588TIP3   OH247178   0.847   2.535   6.001  0.6508 -0.1618 -0.0169
 8588TIP3    H147179   0.905   2.463   5.981  0.8900  0.4746 -1.7497
 8588TIP3    H247180   0.901   2.614   5.990 -0.0128  0.3546  0.3180
 8589TIP3   OH247181   4.559   1.969   5.111  0.1780 -0.1660  0.0854
 8589TIP3    H147182   4.606   1.907   5.056  0.7706  1.0527 -0.8373
 8589TIP3    H247183   4.591   1.951   5.200  2.7767  0.8620 -0.5271
 8590TIP3   OH247184   3.735   6.715  14.469  0.0682 -0.7937 -0.0661
 8590TIP3    H147185   3.778   6.682  14.390  2.6063  0.9392  0.4411
 8590TIP3    H247186   3.798   6.699  14.539 -1.7893 -1.5718  1.5214
 8591TIP3   OH247187   2.704   4.247  14.823 -0.2200 -0.1494  0.1911
 8591TIP3    H147188   2.715   4.319  14.886 -0.3683 -0.7357  0.9015
 8591TIP3    H247189   2.629   4.272  14.770  0.3226  0.6743 -0.2110
 8592TIP3   OH247190   5.597   0.898  16.546  0.3832 -0.3452 -0.2543
 8592TIP3    H147191   5.597   0.960  16.619  0.2845 -1.6748  0.9218
 8592TIP3    H247192   5.570   0.950  16.471  0.9603  1.1897  0.5443
 8593TIP3   OH247193   0.210   4.140  14.436  0.3024 -0.7397 -0.5466
 8593TIP3    H147194   0.169   4.068  14.482  0.4054 -0.9011 -0.7034
 8593TIP3    H247195   0.303   4.117  14.433  0.4430 -0.2653  0.0135
 8594TIP3   OH247196   0.458   1.763  12.002 -0.6663 -0.6305  0.2158
 8594TIP3    H147197   0.416   1.814  12.071  0.9738  0.1842  0.6521
 8594TIP3    H247198   0.388   1.745  11.939 -1.7067  0.4783  1.0271
 8595TIP3   OH247199   2.358   5.886   1.081  0.3454 -0.7908 -0.0260
 8595TIP3    H147200   2.452   5.883   1.100  0.6873  1.8316 -0.8198
 8595TIP3    H247201   2.351   5.861   0.989  0.6239  1.1527 -0.6326
 8596TIP3   OH247202   5.295   3.949   3.422  0.2176  0.0476 -0.6861
 8596TIP3    H147203   5.236   4.025   3.421  1.0802  0.7538 -0.1117
 8596TIP3    H247204   5.378   3.983   3.389  0.4124 -0.8425 -1.1289
 8597TIP3   OH247205   0.337   3.647  13.276  0.0124 -0.0232  0.2583
 8597TIP3    H147206   0.266   3.709  13.293  0.6081  0.5393  0.7473
 8597TIP3    H247207   0.330   3.584  13.347 -0.6406 -0.5840 -0.2813
 8598TIP3   OH247208   2.082   1.852   0.997  0.1463  0.2661 -0.0611
 8598TIP3    H147209   2.136   1.845   0.918  0.8015  0.7748  0.3268
 8598TIP3    H247210   2.051   1.943   0.996  0.4627  0.3849  0.4503
 8599TIP3   OH247211   3.782   4.113  11.811  0.0263  0.3857 -0.3474
 8599TIP3    H147212   3.854   4.120  11.874 -0.1365 -0.9096  0.0039
 8599TIP3    H247213   3.784   4.196  11.763  2.8577 -0.2349 -1.5231
 8600TIP3   OH247214   0.996   5.159   4.601 -0.3880  0.2853 -0.1720
 8600TIP3    H147215   1.020   5.229   4.540 -3.6144  0.7951 -1.0277
 8600TIP3    H247216   1.041   5.082   4.567 -2.8440  0.2965 -4.0552
 8601TIP3   OH247217   0.098   6.741   1.375  0.1250  0.8295 -0.6012
 8601TIP3    H147218   0.045   6.664   1.395  2.3743 -0.6386  0.0995
 8601TIP3    H247219   0.035   6.805   1.341 -2.1259 -0.5879  0.6368
 8602TIP3   OH247220   2.660   1.959  11.922  0.1501  0.5377  0.9376
 8602TIP3    H147221   2.628   2.031  11.867 -0.0456  1.0338  1.6750
 8602TIP3    H247222   2.733   1.997  11.971  3.4175 -1.1191 -2.1925
 8603TIP3   OH247223   3.485   0.463   1.487  0.3441  0.5653  0.1074
 8603TIP3    H147224   3.517   0.406   1.417 -2.0435  0.4824 -1.0009
 8603TIP3    H247225   3.518   0.550   1.464 -0.5812  0.5796 -1.2852
 8604TIP3   OH247226   4.801   0.962  16.410 -0.5942  0.3818 -0.5004
 8604TIP3    H147227   4.882   1.000  16.376 -0.1908  1.1640  1.2497
 8604TIP3    H247228   4.733   1.026  16.389 -0.5202  0.3985 -0.6917
 8605TIP3   OH247229   0.651   0.012  16.178 -0.0072 -0.0678 -0.9676
 8605TIP3    H147230   0.594  -0.008  16.104  0.8041 -1.2162 -1.3064
 8605TIP3    H247231   0.692   0.095  16.155  0.0679 -0.3049 -1.6973
 8606TIP3   OH247232   0.682   5.453   0.438  0.4503 -0.0778  0.0654
 8606TIP3    H147233   0.591   5.458   0.466 -0.0721 -1.4742 -1.2083
 8606TIP3    H247234   0.726   5.523   0.485 -0.9106 -0.5000  2.0623
 8607TIP3   OH247235   1.976   0.741   1.133  0.1068  0.0582  0.0577
 8607TIP3    H147236   1.929   0.660   1.152 -0.0635 -0.3349 -1.8714
 8607TIP3    H247237   1.910   0.810   1.140 -0.3278 -0.2710 -0.7372
 8608TIP3   OH247238   1.348   4.328  15.441  0.2597  0.3924  0.5535
 8608TIP3    H147239   1.366   4.344  15.533  2.6455  1.1537  0.0244
 8608TIP3    H247240   1.320   4.413  15.406 -0.3199  0.1825  0.4893
 8609TIP3   OH247241   4.469   5.350  11.736  0.1433 -0.1432 -0.4087
 8609TIP3    H147242   4.480   5.358  11.642  0.9815  0.4622 -0.2683
 8609TIP3    H247243   4.387   5.302  11.747  0.6461 -1.2842 -1.4545
 8610TIP3   OH247244   0.980   3.288  15.763  0.0057 -0.4876  0.0675
 8610TIP3    H147245   0.949   3.316  15.677 -0.9052 -1.1411  0.1660
 8610TIP3    H247246   1.068   3.324  15.770 -0.3339  0.5374 -0.6644
 8611TIP3   OH247247   3.235   1.206  12.934  0.3133  0.0241  0.4739
 8611TIP3    H147248   3.313   1.260  12.946  1.2730 -1.3159  0.4639
 8611TIP3    H247249   3.255   1.151  12.858 -0.4776 -0.6275  0.7179
 8612TIP3   OH247250   4.982   1.306   1.755 -0.1826 -0.2835 -0.5211
 8612TIP3    H147251   4.984   1.391   1.711 -1.6953  0.8266  1.3491
 8612TIP3    H247252   5.037   1.318   1.832 -0.9749 -0.7410  0.1288
 8613TIP3   OH247253   3.922   0.556   4.093  0.4518  0.2836  0.2158
 8613TIP3    H147254   3.972   0.563   4.174 -1.2239  0.7554  1.2629
 8613TIP3    H247255   3.911   0.647   4.064  1.0040  0.1205 -0.5382
 8614TIP3   OH247256   0.938   2.642   4.507 -0.0695 -0.2461  0.2763
 8614TIP3    H147257   0.890   2.634   4.424 -0.2987 -1.2042  0.4850
 8614TIP3    H247258   0.979   2.729   4.503 -1.1818  0.2708 -0.2421
 8615TIP3   OH247259   0.705   5.799   1.563  0.5233 -0.0317  0.1723
 8615TIP3    H147260   0.689   5.887   1.531 -0.8703 -0.3144  0.0382
 8615TIP3    H247261   0.719   5.810   1.657  0.0358  0.3026  0.2096
 8616TIP3   OH247262   4.231   1.018   4.617 -0.0668  0.2139 -0.3485
 8616TIP3    H147263   4.320   1.024   4.582  0.0362 -0.3816 -0.1986
 8616TIP3    H247264   4.197   0.935   4.583 -0.5223  0.3824 -0.3096
 8617TIP3   OH247265   2.076   6.302  12.847  0.1767  0.1685  0.6724
 8617TIP3    H147266   2.059   6.224  12.899  1.4128 -0.7828 -0.2853
 8617TIP3    H247267   1.990   6.329  12.815 -0.0794 -2.2706 -0.9646
 8618TIP3   OH247268   3.099   0.977  15.708 -0.6861  0.2665 -0.0752
 8618TIP3    H147269   3.108   1.065  15.745  1.0137 -0.2802  0.9454
 8618TIP3    H247270   3.007   0.970  15.683 -0.8957  2.2432  0.0262
 8619TIP3   OH247271   0.337   4.897   2.190  0.5127 -0.1795 -0.1808
 8619TIP3    H147272   0.320   4.958   2.118  0.7971 -0.1799 -0.2481
 8619TIP3    H247273   0.355   4.954   2.265  0.0581 -0.1772 -0.0664
 8620TIP3   OH247274   3.095   5.803  11.899  0.0174 -0.1145  0.3714
 8620TIP3    H147275   3.073   5.738  11.832  1.0904  0.2428 -0.3553
 8620TIP3    H247276   3.018   5.804  11.957 -1.0808 -0.2165 -1.0142
 8621TIP3   OH247277   2.696   5.291   3.541  0.4306  0.1183  0.7159
 8621TIP3    H147278   2.730   5.224   3.600  0.7326  1.3346  1.9962
 8621TIP3    H247279   2.745   5.370   3.564  0.1925  0.7541 -0.8444
 8622TIP3   OH247280   1.858   3.322   1.187  0.1359  0.2093 -0.2589
 8622TIP3    H147281   1.877   3.381   1.115 -0.3827  0.4909 -0.1691
 8622TIP3    H247282   1.812   3.249   1.147  3.1532 -1.5622 -0.8595
 8623TIP3   OH247283   5.115   0.062  16.910 -0.0906  0.1254 -0.1756
 8623TIP3    H147284   5.192   0.113  16.888 -0.3733  0.6375  0.0131
 8623TIP3    H247285   5.079   0.104  16.988 -0.2184 -0.4777  0.0988
 8624TIP3   OH247286   2.055   3.209   2.494  0.0998 -0.1157 -0.3033
 8624TIP3    H147287   1.960   3.223   2.496  0.2736  1.2059 -0.6814
 8624TIP3    H247288   2.090   3.269   2.559  0.6321 -1.1757  0.4117
 8625TIP3   OH247289   3.189   3.687  11.082 -0.1201  0.2281  0.0299
 8625TIP3    H147290   3.223   3.671  11.170  0.0961  0.1262 -0.0718
 8625TIP3    H247291   3.102   3.648  11.083 -0.9342  1.9266  0.8143
 8626TIP3   OH247292   1.793   1.202   0.414 -0.0963  0.5117  0.4636
 8626TIP3    H147293   1.787   1.106   0.411  1.3796  0.4139 -0.1071
 8626TIP3    H247294   1.762   1.230   0.328  2.2426  0.3273 -0.5053
 8627TIP3   OH247295   1.779   0.341   0.124  1.1025  0.0987 -0.3401
 8627TIP3    H147296   1.793   0.246   0.121 -0.4009 -0.1362 -0.3800
 8627TIP3    H247297   1.689   0.354   0.096  0.9844  1.4648  0.5369
 8628TIP3   OH247298   4.713   3.939   1.835  0.2851  0.3877  0.2827
 8628TIP3    H147299   4.808   3.935   1.832  0.2698  0.1795 -0.0609
 8628TIP3    H247300   4.686   3.851   1.862  0.2157  0.6671  1.1262
 8629TIP3   OH247301   0.803   4.715  16.393 -0.0905  0.5302  0.4491
 8629TIP3    H147302   0.721   4.746  16.353 -0.0992 -0.0090  0.0357
 8629TIP3    H247303   0.800   4.749  16.482 -0.3708  1.2192  0.1820
 8630TIP3   OH247304   2.827   2.785   2.926  0.1542  0.1336 -0.1033
 8630TIP3    H147305   2.888   2.734   2.979 -0.0217  1.0514  1.0300
 8630TIP3    H247306   2.883   2.836   2.867  0.3320 -1.2652 -1.1913
 8631TIP3   OH247307   1.722   1.290  16.507 -0.2075  0.0909 -0.1035
 8631TIP3    H147308   1.662   1.340  16.452 -0.9531  0.5802  1.1051
 8631TIP3    H247309   1.739   1.210  16.457 -0.4149  0.7459 -1.2693
 8632TIP3   OH247310   1.240   0.874  13.805  0.1940  0.2290 -0.1302
 8632TIP3    H147311   1.195   0.902  13.726  0.3622  1.3390  0.1546
 8632TIP3    H247312   1.184   0.904  13.877  0.5976  0.2311  0.1896
 8633TIP3   OH247313   1.356   2.524  16.680 -0.6167 -0.8535 -0.0469
 8633TIP3    H147314   1.358   2.546  16.773  0.6997  0.4552 -0.3421
 8633TIP3    H247315   1.430   2.464  16.668  0.0723  0.0567 -0.4697
 8634TIP3   OH247316   5.986   6.712  14.768 -0.3285 -0.2088  0.9120
 8634TIP3    H147317   6.027   6.731  14.853  0.8586 -0.3391  0.3905
 8634TIP3    H247318   5.970   6.798  14.730  0.0188 -0.1601  0.8700
 8635TIP3   OH247319   3.303   3.482  11.945 -0.4096  0.5079 -0.0516
 8635TIP3    H147320   3.315   3.533  11.865 -0.6523 -1.1484 -1.1894
 8635TIP3    H247321   3.302   3.391  11.916 -0.3157 -0.1554  1.8706
 8636TIP3   OH247322   3.504   0.746   1.217  0.1255  0.0205  0.4348
 8636TIP3    H147323   3.430   0.794   1.255  0.7627  1.7278 -0.3411
 8636TIP3    H247324   3.560   0.815   1.181  2.5835 -1.1151  1.8151
 8637TIP3   OH247325   4.940   4.666   5.964  0.2005  0.0235  0.1596
 8637TIP3    H147326   4.870   4.602   5.979  0.7455 -1.4349 -2.8168
 8637TIP3    H247327   4.992   4.664   6.043  0.3793 -3.5567  0.1016
 8638TIP3   OH247328   6.774   4.773   2.582 -0.2895  0.7488  0.3040
 8638TIP3    H147329   6.706   4.709   2.562 -0.6706  1.2098  0.1215
 8638TIP3    H247330   6.802   4.804   2.496  0.4986  0.2099  0.3503
 8639TIP3   OH247331   3.692   3.450  16.632 -0.6524 -0.2420 -0.1144
 8639TIP3    H147332   3.738   3.521  16.676 -1.8733 -0.4252  1.5685
 8639TIP3    H247333   3.700   3.470  16.539  0.4652  1.1816  0.2543
 8640TIP3   OH247334   4.114   3.141   0.224 -0.2752  0.1099  0.0455
 8640TIP3    H147335   4.133   3.201   0.296 -0.4027 -1.9364  1.8881
 8640TIP3    H247336   4.036   3.093   0.253  0.5850 -1.8409 -0.7019
 8641TIP3   OH247337   2.712   0.379  12.617  0.2192 -0.0369  0.1330
 8641TIP3    H147338   2.775   0.435  12.663  0.3147 -0.2315  0.2460
 8641TIP3    H247339   2.766   0.306  12.584  0.0813 -0.1130  0.0761
 8642TIP3   OH247340   4.485   6.549   0.689 -1.0557  0.2891  0.1055
 8642TIP3    H147341   4.458   6.585   0.604  0.7670  1.4059 -0.0357
 8642TIP3    H247342   4.569   6.507   0.672  0.4074  2.3665  1.7355
 8643TIP3   OH247343   4.209   0.609   0.268  0.0874 -0.1317  0.3482
 8643TIP3    H147344   4.142   0.666   0.305 -0.9553 -0.5736 -0.7867
 8643TIP3    H247345   4.286   0.665   0.257 -0.8994  1.0591 -0.7039
 8644TIP3   OH247346   1.310   3.343  17.170  0.1743 -0.3902  0.1536
 8644TIP3    H147347   1.240   3.332  17.234  0.5033 -0.1504  0.5553
 8644TIP3    H247348   1.282   3.290  17.095 -0.8315  0.3495 -0.0136
 8645TIP3   OH247349   0.581   2.533  14.453 -0.2474 -0.0992 -0.2804
 8645TIP3    H147350   0.673   2.516  14.470 -0.2276 -0.9772 -1.2056
 8645TIP3    H247351   0.536   2.501  14.532  0.0992 -1.2016 -0.5232
 8646TIP3   OH247352   4.421   2.672   1.323  0.0145  0.3650  0.0124
 8646TIP3    H147353   4.420   2.634   1.235  1.7397 -0.3152  0.2593
 8646TIP3    H247354   4.407   2.766   1.308 -0.6189  0.1341 -0.9086
 8647TIP3   OH247355   1.854   4.365  16.807 -0.0707 -0.3554  0.0774
 8647TIP3    H147356   1.848   4.274  16.838  2.1426 -0.4816  0.3713
 8647TIP3    H247357   1.825   4.362  16.716 -0.8574 -1.1871  0.3481
 8648TIP3   OH247358   3.230   4.722   0.894 -0.4001  0.0246  0.2898
 8648TIP3    H147359   3.268   4.786   0.834  0.8570  0.8976  1.9273
 8648TIP3    H247360   3.140   4.753   0.908 -0.3305  0.4722 -0.2192
 8649TIP3   OH247361   3.314   6.533  12.498  0.1882 -0.3996 -0.2124
 8649TIP3    H147362   3.397   6.532  12.544 -0.4398  0.2693  0.9860
 8649TIP3    H247363   3.279   6.620  12.513 -0.8575 -0.7554 -0.4717
 8650TIP3   OH247364   1.166   6.494  16.268  0.4521  0.0826  0.6151
 8650TIP3    H147365   1.208   6.434  16.206  0.6131 -1.4304  2.1166
 8650TIP3    H247366   1.093   6.443  16.305  0.7982  0.6793  2.1734
 8651TIP3   OH247367   5.546   0.556   3.839  0.0992 -0.3790 -0.8371
 8651TIP3    H147368   5.597   0.629   3.872 -0.6136  0.1149 -0.8135
 8651TIP3    H247369   5.478   0.596   3.785 -0.5428 -0.9948 -0.5009
 8652TIP3   OH247370   1.574   2.712  13.027 -0.3617 -0.1593  0.0436
 8652TIP3    H147371   1.590   2.628  13.069 -0.8315 -0.2551  0.0280
 8652TIP3    H247372   1.608   2.777  13.089  0.6354 -0.3873 -0.2513
 8653TIP3   OH247373   3.492   6.716   5.925 -0.1099 -0.4414 -0.0668
 8653TIP3    H147374   3.455   6.751   5.845 -1.2873 -0.3443  0.5041
 8653TIP3    H247375   3.551   6.785   5.957  0.2734 -0.4350 -0.7665
 8654TIP3   OH247376   5.296   0.338  11.442  0.7492 -0.6058  0.4169
 8654TIP3    H147377   5.227   0.288  11.486  0.8705  0.0371  1.3790
 8654TIP3    H247378   5.283   0.320  11.349 -0.1982 -1.1511  0.6363
 8655TIP3   OH247379   4.003   2.463   1.429 -0.4426 -0.4160  0.7192
 8655TIP3    H147380   4.069   2.465   1.360  0.0722  1.2752  1.2122
 8655TIP3    H247381   4.015   2.378   1.472  0.4720 -0.7057 -0.0767
 8656TIP3   OH247382   2.325   2.996  16.900  0.1557  0.6195  0.6503
 8656TIP3    H147383   2.244   2.965  16.859  0.7800 -0.6916  0.3406
 8656TIP3    H247384   2.320   2.963  16.990  1.3113 -1.4571  0.0279
 8657TIP3   OH247385   4.997   3.728   2.300  0.0431 -0.1476 -0.2428
 8657TIP3    H147386   4.973   3.743   2.392  0.8583 -0.1278 -0.0227
 8657TIP3    H247387   4.922   3.760   2.250 -0.3882 -0.1074  0.4139
 8658TIP3   OH247388   6.629   5.929   3.747  0.2588 -0.6248 -0.3905
 8658TIP3    H147389   6.548   5.908   3.793  0.0668  1.2237  0.2076
 8658TIP3    H247390   6.600   5.966   3.663  0.1595  3.3843  1.1588
 8659TIP3   OH247391   3.218   5.124   0.158  0.6814  0.5142  0.2455
 8659TIP3    H147392   3.123   5.122   0.161  0.6671  0.7900 -0.0637
 8659TIP3    H247393   3.240   5.211   0.125  0.9744 -0.3805 -2.1304
 8660TIP3   OH247394   6.664   6.225  12.418 -0.2749 -0.8629 -0.3033
 8660TIP3    H147395   6.671   6.215  12.513 -0.3157 -0.2751 -0.2321
 8660TIP3    H247396   6.587   6.174  12.394 -1.6505  0.8179  0.3098
 8661TIP3   OH247397   1.672   4.770   5.302  0.3267  0.1004  0.1285
 8661TIP3    H147398   1.614   4.845   5.315 -0.4333 -0.3057 -0.8006
 8661TIP3    H247399   1.643   4.731   5.220  2.0581 -0.0236 -0.4643
 8662TIP3   OH247400   2.845   2.165   0.575  0.1770  0.0991 -0.2052
 8662TIP3    H147401   2.838   2.167   0.670 -1.6845  2.6813 -0.2943
 8662TIP3    H247402   2.895   2.085   0.556 -1.9143 -2.1028  2.7509
 8663TIP3   OH247403   1.206   3.646  12.459  0.4564 -0.4399 -0.2094
 8663TIP3    H147404   1.288   3.605  12.486  2.0763  1.8167 -1.2856
 8663TIP3    H247405   1.193   3.617  12.369  0.4705 -0.2554 -0.2716
 8664TIP3   OH247406   2.872   6.131  16.350 -0.2761 -0.4811 -0.0440
 8664TIP3    H147407   2.872   6.064  16.419  0.9202 -0.3324  0.1082
 8664TIP3    H247408   2.955   6.119  16.305  0.6556  1.8734  0.9320
 8665TIP3   OH247409   2.269   0.043   5.721  0.2959 -0.1437 -0.0326
 8665TIP3    H147410   2.318   0.084   5.649 -1.0321 -0.8610 -1.4182
 8665TIP3    H247411   2.183   0.023   5.682 -0.4213 -0.6595  1.7458
 8666TIP3   OH247412   5.446   2.317   0.110 -0.7338  0.1381 -0.3024
 8666TIP3    H147413   5.517   2.363   0.156 -0.6262 -2.4629  2.4155
 8666TIP3    H247414   5.428   2.240   0.164 -2.9430 -1.4366 -3.0096
 8667TIP3   OH247415   2.615   0.539  13.612 -0.2768  0.1501 -0.3882
 8667TIP3    H147416   2.671   0.473  13.570 -0.6404 -0.1844 -0.3526
 8667TIP3    H247417   2.612   0.611  13.549  0.0916  0.1162 -0.4467
 8668TIP3   OH247418   2.957   5.677   2.382 -0.4105 -0.1037  0.1950
 8668TIP3    H147419   2.993   5.763   2.359 -1.1256 -0.3757 -2.1314
 8668TIP3    H247420   2.999   5.656   2.466 -1.9386  3.5043  2.1146
 8669TIP3   OH247421   2.202   6.098   4.065 -0.1112 -0.5241 -0.1376
 8669TIP3    H147422   2.112   6.110   4.035 -0.6611 -1.9339  0.8593
 8669TIP3    H247423   2.247   6.179   4.040 -2.1350  1.0828  1.1343
 8670TIP3   OH247424   5.614   5.265  11.757 -0.1102  0.3900  0.0206
 8670TIP3    H147425   5.616   5.361  11.752  0.1838  0.5209  1.8730
 8670TIP3    H247426   5.692   5.237  11.709  1.2981  1.2511  1.7056
 8671TIP3   OH247427   0.734   2.840  13.579  0.8170  0.1686  0.5346
 8671TIP3    H147428   0.728   2.907  13.511  2.4244 -0.0318  0.1721
 8671TIP3    H247429   0.661   2.860  13.638 -0.1095  0.8459 -0.7870
 8672TIP3   OH247430   1.046   5.172  13.204 -0.2268 -0.1518 -0.1546
 8672TIP3    H147431   1.078   5.158  13.293 -0.4584  0.5602  0.0486
 8672TIP3    H247432   0.975   5.236  13.214 -1.2381 -1.1697 -0.6843
 8673TIP3   OH247433   3.408   0.563  15.807  0.1645  0.0261 -0.1352
 8673TIP3    H147434   3.469   0.626  15.770  0.7866 -0.3502  0.2355
 8673TIP3    H247435   3.457   0.482  15.812 -0.6856 -0.5421 -0.7670
 8674TIP3   OH247436   2.474   0.668   2.169 -0.1498 -0.7888  0.4228
 8674TIP3    H147437   2.491   0.582   2.207  0.4527  0.1563  2.4249
 8674TIP3    H247438   2.419   0.713   2.234 -0.8831  0.1925 -0.8027
 8675TIP3   OH247439   6.224   0.555  13.120 -0.0491  0.0771  0.2630
 8675TIP3    H147440   6.242   0.480  13.064  2.5624  0.6508  0.2046
 8675TIP3    H247441   6.224   0.520  13.209  0.7497 -0.0670  0.2083
 8676TIP3   OH247442   0.462   3.018   6.066  0.1685 -0.2512 -0.5759
 8676TIP3    H147443   0.417   3.086   6.017  0.3533 -0.0900 -0.5257
 8676TIP3    H247444   0.446   2.938   6.017 -0.3435 -0.2340 -0.4481
 8677TIP3   OH247445   1.524   2.236   0.464  0.1868  0.6318  0.1178
 8677TIP3    H147446   1.452   2.209   0.406  0.3313  2.4898 -0.9992
 8677TIP3    H247447   1.586   2.163   0.461 -0.9430 -0.3671 -0.0610
 8678TIP3   OH247448   5.304   1.333   1.167  0.4766  0.3674 -0.0857
 8678TIP3    H147449   5.328   1.247   1.134  2.9740  0.2047  1.8947
 8678TIP3    H247450   5.372   1.392   1.135 -0.8449  1.5384 -0.8802
 8679TIP3   OH247451   0.906   4.290  17.132  0.1728 -0.3103 -0.3173
 8679TIP3    H147452   0.907   4.218  17.069  1.0484  0.2914 -1.0193
 8679TIP3    H247453   0.990   4.335  17.118  0.6678 -0.5079  1.6931
 8680TIP3   OH247454   2.308   4.525   0.251  0.0260  0.7358  0.1530
 8680TIP3    H147455   2.248   4.597   0.231  0.2004  0.1983 -2.8056
 8680TIP3    H247456   2.253   4.446   0.244 -0.0082  0.4438  2.6782
 8681TIP3   OH247457   5.480   5.299   5.372  0.3511  0.8924  0.0084
 8681TIP3    H147458   5.402   5.247   5.356  1.1179 -0.4752  0.5743
 8681TIP3    H247459   5.452   5.389   5.356 -1.1250  0.3653 -0.5526
 8682TIP3   OH247460   6.737   1.264   2.143 -0.7103  0.1486  0.8789
 8682TIP3    H147461   6.784   1.307   2.214  0.4633 -0.5984  0.5816
 8682TIP3    H247462   6.746   1.324   2.068  1.5014 -0.8221  0.2718
 8683TIP3   OH247463   1.917   0.102  13.336 -0.3469 -0.3001  0.1430
 8683TIP3    H147464   1.835   0.053  13.334 -0.6251  0.1854 -0.5693
 8683TIP3    H247465   1.964   0.073  13.258 -0.2951  0.1897 -0.0093
 8684TIP3   OH247466   3.142   2.996  10.368 -0.3062 -0.3281  0.8615
 8684TIP3    H147467   3.190   2.959  10.442  2.0740  0.5718 -0.1159
 8684TIP3    H247468   3.191   2.967  10.291  0.2137  2.6721 -0.0757
 8685TIP3   OH247469   2.938   2.999  13.034 -0.3134  0.3187 -0.0058
 8685TIP3    H147470   2.874   2.980  12.966 -1.4027 -0.2303  1.1450
 8685TIP3    H247471   2.976   2.914  13.056 -1.4925  0.1533  1.5287
 8686TIP3   OH247472   6.423   3.674  16.810  0.1052  0.3799 -0.0918
 8686TIP3    H147473   6.396   3.651  16.898  0.4863 -1.5207 -0.4402
 8686TIP3    H247474   6.446   3.767  16.815  0.4650  0.2117  1.8788
 8687TIP3   OH247475   6.029   1.334   2.137  0.0176 -0.0406  0.7917
 8687TIP3    H147476   6.051   1.383   2.217 -4.3843  0.6719  1.8685
 8687TIP3    H247477   5.935   1.348   2.126  0.0786 -1.4990 -3.6818
 8688TIP3   OH247478   0.880   4.685  12.441  0.1235  0.7848 -0.6780
 8688TIP3    H147479   0.932   4.763  12.460  1.1969  0.4354 -2.0284
 8688TIP3    H247480   0.824   4.710  12.367  0.5266  0.2727 -1.1684
 8689TIP3   OH247481   5.299   2.015  15.815 -0.0026 -1.0923 -0.1020
 8689TIP3    H147482   5.275   2.018  15.722 -0.3614  0.2584  0.0234
 8689TIP3    H247483   5.227   1.968  15.857 -0.2654 -0.9362 -0.3728
 8690TIP3   OH247484   6.453   5.878  15.191  0.3698 -0.9946  0.1276
 8690TIP3    H147485   6.405   5.946  15.144  1.8961  0.4000  0.4811
 8690TIP3    H247486   6.415   5.878  15.279  1.7618  1.0355  0.8157
 8691TIP3   OH247487   0.559   2.464   3.580  0.0642 -0.2281 -0.8195
 8691TIP3    H147488   0.478   2.413   3.590 -0.2956  0.2460 -1.2147
 8691TIP3    H247489   0.561   2.487   3.487  0.3437  0.2647 -0.6960
 8692TIP3   OH247490   1.044   4.871  10.914  0.1596  0.3272  0.1253
 8692TIP3    H147491   1.107   4.855  10.843 -1.1917 -0.4881 -0.9379
 8692TIP3    H247492   0.969   4.910  10.870 -1.2271 -1.3847  0.8666
 8693TIP3   OH247493   5.688   2.603  14.814 -0.8917 -0.4078  0.1951
 8693TIP3    H147494   5.779   2.580  14.791 -0.2084 -0.2579  2.4707
 8693TIP3    H247495   5.645   2.616  14.730  1.3560  0.1182 -0.9621
 8694TIP3   OH247496   0.319   5.099   3.997 -0.0640  0.2821  0.2953
 8694TIP3    H147497   0.307   5.007   3.975 -1.5877 -0.0248  2.1460
 8694TIP3    H247498   0.410   5.118   3.974 -0.6305 -0.6734 -3.3684
 8695TIP3   OH247499   4.514   4.858   2.173 -0.2655 -0.1446 -0.6173
 8695TIP3    H147500   4.441   4.907   2.209  0.3690  0.2176  0.2082
 8695TIP3    H247501   4.525   4.892   2.084 -0.7414  0.1945 -0.5452
 8696TIP3   OH247502   5.566   6.743  14.249  0.3884  0.0413 -0.0109
 8696TIP3    H147503   5.542   6.819  14.303  0.5460 -0.3620  0.6273
 8696TIP3    H247504   5.520   6.670  14.289 -1.1664  0.0560 -1.6412
 8697TIP3   OH247505   6.421   5.815  15.480 -0.0600  0.3735 -0.1953
 8697TIP3    H147506   6.381   5.840  15.563 -0.5448 -0.3616 -0.1945
 8697TIP3    H247507   6.512   5.845  15.487 -0.5394  1.9105 -0.1278
 8698TIP3   OH247508   4.548   5.520   3.056 -0.0729 -0.2197 -0.4576
 8698TIP3    H147509   4.510   5.497   3.140 -0.4442 -2.3357 -1.1412
 8698TIP3    H247510   4.606   5.447   3.035 -0.2636  0.0815 -2.1858
 8699TIP3   OH247511   4.816   0.914  11.721 -0.4066 -0.5336  0.0497
 8699TIP3    H147512   4.773   0.979  11.664  0.4367  0.0899  0.1076
 8699TIP3    H247513   4.898   0.956  11.747  0.2615 -1.7097 -0.0871
 8700TIP3   OH247514   6.042   6.568   4.923 -0.1143  0.1329  0.0473
 8700TIP3    H147515   6.091   6.511   4.982  0.4217 -0.6585 -1.1074
 8700TIP3    H247516   6.109   6.611   4.870 -0.6155 -0.5428 -1.1855
 8701TIP3   OH247517   1.067   4.678   5.599  0.2892  0.3537  0.3045
 8701TIP3    H147518   1.083   4.589   5.632  1.5601  0.0061 -1.1275
 8701TIP3    H247519   1.151   4.723   5.611  0.2407  0.7506 -0.8006
 8702TIP3   OH247520   6.470   5.525   1.273  0.0258  0.1956 -0.3329
 8702TIP3    H147521   6.417   5.448   1.251  0.0521  0.3250 -0.8507
 8702TIP3    H247522   6.550   5.489   1.312 -0.2982 -0.0106  0.1461
 8703TIP3   OH247523   3.882   4.050  14.944  0.0151 -0.0462  0.1542
 8703TIP3    H147524   3.955   4.016  14.996  0.6991 -0.0206 -0.7639
 8703TIP3    H247525   3.814   4.069  15.008  0.2439 -1.5165  0.8829
 8704TIP3   OH247526   6.609   3.026   2.147 -0.4879  0.0263  0.3099
 8704TIP3    H147527   6.590   2.992   2.059 -0.5895  0.8709 -0.0009
 8704TIP3    H247528   6.570   2.961   2.206 -1.1283 -0.1388 -0.2798
 8705TIP3   OH247529   4.532   6.436  13.679  0.1427  0.5338  0.4806
 8705TIP3    H147530   4.459   6.489  13.645  0.6628  2.0831  1.6665
 8705TIP3    H247531   4.610   6.476  13.640  0.4035 -1.0529 -0.7021
 8706TIP3   OH247532   6.095   3.063   3.860 -0.0616 -0.4211 -0.1902
 8706TIP3    H147533   6.047   3.009   3.797 -0.5478  0.7427 -0.8656
 8706TIP3    H247534   6.068   3.153   3.839  1.7096  0.1961  0.0356
 8707TIP3   OH247535   4.001   6.766   5.168 -0.0755 -0.3360  0.4015
 8707TIP3    H147536   3.948   6.846   5.161  2.0405  1.0308 -1.0210
 8707TIP3    H247537   4.010   6.736   5.077  1.1415 -0.8237  0.6745
 8708TIP3   OH247538   3.805   3.392   2.893  0.4280 -0.0620  0.4369
 8708TIP3    H147539   3.886   3.415   2.938  0.8786 -0.3805 -0.1953
 8708TIP3    H247540   3.826   3.313   2.845 -0.1551  0.0632 -0.0352
 8709TIP3   OH247541   2.877   4.690  16.221  0.0722  0.0294 -0.1291
 8709TIP3    H147542   2.896   4.705  16.129  0.9320  1.0610  0.2025
 8709TIP3    H247543   2.879   4.777  16.261  2.5075 -0.6117  1.3761
 8710TIP3   OH247544   2.591   1.966   3.495 -0.2704 -0.6138 -0.6330
 8710TIP3    H147545   2.612   1.905   3.565 -0.0511 -1.3294 -1.3095
 8710TIP3    H247546   2.501   1.945   3.470 -0.9903  0.8242  0.6117
 8711TIP3   OH247547   0.773   1.971  15.432 -0.1828  0.0955  0.0992
 8711TIP3    H147548   0.679   1.970  15.446 -0.3540 -1.4044 -0.9414
 8711TIP3    H247549   0.786   1.922  15.351  1.5747 -0.8500  0.8948
 8712TIP3   OH247550   0.260   1.323   2.858  0.0463 -0.0701 -0.2525
 8712TIP3    H147551   0.222   1.285   2.937  1.3728 -0.9510 -0.0102
 8712TIP3    H247552   0.307   1.251   2.817  0.1870  0.6237 -1.3331
 8713TIP3   OH247553   3.435   0.747   1.739  0.1141  0.2876  0.5416
 8713TIP3    H147554   3.373   0.819   1.733  0.6241  0.8677  1.7337
 8713TIP3    H247555   3.485   0.751   1.657  0.4599  1.6147  0.7905
 8714TIP3   OH247556   2.271   4.586  16.674 -0.5566  0.5313  0.2116
 8714TIP3    H147557   2.355   4.630  16.682 -0.1672  0.0897 -1.0625
 8714TIP3    H247558   2.278   4.537  16.591 -1.4901 -0.7501  0.8539
 8715TIP3   OH247559   4.072   2.272   1.672 -1.0193  0.5476 -0.1407
 8715TIP3    H147560   4.015   2.273   1.748  1.3043  0.5638  1.7220
 8715TIP3    H247561   4.091   2.179   1.657  1.9674  0.5995  2.2275
 8716TIP3   OH247562   2.323   2.010  15.294  0.6813 -0.4984  0.1099
 8716TIP3    H147563   2.288   2.099  15.301 -1.7429 -1.0153 -3.0945
 8716TIP3    H247564   2.406   2.021  15.248  1.3564  0.1988  1.4331
 8717TIP3   OH247565   5.505   2.059   4.410 -0.3989 -0.6462 -0.1321
 8717TIP3    H147566   5.559   2.031   4.336  0.1937 -0.2116  0.1294
 8717TIP3    H247567   5.455   2.134   4.376 -2.3102 -2.1944 -0.9674
 8718TIP3   OH247568   5.371   4.531   6.285  0.6207  0.3664  0.0644
 8718TIP3    H147569   5.384   4.518   6.379  1.3448  2.6451  0.3563
 8718TIP3    H247570   5.282   4.567   6.278  0.6858  0.5047 -0.0768
 8719TIP3   OH247571   0.804   4.762   0.677 -0.2409 -0.0561 -0.3671
 8719TIP3    H147572   0.850   4.771   0.760 -0.7081  0.2735 -0.1370
 8719TIP3    H247573   0.849   4.690   0.632  0.9198  0.6976 -0.4512
 8720TIP3   OH247574   1.385   6.536   0.792 -0.2872 -0.0803  0.3532
 8720TIP3    H147575   1.311   6.475   0.795 -1.2562  1.0831  2.6519
 8720TIP3    H247576   1.344   6.623   0.794  1.1069  0.6178 -0.4347
 8721TIP3   OH247577   5.217   4.860  14.032  0.1981  0.1985 -0.3860
 8721TIP3    H147578   5.139   4.810  14.010 -0.8421  0.8574  1.5561
 8721TIP3    H247579   5.186   4.950  14.045  1.2798  0.5064  0.2759
 8722TIP3   OH247580   0.454   6.451  11.703 -0.6387  0.3505  0.0372
 8722TIP3    H147581   0.544   6.455  11.733 -0.7675 -1.4483  0.7558
 8722TIP3    H247582   0.420   6.540  11.715  0.8372  0.8898  0.3357
 8723TIP3   OH247583   4.074   1.508  11.926  0.5943 -0.4833 -0.2986
 8723TIP3    H147584   3.979   1.516  11.911  0.6150 -1.7257 -1.2781
 8723TIP3    H247585   4.113   1.565  11.860  0.5321 -0.1271 -0.0284
 8724TIP3   OH247586   6.240   5.350  15.864  0.1438  0.2692 -0.2257
 8724TIP3    H147587   6.292   5.322  15.940 -0.0115 -1.6229 -0.7828
 8724TIP3    H247588   6.284   5.310  15.789  0.3292  2.1635 -1.1952
 8725TIP3   OH247589   2.473   6.546  13.832 -0.7919  0.6639 -0.5394
 8725TIP3    H147590   2.507   6.566  13.745  0.7280  0.6906  0.0377
 8725TIP3    H247591   2.382   6.575  13.830  0.2644  4.3958 -0.9083
 8726TIP3   OH247592   2.669   2.978   4.356 -0.4629  0.1691 -0.3724
 8726TIP3    H147593   2.740   2.964   4.419 -0.9927  2.1680  0.7633
 8726TIP3    H247594   2.678   3.070   4.331 -1.4246 -0.0898 -1.7982
 8727TIP3   OH247595   3.394   2.052  16.352 -0.4390  0.3050 -0.3661
 8727TIP3    H147596   3.315   2.055  16.297  0.9781 -2.2235 -2.8187
 8727TIP3    H247597   3.465   2.071  16.291  1.0485 -0.2489  1.1455
 8728TIP3   OH247598   5.491   6.413  12.844 -0.2666  0.5954  0.2375
 8728TIP3    H147599   5.488   6.470  12.921  1.7785  1.4471 -0.2596
 8728TIP3    H247600   5.569   6.441  12.796 -1.3346 -0.0767 -2.0344
 8729TIP3   OH247601   4.850   0.874   5.652 -0.1466  0.6571 -1.1196
 8729TIP3    H147602   4.878   0.784   5.639 -0.8937  0.1353  0.6689
 8729TIP3    H247603   4.756   0.869   5.668  0.0550  1.5733  0.5265
 8730TIP3   OH247604   5.346   5.374  10.945 -0.0040  0.6283  0.0445
 8730TIP3    H147605   5.393   5.340  11.021 -0.2715 -0.7216 -0.3651
 8730TIP3    H247606   5.302   5.453  10.977  1.9565  1.5691  0.6004
 8731TIP3   OH247607   5.577   5.560   6.624  0.3004 -0.0074 -0.2111
 8731TIP3    H147608   5.659   5.597   6.657  1.3345 -1.4511 -0.9704
 8731TIP3    H247609   5.587   5.465   6.637 -0.5251 -0.3629 -1.8087
 8732TIP3   OH247610   6.028   4.725   2.248  0.3681  0.0609 -0.3071
 8732TIP3    H147611   6.002   4.790   2.314  1.9844  1.6867 -1.1481
 8732TIP3    H247612   5.950   4.672   2.234 -0.6910  1.1075  1.2624
 8733TIP3   OH247613   3.033   4.163  12.067  0.5364  0.0700 -0.5144
 8733TIP3    H147614   3.096   4.225  12.029  1.1012 -0.4029 -0.3545
 8733TIP3    H247615   2.949   4.191  12.031  0.6914  1.3043  0.0312
 8734TIP3   OH247616   4.854   1.952   1.081 -0.1823  0.1942  0.5614
 8734TIP3    H147617   4.876   2.044   1.074 -0.3387  0.2789  1.0937
 8734TIP3    H247618   4.937   1.906   1.074  0.1891  0.4963  2.3972
 8735TIP3   OH247619   1.409   5.278   6.201 -0.2273  0.6148  0.6238
 8735TIP3    H147620   1.396   5.370   6.175  0.7068  0.6149  0.0954
 8735TIP3    H247621   1.494   5.278   6.245 -0.5144  0.1065  1.1818
 8736TIP3   OH247622   4.005   2.846  11.630 -0.2070 -0.1662  0.2648
 8736TIP3    H147623   4.017   2.940  11.616  1.0703 -0.4557 -0.7754
 8736TIP3    H247624   3.992   2.837  11.724  2.2086  0.8299  0.7651
 8737TIP3   OH247625   5.537   0.349   2.433  0.0433  0.3197  0.2406
 8737TIP3    H147626   5.598   0.333   2.505 -0.5332  0.8887  0.8652
 8737TIP3    H247627   5.564   0.287   2.365  0.5412 -0.2868  0.9709
 8738TIP3   OH247628   2.818   6.402  12.485  0.1269 -0.2286 -0.4132
 8738TIP3    H147629   2.734   6.361  12.503 -0.1862  0.3913 -0.4185
 8738TIP3    H247630   2.882   6.346  12.529 -0.4991  0.5824  1.6674
 8739TIP3   OH247631   5.026   3.748   3.463  0.6025 -0.2076 -0.1777
 8739TIP3    H147632   5.018   3.784   3.374 -0.0161  1.2074  0.4030
 8739TIP3    H247633   5.092   3.804   3.505  0.1621 -0.2191  0.5375
 8740TIP3   OH247634   6.746   0.072  16.784 -0.8314  0.1743  0.5763
 8740TIP3    H147635   6.813   0.034  16.728 -2.1003 -1.2939  0.0106
 8740TIP3    H247636   6.709   0.144  16.733  0.5100  1.2535  1.0425
 8741TIP3   OH247637   3.656   3.343  11.537 -0.2956 -0.2027 -0.1457
 8741TIP3    H147638   3.568   3.378  11.545  0.7309  2.4545  0.6169
 8741TIP3    H247639   3.702   3.407  11.483  1.3587 -1.1386  0.0877
 8742TIP3   OH247640   3.624   2.203   4.430 -0.0084  0.6275 -0.1808
 8742TIP3    H147641   3.648   2.287   4.469 -0.8975  0.6512  0.3459
 8742TIP3    H247642   3.529   2.197   4.444  0.3460 -1.4454  1.7545
 8743TIP3   OH247643   4.786   1.536   0.297  0.1785  0.0266  0.3797
 8743TIP3    H147644   4.864   1.591   0.306 -0.4850  0.9391  0.6841
 8743TIP3    H247645   4.793   1.498   0.209  1.4825 -0.7349  0.7839
 8744TIP3   OH247646   2.640   2.301   2.342 -0.4561 -0.1221 -0.1693
 8744TIP3    H147647   2.629   2.271   2.432  0.2745 -3.5617 -1.0555
 8744TIP3    H247648   2.588   2.239   2.290  1.6689 -0.2582 -2.3075
 8745TIP3   OH247649   3.368   6.576   0.772 -0.1468  0.3680 -0.5664
 8745TIP3    H147650   3.355   6.575   0.677  2.0178 -0.4363 -0.9293
 8745TIP3    H247651   3.354   6.485   0.798 -1.0815  0.6528 -0.0256
 8746TIP3   OH247652   5.298   6.728   4.660  0.3472 -0.4302  0.5283
 8746TIP3    H147653   5.262   6.746   4.573 -0.1115 -0.8009  0.6411
 8746TIP3    H247654   5.393   6.728   4.646  0.2778 -0.5900  0.0090
 8747TIP3   OH247655   5.797   3.701  13.227 -0.0206  0.1414 -0.5076
 8747TIP3    H147656   5.789   3.691  13.132 -1.1963 -0.0799 -0.3928
 8747TIP3    H247657   5.750   3.626  13.263 -2.1758  1.7766  0.2791
 8748TIP3   OH247658   2.229   3.907   1.840 -0.0439  0.1199 -0.0921
 8748TIP3    H147659   2.309   3.856   1.832 -0.7545 -1.1618  0.5577
 8748TIP3    H247660   2.195   3.884   1.927 -1.1343  0.5768 -0.3758
 8749TIP3   OH247661   3.611   1.439   0.641  0.1096  0.1711  0.4700
 8749TIP3    H147662   3.603   1.352   0.680  0.9770 -0.4008 -0.5432
 8749TIP3    H247663   3.649   1.493   0.710 -0.8932 -0.1133  1.2707
 8750TIP3   OH247664   2.535   6.028  12.702 -0.5228 -0.1357  0.6274
 8750TIP3    H147665   2.518   6.087  12.776  1.4981  1.8427 -0.3730
 8750TIP3    H247666   2.542   6.086  12.626  2.6795 -1.4821 -0.2557
 8751TIP3   OH247667   3.383   3.061   4.505  0.5824 -0.1683 -0.0685
 8751TIP3    H147668   3.421   3.137   4.460  0.9786 -0.2804  0.0722
 8751TIP3    H247669   3.449   3.036   4.570  0.7950 -1.0987 -0.6166
 8752TIP3   OH247670   4.910   0.388  11.432 -0.1570 -0.3236 -0.3534
 8752TIP3    H147671   4.970   0.314  11.437 -2.4094 -2.3530 -1.1239
 8752TIP3    H247672   4.861   0.373  11.351 -2.0010  0.9202  0.4694
 8753TIP3   OH247673   5.940   3.481  15.766 -0.0605 -0.0122 -0.0139
 8753TIP3    H147674   5.857   3.443  15.793  0.2739  0.1080  1.2980
 8753TIP3    H247675   5.978   3.515  15.848  1.1839  0.0971 -0.6125
 8754TIP3   OH247676   0.229   4.119   5.092 -0.2946 -0.1161 -0.7537
 8754TIP3    H147677   0.197   4.093   5.178 -1.3157  1.0674 -0.7552
 8754TIP3    H247678   0.238   4.214   5.097 -1.3117  0.0910 -2.2580
 8755TIP3   OH247679   5.924   3.867   0.270  0.3212  1.2464 -0.3737
 8755TIP3    H147680   6.017   3.876   0.249  0.8594 -1.8689  0.2231
 8755TIP3    H247681   5.886   3.951   0.246  2.9255  1.9403 -2.5350
 8756TIP3   OH247682   0.854   0.537  15.170  0.3487 -0.0690 -0.5530
 8756TIP3    H147683   0.775   0.511  15.217  0.5430 -0.0727 -0.2251
 8756TIP3    H247684   0.923   0.534  15.236  0.9131 -1.5325 -1.1547
 8757TIP3   OH247685   0.011   5.147   1.548  0.0757  0.1394 -0.5116
 8757TIP3    H147686  -0.008   5.224   1.494  0.1302  2.1866  2.1728
 8757TIP3    H247687  -0.071   5.131   1.595  0.6725 -0.1446  0.4490
 8758TIP3   OH247688   1.962   3.956  14.240  0.5233 -0.4746 -0.4331
 8758TIP3    H147689   2.042   4.004  14.263 -0.4273  0.6123  0.7479
 8758TIP3    H247690   1.962   3.881  14.298  0.6308 -0.4130 -0.3536
 8759TIP3   OH247691   5.721   5.835  11.781 -0.1060  0.3457  0.3946
 8759TIP3    H147692   5.708   5.929  11.789 -1.4683  0.2275 -0.1896
 8759TIP3    H247693   5.669   5.798  11.853  0.1590  0.0311  0.4249
 8760TIP3   OH247694   1.651   3.414  16.089 -0.3474 -0.8004 -0.0578
 8760TIP3    H147695   1.628   3.321  16.078  0.3700 -0.9075 -0.7319
 8760TIP3    H247696   1.579   3.462  16.048 -0.3427 -1.0808 -0.3975
 8761TIP3   OH247697   3.888   3.505   5.826  0.6188  0.1030  0.5446
 8761TIP3    H147698   3.837   3.461   5.758 -0.6433 -1.1990  2.2618
 8761TIP3    H247699   3.965   3.539   5.779 -1.5140  1.7730 -2.0591
 8762TIP3   OH247700   0.723   1.803   3.888  0.1501  0.1804 -0.2517
 8762TIP3    H147701   0.665   1.848   3.827  0.4751 -0.4472 -1.0566
 8762TIP3    H247702   0.770   1.873   3.933 -2.5959  0.8220  1.9161
 8763TIP3   OH247703   5.820   1.384  16.845  0.2465  0.0520  0.2958
 8763TIP3    H147704   5.901   1.343  16.813  0.7192 -0.1686  1.7036
 8763TIP3    H247705   5.757   1.313  16.852  0.3397 -0.0120  0.4771
 8764TIP3   OH247706   5.027   4.785   2.689 -0.1340  0.1217  0.4802
 8764TIP3    H147707   5.080   4.860   2.718 -0.3171 -0.0169  1.2090
 8764TIP3    H247708   4.958   4.823   2.635 -0.7787  0.6092  1.5985
 8765TIP3   OH247709   6.337   3.511  14.520 -0.1144  0.7484 -0.4631
 8765TIP3    H147710   6.268   3.459  14.562  1.8079  0.0058  2.0249
 8765TIP3    H247711   6.300   3.599  14.513 -1.6504  0.1728 -0.1206
 8766TIP3   OH247712   1.415   4.462   1.904 -0.3644  0.4066  0.9281
 8766TIP3    H147713   1.444   4.370   1.912 -0.5542  0.3309  0.7342
 8766TIP3    H247714   1.460   4.506   1.976  0.7803  0.4264  0.2299
 8767TIP3   OH247715   2.188   4.799   4.618 -0.1582 -0.2624  0.2825
 8767TIP3    H147716   2.132   4.721   4.613 -2.2587  1.2014 -0.6098
 8767TIP3    H247717   2.267   4.775   4.570 -1.7083 -1.1602 -2.0257
 8768TIP3   OH247718   5.562   0.246  15.433 -0.4562  0.1665 -0.4020
 8768TIP3    H147719   5.518   0.275  15.353  1.0439  0.2616 -1.2349
 8768TIP3    H247720   5.535   0.155  15.444  1.5933 -0.8529 -2.7722
 8769TIP3   OH247721   0.678   6.095  14.530  0.1313 -0.6623  0.1667
 8769TIP3    H147722   0.613   6.026  14.523 -0.2632 -0.4882  1.8407
 8769TIP3    H247723   0.633   6.174  14.499  0.1047 -0.8467 -0.2809
 8770TIP3   OH247724   5.580   3.399  14.447 -1.0840  0.2865  0.1166
 8770TIP3    H147725   5.522   3.475  14.444 -0.2047  0.9645 -0.3930
 8770TIP3    H247726   5.611   3.395  14.537 -0.3861  1.1493 -0.0605
 8771TIP3   OH247727   1.165   0.660  13.466  0.5198 -0.1781 -0.2794
 8771TIP3    H147728   1.126   0.739  13.503  1.9419  0.4733 -0.0819
 8771TIP3    H247729   1.204   0.615  13.540 -0.0955 -0.9657 -0.4259
 8772TIP3   OH247730   6.383   3.802   4.015 -0.2228  0.4219 -0.4480
 8772TIP3    H147731   6.291   3.808   3.987 -0.3850 -2.5737 -0.8973
 8772TIP3    H247732   6.433   3.834   3.940 -0.8239 -3.1569 -2.5907
 8773TIP3   OH247733   0.886   3.091  14.441 -0.2926  0.2730  0.1982
 8773TIP3    H147734   0.793   3.092  14.416 -0.0809 -0.1736 -0.6120
 8773TIP3    H247735   0.924   3.019  14.391  0.3820  0.0869  0.9537
 8774TIP3   OH247736   0.610   5.106  15.208 -0.5652  0.1544 -0.0769
 8774TIP3    H147737   0.576   5.085  15.121  1.0046  2.4087 -1.3374
 8774TIP3    H247738   0.645   5.195  15.199  1.8375 -0.4533  2.2036
 8775TIP3   OH247739   2.685   4.674   0.708 -0.3688  0.2965  0.4625
 8775TIP3    H147740   2.732   4.653   0.627 -0.1578 -0.1654  0.7048
 8775TIP3    H247741   2.594   4.648   0.691 -0.6780  1.7216 -0.2151
 8776TIP3   OH247742   4.643   4.002  13.109  0.2289 -0.2084 -0.1140
 8776TIP3    H147743   4.603   3.983  13.024 -2.0011 -0.7457  0.9700
 8776TIP3    H247744   4.694   4.081  13.094 -1.1696  0.4703 -1.6696
 8777TIP3   OH247745   2.712   1.430   1.841  0.3822  0.1994  0.1231
 8777TIP3    H147746   2.805   1.452   1.839  0.1710  1.1589  0.1136
 8777TIP3    H247747   2.668   1.514   1.831 -0.5036 -0.0297  1.7243
 8778TIP3   OH247748   3.466   6.466   4.835 -0.0701  0.4452  0.2278
 8778TIP3    H147749   3.492   6.421   4.755 -0.0161  1.3799 -0.3035
 8778TIP3    H247750   3.530   6.439   4.901 -1.6044 -2.4093  0.7228
 8779TIP3   OH247751   6.586   1.439  16.166  0.2191  0.1979  0.1856
 8779TIP3    H147752   6.608   1.436  16.073  0.3548  0.3933  0.2111
 8779TIP3    H247753   6.539   1.357  16.182  1.8592 -0.7559  0.3612
 8780TIP3   OH247754   5.286   6.257  16.727  0.4334 -0.5635 -0.3329
 8780TIP3    H147755   5.264   6.209  16.806  1.3097  1.3197  1.1416
 8780TIP3    H247756   5.279   6.349  16.752  2.2518  0.0995 -1.9932
 8781TIP3   OH247757   3.099   6.147   2.116  0.5191 -0.1660 -0.4731
 8781TIP3    H147758   3.065   6.142   2.205 -0.9837 -1.2274 -1.0562
 8781TIP3    H247759   3.029   6.188   2.066  0.4169 -1.5656 -1.5429
 8782TIP3   OH247760   3.430   5.948  13.255  0.3796 -0.1488 -0.7160
 8782TIP3    H147761   3.362   5.949  13.322  1.3525 -0.8325  0.3117
 8782TIP3    H247762   3.392   5.899  13.182 -0.1605 -0.6600 -0.0968
 8783TIP3   OH247763   6.534   2.436  11.285 -0.2717  0.2976 -0.4805
 8783TIP3    H147764   6.463   2.380  11.255 -1.0133  1.5602 -1.1593
 8783TIP3    H247765   6.599   2.434  11.214 -0.8455  1.2359 -1.0392
 8784TIP3   OH247766   2.222   4.002  15.415  0.1993  0.2780  0.3276
 8784TIP3    H147767   2.248   3.910  15.421 -2.3413 -0.6581 -1.3139
 8784TIP3    H247768   2.240   4.026  15.324 -1.8999  0.4025 -0.1103
 8785TIP3   OH247769   3.392   2.621  15.158 -0.1983  0.2544 -0.1314
 8785TIP3    H147770   3.391   2.545  15.216  0.5120 -1.5364 -2.2994
 8785TIP3    H247771   3.476   2.663  15.176  0.0610 -0.3394  0.0997
 8786TIP3   OH247772   1.568   6.364   1.840 -0.2506  0.1123 -0.2035
 8786TIP3    H147773   1.543   6.455   1.822 -0.0832  0.1126 -0.4385
 8786TIP3    H247774   1.660   6.359   1.816 -0.8991 -0.8295 -2.9410
 8787TIP3   OH247775   2.175   6.492  11.995 -0.1334  0.1212  0.1810
 8787TIP3    H147776   2.159   6.536  11.911 -0.2694  0.6820  0.4950
 8787TIP3    H247777   2.128   6.546  12.059  0.3851 -0.0221  0.6861
 8788TIP3   OH247778   5.994   0.190  16.860  0.5734 -0.0023 -0.9525
 8788TIP3    H147779   6.031   0.190  16.948 -2.5500 -0.2799  0.5097
 8788TIP3    H247780   5.974   0.282  16.842 -1.4935 -0.1932  0.0064
 8789TIP3   OH247781   4.780   6.045  14.476 -0.3132 -0.3326 -0.2195
 8789TIP3    H147782   4.777   6.134  14.441  0.6930  0.3273  1.2842
 8789TIP3    H247783   4.779   5.989  14.398  4.2954  1.0914 -1.6185
 8790TIP3   OH247784   6.348   4.614   1.880 -0.0725  0.5510  0.8817
 8790TIP3    H147785   6.438   4.628   1.910 -0.9456  2.4963  2.8450
 8790TIP3    H247786   6.357   4.592   1.787  2.5287 -1.5345  1.4813
 8791TIP3   OH247787   2.583   4.947  13.706 -0.0998 -0.0452  0.0087
 8791TIP3    H147788   2.642   5.011  13.667 -1.4519  1.1325 -0.1617
 8791TIP3    H247789   2.634   4.866  13.708  0.3393  0.0169 -3.3859
 8792TIP3   OH247790   2.128   5.003   3.229 -0.0157 -0.7196  0.0200
 8792TIP3    H147791   2.221   4.979   3.227  0.4728  1.0973 -0.4028
 8792TIP3    H247792   2.127   5.091   3.266 -1.5706 -0.6777 -0.0829
 8793TIP3   OH247793   6.774   3.317  13.955 -0.0784 -0.3271  0.7757
 8793TIP3    H147794   6.800   3.316  13.863 -4.2358 -2.3094 -0.5806
 8793TIP3    H247795   6.816   3.240  13.993  0.0243 -0.6624 -0.0061
 8794TIP3   OH247796   3.923   6.761   4.845 -0.3832  0.6071 -0.4201
 8794TIP3    H147797   3.915   6.856   4.842 -2.6483  0.4495 -1.2087
 8794TIP3    H247798   3.843   6.729   4.806  0.6321 -1.6565 -0.8062
 8795TIP3   OH247799   3.069   3.430   5.161  0.1312 -0.2037  0.1081
 8795TIP3    H147800   3.061   3.335   5.170  2.0815 -0.5888 -1.4613
 8795TIP3    H247801   3.018   3.466   5.233 -2.9788 -2.3586 -0.8027
 8796TIP3   OH247802   2.770   5.322  12.410 -0.9062 -0.1215  0.8816
 8796TIP3    H147803   2.737   5.296  12.496  0.5799  0.0170  1.5265
 8796TIP3    H247804   2.808   5.243  12.373  0.4828  0.2984  1.3476
 8797TIP3   OH247805   4.523   4.846   0.436  0.1208  0.0714  0.2081
 8797TIP3    H147806   4.500   4.889   0.519 -1.0405  1.8803 -0.9771
 8797TIP3    H247807   4.619   4.839   0.439  0.4654  3.2643  0.3384
 8798TIP3   OH247808   0.429   5.491   0.514  0.4090 -0.0945 -0.4145
 8798TIP3    H147809   0.464   5.517   0.599  2.2585 -3.8466  0.1843
 8798TIP3    H247810   0.355   5.435   0.534 -1.4919  1.8282 -1.5263
 8799TIP3   OH247811   2.671   5.911  17.159  0.7512 -0.2588 -0.3213
 8799TIP3    H147812   2.589   5.878  17.121 -0.0929 -1.8594  2.5513
 8799TIP3    H247813   2.706   5.837  17.209  1.6332  1.6076  2.0361
 8800TIP3   OH247814   3.318   5.985  15.118  0.1756  0.0501  0.2948
 8800TIP3    H147815   3.358   5.978  15.204  0.7597 -1.9313 -0.0749
 8800TIP3    H247816   3.238   5.934  15.124 -0.9829  1.7799  0.2651
 8801TIP3   OH247817   1.842   6.689   2.384  0.0897  0.2998  0.2353
 8801TIP3    H147818   1.905   6.616   2.386  0.2795  0.4229 -0.7253
 8801TIP3    H247819   1.833   6.715   2.476  1.4447  0.2767  0.4028
 8802TIP3   OH247820   3.428   3.659  12.597  0.9742 -0.0109  0.6025
 8802TIP3    H147821   3.388   3.646  12.683  0.7344  0.1011  0.5070
 8802TIP3    H247822   3.444   3.570  12.565 -1.7483 -0.1722 -0.5638
 8803TIP3   OH247823   5.907   4.742  14.293 -0.1146  0.3522  0.1535
 8803TIP3    H147824   5.988   4.788  14.275  0.1311  0.3394  1.1666
 8803TIP3    H247825   5.923   4.652  14.263  0.6721  0.0598  1.3567
 8804TIP3   OH247826   3.004   4.958  13.921 -0.1280  0.1566  0.4689
 8804TIP3    H147827   3.008   5.010  13.841 -1.5337  1.9178  1.4801
 8804TIP3    H247828   3.038   4.872  13.895 -0.8663  0.5479 -2.0909
 8805TIP3   OH247829   2.553   5.681  15.562  0.1433  0.2061 -0.3591
 8805TIP3    H147830   2.558   5.601  15.509 -0.1086 -0.4167  0.5432
 8805TIP3    H247831   2.468   5.720  15.538 -0.6868 -0.8809  0.6896
 8806TIP3   OH247832   0.534   3.833   2.798  0.2723  0.0181  0.1351
 8806TIP3    H147833   0.466   3.771   2.770  0.3428  0.8061 -1.9327
 8806TIP3    H247834   0.594   3.839   2.723  0.5131  2.2161  0.4285
 8807TIP3   OH247835   2.605   4.279   4.615 -0.4953 -0.4580 -0.1438
 8807TIP3    H147836   2.521   4.239   4.591 -0.1360 -0.9226 -0.6679
 8807TIP3    H247837   2.636   4.320   4.534 -0.4573  0.1575  0.1791
 8808TIP3   OH247838   3.226   3.522   0.438 -0.5252  0.5085  0.7226
 8808TIP3    H147839   3.130   3.518   0.442 -0.5450  1.0446  0.9175
 8808TIP3    H247840   3.248   3.498   0.348 -0.8399  0.3391  0.6896
 8809TIP3   OH247841   1.697   1.701  16.354 -0.3104  0.2833 -0.2316
 8809TIP3    H147842   1.773   1.707  16.296 -1.3026  0.9281 -1.5079
 8809TIP3    H247843   1.624   1.731  16.301 -1.2700  0.8836  1.3601
 8810TIP3   OH247844   2.555   3.583  17.125 -0.4934 -0.3119 -0.2034
 8810TIP3    H147845   2.607   3.662  17.134 -0.4780 -0.4499  1.0791
 8810TIP3    H247846   2.495   3.584  17.200 -0.4107 -1.5612 -0.0990
 8811TIP3   OH247847   0.634   4.816   1.177 -0.1028  0.2458 -0.6603
 8811TIP3    H147848   0.612   4.728   1.207  1.5638  0.2236  0.6700
 8811TIP3    H247849   0.653   4.806   1.084 -0.6341 -0.6441 -0.6879
 8812TIP3   OH247850   1.518   0.811  12.896 -0.1067 -0.1564 -0.2587
 8812TIP3    H147851   1.435   0.858  12.893 -0.6308 -1.0908 -2.6156
 8812TIP3    H247852   1.556   0.823  12.809  2.4184  0.4804  0.8236
 8813TIP3   OH247853   3.448   0.071  11.289 -0.3106  0.1741 -0.1160
 8813TIP3    H147854   3.535   0.031  11.298  0.2826  0.8195 -2.3663
 8813TIP3    H247855   3.411   0.030  11.211 -1.0984  1.5300 -0.4901
 8814TIP3   OH247856   6.613   6.518  10.612  0.6690 -0.2533  0.4563
 8814TIP3    H147857   6.650   6.587  10.667 -1.5003  0.8041  0.7087
 8814TIP3    H247858   6.587   6.563  10.531  0.5426 -1.0848  0.0177
 8815TIP3   OH247859   0.120   0.447   6.037  0.1021 -0.3409  0.0824
 8815TIP3    H147860   0.162   0.531   6.016 -2.4765  0.7853 -0.9805
 8815TIP3    H247861   0.172   0.412   6.109  1.0113  2.3842  0.8843
 8816TIP3   OH247862   0.506   4.760  11.593  0.3629 -0.2122 -0.1235
 8816TIP3    H147863   0.511   4.855  11.593  0.2181 -0.1708  1.4703
 8816TIP3    H247864   0.566   4.733  11.663 -1.6288 -1.1030  1.3543
 8817TIP3   OH247865   5.869   4.195  14.993  0.0799 -0.3131 -0.5109
 8817TIP3    H147866   5.952   4.201  15.040 -0.7500 -0.9042  1.0944
 8817TIP3    H247867   5.815   4.265  15.029 -0.6327 -0.8875 -0.4432
 8818TIP3   OH247868   3.226   2.837  12.456 -0.0518  0.2218 -0.6839
 8818TIP3    H147869   3.269   2.899  12.514  2.0845 -2.5447  0.9118
 8818TIP3    H247870   3.226   2.881  12.370  1.3315  2.3783  0.3276
 8819TIP3   OH247871   1.604   3.084  11.964 -0.1415  0.1368  0.3858
 8819TIP3    H147872   1.675   3.127  11.917 -0.1854 -1.1872 -0.9396
 8819TIP3    H247873   1.574   3.015  11.906 -2.6113  0.7122  0.8529
 8820TIP3   OH247874   3.235   4.665   2.039 -0.5705 -0.0479 -0.0538
 8820TIP3    H147875   3.299   4.637   2.104  0.1771  0.6213 -0.4975
 8820TIP3    H247876   3.218   4.757   2.060 -1.8991 -0.3787  0.4678
 8821TIP3   OH247877   6.429   4.071   4.564 -0.4358  1.0048 -0.1762
 8821TIP3    H147878   6.490   4.052   4.635 -1.6094  2.9214  1.4243
 8821TIP3    H247879   6.478   4.129   4.505  0.5862 -0.6984 -1.0918
 8822TIP3   OH247880   5.549   3.424   2.498  0.1900  0.5246 -0.3987
 8822TIP3    H147881   5.570   3.346   2.549  1.2869  0.4135 -1.0040
 8822TIP3    H247882   5.456   3.414   2.477 -0.0520  0.1145  0.7672
 8823TIP3   OH247883   2.180   2.807   3.676 -0.3717  0.8427  0.2990
 8823TIP3    H147884   2.211   2.735   3.620 -0.4965  1.0306 -0.0110
 8823TIP3    H247885   2.148   2.873   3.615  0.7862  1.6563  0.5436
 8824TIP3   OH247886   2.997   4.327   2.803 -0.4505 -0.7700 -0.0153
 8824TIP3    H147887   2.958   4.315   2.716  0.4519 -0.4161 -0.4841
 8824TIP3    H247888   2.969   4.415   2.829  0.6144 -0.2229 -0.6718
 8825TIP3   OH247889   6.191   4.465   5.304 -0.6874  0.5765  0.2578
 8825TIP3    H147890   6.272   4.424   5.272 -0.5234  0.5618  0.6770
 8825TIP3    H247891   6.143   4.489   5.225 -0.3602  0.4076  0.0051
 8826TIP3   OH247892   5.652   4.600   6.563 -0.1402  0.2930  0.4096
 8826TIP3    H147893   5.743   4.582   6.586 -0.1571 -1.4898 -0.7164
 8826TIP3    H247894   5.614   4.514   6.543 -1.3902  1.2136 -1.4896
 8827TIP3   OH247895   6.376   1.221   0.859 -0.0977 -0.1885 -0.3802
 8827TIP3    H147896   6.462   1.247   0.826  0.1532 -2.0630 -1.3303
 8827TIP3    H247897   6.376   1.125   0.854 -2.2576 -0.2323 -0.4474
 8828TIP3   OH247898   6.358   5.545  14.963 -0.4236  0.0218  0.8030
 8828TIP3    H147899   6.414   5.589  15.027 -0.3236  0.4290  0.4460
 8828TIP3    H247900   6.390   5.455  14.959  1.0980  0.5664 -0.3713
 8829TIP3   OH247901   5.793   6.691   5.011  0.7453  0.1805 -0.1617
 8829TIP3    H147902   5.873   6.644   4.988  0.2580 -1.7844  1.8469
 8829TIP3    H247903   5.822   6.762   5.068  1.1047 -0.5000  0.5280
 8830TIP3   OH247904   2.372   3.147  11.479  0.4533  0.2368  0.0805
 8830TIP3    H147905   2.350   3.167  11.388  0.1888  0.7706  0.2549
 8830TIP3    H247906   2.353   3.228  11.526  2.3256  0.5679  0.3301
 8831TIP3   OH247907   3.534   0.085  15.091  0.3988  0.0059  0.1960
 8831TIP3    H147908   3.520  -0.002  15.055  0.9350  0.4929 -1.2662
 8831TIP3    H247909   3.450   0.108  15.132 -0.2486 -0.5778 -0.7645
 8832TIP3   OH247910   4.547   1.080   5.502  1.1891 -0.3967  0.2473
 8832TIP3    H147911   4.528   0.995   5.542 -0.4601  0.8220  2.2550
 8832TIP3    H247912   4.485   1.087   5.430  0.1728 -0.2298  1.1202
 8833TIP3   OH247913   0.452   0.545  12.839  0.3952  0.0019  0.4500
 8833TIP3    H147914   0.397   0.615  12.874  0.7325 -0.6339  2.4105
 8833TIP3    H247915   0.395   0.499  12.778 -0.1084  1.4427 -0.2231
 8834TIP3   OH247916   2.510   6.723  15.059  0.1293 -0.2099  0.4916
 8834TIP3    H147917   2.494   6.811  15.095  0.6766  0.1380 -0.0953
 8834TIP3    H247918   2.515   6.667  15.137 -1.2801  0.0806  0.8294
 8835TIP3   OH247919   6.606   2.060  16.773  0.0550 -0.5716  0.0866
 8835TIP3    H147920   6.545   2.081  16.702 -0.1105 -1.5079 -0.0733
 8835TIP3    H247921   6.688   2.101  16.748 -0.6607  1.2635  0.6215
 8836TIP3   OH247922   4.581   2.343   2.555 -0.1293 -0.1237  0.5775
 8836TIP3    H147923   4.578   2.261   2.506  0.6280  1.1402 -1.7554
 8836TIP3    H247924   4.553   2.320   2.643 -1.3117 -2.5995 -0.3608
 8837TIP3   OH247925   1.359   4.862  17.024 -0.2696  0.4073 -0.4270
 8837TIP3    H147926   1.367   4.958  17.025  1.3020  0.3054 -0.0988
 8837TIP3    H247927   1.440   4.832  16.981 -0.6602 -0.7857 -0.3620
 8838TIP3   OH247928   4.782   1.492   2.212 -0.2977  0.0043  0.3435
 8838TIP3    H147929   4.744   1.539   2.286  0.2757  0.0004  0.6456
 8838TIP3    H247930   4.745   1.404   2.218 -0.9283  0.2535  0.1122
 8839TIP3   OH247931   1.494   2.682  12.055  0.0292  0.0375  0.4251
 8839TIP3    H147932   1.400   2.669  12.041 -0.1129  0.2382  1.1334
 8839TIP3    H247933   1.500   2.717  12.144  0.6675  1.4531 -0.1509
 8840TIP3   OH247934   3.966   4.694  16.664  0.2243 -0.3012  0.5554
 8840TIP3    H147935   3.993   4.607  16.634 -0.9933 -0.8938  1.1109
 8840TIP3    H247936   3.931   4.679  16.752 -2.2284  0.3275 -0.2558
 8841TIP3   OH247937   3.332   2.852  13.336 -0.1193  0.3311  0.3606
 8841TIP3    H147938   3.266   2.907  13.294 -0.9844 -0.5053  0.5914
 8841TIP3    H247939   3.365   2.906  13.408 -1.3243  0.3828  0.9054
 8842TIP3   OH247940   1.567   6.435   2.626 -0.0480 -0.4011  0.4139
 8842TIP3    H147941   1.502   6.441   2.696 -1.2031 -2.6212 -0.3550
 8842TIP3    H247942   1.520   6.463   2.547  0.8198  0.7146  0.2642
 8843TIP3   OH247943   4.315   1.099   6.105  0.0653 -0.6093 -0.2761
 8843TIP3    H147944   4.320   1.060   6.192 -2.9752  0.7980  0.6794
 8843TIP3    H247945   4.335   1.192   6.119 -1.0724 -0.2428 -0.9335
 8844TIP3   OH247946   5.587   5.792  10.765  0.1791 -0.4200  0.2253
 8844TIP3    H147947   5.680   5.811  10.779  0.6327 -1.9539 -0.4799
 8844TIP3    H247948   5.586   5.729  10.693 -1.2312 -2.3223  1.7926
 8845TIP3   OH247949   6.067   1.373   1.469 -0.4944  0.3736 -0.9931
 8845TIP3    H147950   5.974   1.393   1.463 -0.9234 -0.9993  0.4717
 8845TIP3    H247951   6.073   1.279   1.454  0.5539  0.3177 -0.3163
 8846TIP3   OH247952   6.488   6.141   2.601 -0.5102 -0.7308 -0.0928
 8846TIP3    H147953   6.534   6.150   2.518 -1.2352 -0.9138 -0.5332
 8846TIP3    H247954   6.531   6.202   2.660  1.2846 -1.9728 -0.0172
 8847TIP3   OH247955   4.091   3.439  14.352 -0.0505  0.1926  0.5266
 8847TIP3    H147956   4.106   3.489  14.272 -0.2843 -0.5969 -0.0150
 8847TIP3    H247957   4.109   3.501  14.422 -0.3558  1.0479 -0.1340
 8848TIP3   OH247958   4.034   2.543   4.233 -0.2278 -0.4439 -0.6080
 8848TIP3    H147959   4.099   2.598   4.189 -0.3869  0.1657 -0.0930
 8848TIP3    H247960   3.957   2.599   4.242 -0.5040 -0.8556 -0.3601
 8849TIP3   OH247961   5.494   1.420  12.306 -0.4473 -0.0328  0.4419
 8849TIP3    H147962   5.533   1.348  12.355 -0.0223 -0.2490 -0.1916
 8849TIP3    H247963   5.403   1.422  12.334 -0.0554  0.2965  1.7378
 8850TIP3   OH247964   0.474   6.191  15.374 -0.0222  0.4179  0.0190
 8850TIP3    H147965   0.459   6.132  15.448 -0.4679 -0.2595 -0.5965
 8850TIP3    H247966   0.557   6.235  15.394 -0.2978  0.4699  1.0639
 8851TIP3   OH247967   5.455   5.254  14.356 -0.1053 -0.0190 -0.8667
 8851TIP3    H147968   5.540   5.211  14.355 -0.6157 -1.1631 -3.6375
 8851TIP3    H247969   5.475   5.347  14.340  0.6578 -0.1293 -0.5714
 8852TIP3   OH247970   1.941   6.470   1.441  0.1410 -0.3752  0.3316
 8852TIP3    H147971   1.880   6.528   1.397  0.9895 -1.5924 -2.7116
 8852TIP3    H247972   1.886   6.410   1.491 -0.7726  2.4136  3.0591
 8853TIP3   OH247973   5.289   3.755   3.606  0.1807 -0.0532  0.0341
 8853TIP3    H147974   5.287   3.818   3.677 -0.2837 -0.5424  0.4678
 8853TIP3    H247975   5.301   3.807   3.527 -2.3883  0.8231  0.1218
 8854TIP3   OH247976   0.465   4.355  13.284  0.2297 -0.0844  0.2462
 8854TIP3    H147977   0.546   4.351  13.233 -0.4211 -0.4509 -0.8014
 8854TIP3    H247978   0.425   4.269  13.271 -1.3834  0.8087 -1.0795
 8855TIP3   OH247979   0.389   6.262   4.776 -0.6118  0.9614 -0.0698
 8855TIP3    H147980   0.447   6.206   4.725 -1.3678  0.8550 -0.8329
 8855TIP3    H247981   0.301   6.231   4.754 -0.9770  1.4270  0.7098
 8856TIP3   OH247982   3.747   3.860  16.263 -0.3625 -0.3551 -0.2718
 8856TIP3    H147983   3.690   3.932  16.291  1.0328  1.1056 -0.9975
 8856TIP3    H247984   3.794   3.835  16.343  0.5566  0.9127 -0.3890
 8857TIP3   OH247985   4.733   0.650   6.572 -0.0021 -0.1137  0.1365
 8857TIP3    H147986   4.757   0.700   6.650 -1.1858 -0.0759  0.4928
 8857TIP3    H247987   4.797   0.579   6.568  1.8955  1.5475 -0.5455
 8858TIP3   OH247988   0.687   2.993   5.000  0.2446 -0.6313  0.4945
 8858TIP3    H147989   0.747   2.939   4.948  1.1782  0.1132  0.7616
 8858TIP3    H247990   0.664   3.066   4.943  0.1186 -0.5751  0.6166
 8859TIP3   OH247991   1.664   0.490  16.953 -0.3568  0.5195 -0.0527
 8859TIP3    H147992   1.743   0.540  16.973 -0.9827  0.6148  2.4953
 8859TIP3    H247993   1.620   0.479  17.037 -2.0161 -1.3467 -1.0670
 8860TIP3   OH247994   5.132   5.685   2.230 -0.0598 -0.0531  0.4004
 8860TIP3    H147995   5.166   5.684   2.320 -0.7733 -2.7406  0.7133
 8860TIP3    H247996   5.040   5.710   2.240 -0.3216 -1.0511  0.5031
 8861TIP3   OH247997   5.847   2.951  15.418 -0.0985  0.1655  0.0011
 8861TIP3    H147998   5.907   3.024  15.399 -0.8517  0.8287  0.1210
 8861TIP3    H247999   5.859   2.934  15.511 -0.1008  0.3056  0.0277
 8862TIP3   OH248000   5.953   5.335   1.293  0.2237 -0.3830 -0.0176
 8862TIP3    H148001   5.897   5.313   1.368  0.2996  0.1938  0.2137
 8862TIP3    H248002   5.953   5.430   1.290 -0.3918 -0.4050 -1.2287
 8863TIP3   OH248003   0.224   0.890  16.102  0.2184 -0.2475  0.0466
 8863TIP3    H148004   0.216   0.843  16.019  0.7582  0.0838 -0.1968
 8863TIP3    H248005   0.218   0.821  16.169 -0.7694 -0.4530 -0.2368
 8864TIP3   OH248006   4.151   1.663  11.700 -0.4130 -0.7587 -0.7434
 8864TIP3    H148007   4.236   1.694  11.732 -0.4222 -1.3539 -0.1177
 8864TIP3    H248008   4.105   1.743  11.675  1.0061 -0.5345 -2.8593
 8865TIP3   OH248009   4.427   0.317   4.366  0.1787  0.3278  0.6093
 8865TIP3    H148010   4.386   0.373   4.301  2.4083  2.9581  1.3040
 8865TIP3    H248011   4.498   0.273   4.319 -2.0807 -2.9008 -0.1695
 8866TIP3   OH248012   1.508   6.380   0.086 -0.2068  0.3560  0.5719
 8866TIP3    H148013   1.424   6.391   0.130  1.6122  2.1235  3.9799
 8866TIP3    H248014   1.573   6.390   0.155  2.8921  0.1341 -2.0663
 8867TIP3   OH248015   0.111   3.354  12.796  0.1454  0.0195  0.3106
 8867TIP3    H148016   0.179   3.410  12.761 -0.6264  0.5314 -0.4020
 8867TIP3    H248017   0.081   3.398  12.875  0.6367 -0.2152  0.6345
 8868TIP3   OH248018   4.060   5.374  10.788 -0.2818  0.1484 -0.7940
 8868TIP3    H148019   4.141   5.421  10.768 -0.8360  1.4950 -0.0237
 8868TIP3    H248020   4.026   5.347  10.703  0.4963  0.3903 -1.1911
 8869TIP3   OH248021   3.567   3.546  13.437  0.2009  0.3478  0.3423
 8869TIP3    H148022   3.663   3.546  13.441  0.1911 -0.6175  0.8389
 8869TIP3    H248023   3.542   3.461  13.471 -0.8202  0.3341 -0.4088
 8870TIP3   OH248024   6.684   4.544  14.017  0.2284 -0.7792 -0.7460
 8870TIP3    H148025   6.767   4.497  14.007 -0.5055 -1.8523 -2.2162
 8870TIP3    H248026   6.618   4.474  14.025 -0.3838  0.0042  2.7681
 8871TIP3   OH248027   1.840   1.955   5.449 -0.5562  0.0737  0.0131
 8871TIP3    H148028   1.933   1.973   5.439 -0.5255  0.2070  0.5255
 8871TIP3    H248029   1.796   2.036   5.423 -0.6193 -0.5193 -1.8782
 8872TIP3   OH248030   6.348   0.265  11.922  0.2098 -0.3738 -0.1641
 8872TIP3    H148031   6.416   0.218  11.874  0.0095 -0.6628 -0.1693
 8872TIP3    H248032   6.394   0.335  11.968  0.3766  0.1076 -1.0212
 8873TIP3   OH248033   5.690   0.559  12.773  0.1855 -0.3606  0.1498
 8873TIP3    H148034   5.723   0.470  12.767 -0.7909 -0.9471  2.2668
 8873TIP3    H248035   5.600   0.553  12.741  0.4259  0.0888 -0.6265
 8874TIP3   OH248036   5.094   5.287  12.726 -0.2294  0.1050 -0.2158
 8874TIP3    H148037   5.179   5.257  12.695 -0.3499 -0.0581 -0.3951
 8874TIP3    H248038   5.049   5.317  12.647 -0.4614 -0.1240 -0.1735
 8875TIP3   OH248039   5.657   5.517   2.942 -0.0572  0.1112  0.4778
 8875TIP3    H148040   5.625   5.590   2.995 -0.3168  1.1445 -1.0473
 8875TIP3    H248041   5.578   5.476   2.907  0.1577  1.0124 -1.1330
 8876TIP3   OH248042   0.827   2.478  16.163  0.0460  0.3824 -0.5610
 8876TIP3    H148043   0.859   2.488  16.253  0.3190 -1.8239 -0.3550
 8876TIP3    H248044   0.752   2.538  16.158 -0.3531  0.1256  1.3593
 8877TIP3   OH248045   5.255   5.771  14.207 -0.3736  0.2746 -0.6711
 8877TIP3    H148046   5.213   5.852  14.235  1.1431  0.7328  0.4116
 8877TIP3    H248047   5.338   5.799  14.168 -0.3655 -0.6946 -1.4084
 8878TIP3   OH248048   3.286   5.268   5.573  0.1413 -0.1946  0.2890
 8878TIP3    H148049   3.232   5.347   5.575  0.2549 -0.1104  0.0188
 8878TIP3    H248050   3.291   5.240   5.664 -2.4640 -1.6111  0.1128
 8879TIP3   OH248051   2.070   5.099   1.029  0.1209 -0.6109  0.4424
 8879TIP3    H148052   2.003   5.035   1.051  0.4154 -0.8597  0.6222
 8879TIP3    H248053   2.152   5.051   1.032  0.5689  0.2028  2.5347
 8880TIP3   OH248054   3.403   3.292  17.132 -0.4281 -0.2119  0.1393
 8880TIP3    H148055   3.422   3.375  17.089 -1.3936  0.4809  0.9804
 8880TIP3    H248056   3.455   3.295  17.213 -0.0008 -0.7042 -0.1113
 8881TIP3   OH248057   6.695   2.330   0.109 -0.2371  0.0235  0.4882
 8881TIP3    H148058   6.605   2.351   0.135 -1.2016  0.1666 -2.5809
 8881TIP3    H248059   6.700   2.235   0.119 -1.7075 -0.3720 -1.7087
 8882TIP3   OH248060   1.368   3.191  13.146  0.4824 -0.0607  0.5083
 8882TIP3    H148061   1.277   3.199  13.120 -0.3746 -1.6122  2.7173
 8882TIP3    H248062   1.413   3.160  13.068 -1.0224 -0.0234 -0.4047
 8883TIP3   OH248063   4.918   0.096   2.953 -0.5775 -0.5868 -0.0970
 8883TIP3    H148064   4.883   0.042   3.023 -0.1976  0.0938  0.6327
 8883TIP3    H248065   4.974   0.160   2.997  0.5276 -0.8116 -1.1097
 8884TIP3   OH248066   5.261   2.534   2.855 -0.1475 -0.0938  0.0102
 8884TIP3    H148067   5.340   2.514   2.805 -0.2584 -1.2383  0.2474
 8884TIP3    H248068   5.189   2.506   2.798 -0.2875 -1.0106  0.6165
 8885TIP3   OH248069   3.087   0.427  14.123 -0.2496 -0.0676  0.6582
 8885TIP3    H148070   3.000   0.429  14.083  0.2320 -1.5946 -0.5202
 8885TIP3    H248071   3.070   0.446  14.216 -1.6971  0.7770  0.2595
 8886TIP3   OH248072   4.752   6.542  12.770 -0.3407 -0.6124 -0.4331
 8886TIP3    H148073   4.788   6.621  12.809 -0.2564 -0.9891  0.2701
 8886TIP3    H248074   4.801   6.530  12.688 -1.8346  1.2701 -1.6899
 8887TIP3   OH248075   2.604   2.675   3.502 -0.0984  0.0009 -0.5246
 8887TIP3    H148076   2.682   2.651   3.452 -0.5733  1.3034 -1.9374
 8887TIP3    H248077   2.576   2.592   3.542  1.5289 -0.6464 -0.6440
 8888TIP3   OH248078   1.831   4.263   0.554  0.2037 -0.0064 -0.1396
 8888TIP3    H148079   1.873   4.226   0.632  1.0103  1.0837 -0.0246
 8888TIP3    H248080   1.822   4.190   0.494 -0.7910 -0.9539  1.1260
 8889TIP3   OH248081   4.613   6.541   3.487  0.2385 -0.2255  0.4638
 8889TIP3    H148082   4.618   6.485   3.564 -0.0317  0.7322  1.1839
 8889TIP3    H248083   4.569   6.621   3.517  1.0157  0.5649 -0.4366
 8890TIP3   OH248084   6.003   0.519  16.870 -0.3853  0.3898  0.4848
 8890TIP3    H148085   6.088   0.482  16.847 -1.1648 -0.0969 -1.8126
 8890TIP3    H248086   5.981   0.576  16.797 -1.7433  1.0583  1.3765
 8891TIP3   OH248087   4.926   0.644   5.010 -0.4103  0.6175 -0.2622
 8891TIP3    H148088   4.931   0.668   5.103  0.2574  2.6621 -0.7841
 8891TIP3    H248089   5.016   0.652   4.978 -0.1282 -2.4790 -0.6044
 8892TIP3   OH248090   6.140   2.096  15.907 -0.1222 -0.5558  0.3506
 8892TIP3    H148091   6.048   2.082  15.929 -1.3478  1.8239 -2.6609
 8892TIP3    H248092   6.149   2.191  15.900  2.5904 -0.7229  0.4762
 8893TIP3   OH248093   4.234   2.281  14.307 -0.2083  0.7967  0.1787
 8893TIP3    H148094   4.304   2.308  14.366  0.8327  1.3651 -1.2610
 8893TIP3    H248095   4.211   2.193  14.335 -1.3319  1.8036  2.8514
 8894TIP3   OH248096   2.362   3.570  15.508 -0.3220 -0.2982 -0.5887
 8894TIP3    H148097   2.269   3.570  15.530 -0.0863 -1.5674  0.5125
 8894TIP3    H248098   2.365   3.545  15.415 -0.9891 -3.1837  0.0690
 8895TIP3   OH248099   3.571   4.059  13.669 -0.0638  0.4562 -0.4362
 8895TIP3    H148100   3.513   4.039  13.595  0.6038 -1.1825 -0.5716
 8895TIP3    H248101   3.528   4.018  13.744  0.0612  0.7097 -0.2270
 8896TIP3   OH248102   4.294   4.282   0.698 -0.0907 -0.3401  0.1257
 8896TIP3    H148103   4.346   4.335   0.757 -2.4496 -0.1081  2.1512
 8896TIP3    H248104   4.348   4.204   0.681  0.8777 -0.1814  2.1963
 8897TIP3   OH248105   2.655   6.095   0.157  0.6848  0.2348  0.5145
 8897TIP3    H148106   2.676   6.045   0.078 -0.0513 -0.4499  0.7386
 8897TIP3    H248107   2.669   6.033   0.228  0.6174  0.6231  0.8665
 8898TIP3   OH248108   3.961   0.239  12.199  0.3848  0.6174  0.3232
 8898TIP3    H148109   3.935   0.283  12.118  2.1942 -0.3299 -0.8441
 8898TIP3    H248110   4.010   0.304  12.248  1.2613  0.5595 -0.4413
 8899TIP3   OH248111   4.664   1.224   2.203  0.4475 -0.9752  0.5586
 8899TIP3    H148112   4.587   1.167   2.200 -1.4684  1.2859  2.6717
 8899TIP3    H248113   4.707   1.202   2.286  0.4237 -0.2336  0.7714
 8900TIP3   OH248114   6.299   3.561  13.867  0.1831  0.6157  0.1269
 8900TIP3    H148115   6.348   3.479  13.863  0.4977  0.8713 -1.7784
 8900TIP3    H248116   6.207   3.534  13.870  0.2739  0.1825 -0.7862
 8901TIP3   OH248117   5.064   4.752   1.071 -0.1461 -0.1846  0.1788
 8901TIP3    H148118   5.117   4.800   1.134 -2.1927  0.9484  1.1567
 8901TIP3    H248119   4.989   4.720   1.122 -1.8759  0.7668 -1.6107
 8902TIP3   OH248120   2.467   3.509  15.889 -0.0065  0.1304  0.1166
 8902TIP3    H148121   2.434   3.552  15.968 -1.3811  0.0013 -0.3497
 8902TIP3    H248122   2.390   3.501  15.833  0.8218 -0.3316 -0.9890
 8903TIP3   OH248123   4.335   1.274   1.671  0.3442 -0.6053 -0.0507
 8903TIP3    H148124   4.342   1.367   1.652 -0.5508 -0.6647 -0.7200
 8903TIP3    H248125   4.251   1.248   1.633 -0.3989 -1.2517  1.9264
 8904TIP3   OH248126   2.405   5.927  13.617 -0.1956  0.0424 -0.3151
 8904TIP3    H148127   2.425   6.020  13.614  2.0443 -0.3454  0.4631
 8904TIP3    H248128   2.442   5.891  13.537  0.7302 -0.4423  0.3107
 8905TIP3   OH248129   2.474   4.358  15.309  0.4839 -0.2734  0.0030
 8905TIP3    H148130   2.463   4.357  15.404 -0.7360 -1.4405 -0.1180
 8905TIP3    H248131   2.544   4.422  15.294  1.0111 -0.3861  1.7063
 8906TIP3   OH248132   3.671   0.465   1.698  0.4778  0.1454  0.1696
 8906TIP3    H148133   3.622   0.419   1.631  1.5320 -0.2240 -0.3690
 8906TIP3    H248134   3.664   0.558   1.674  0.1173  0.0886  0.0562
 8907TIP3   OH248135   2.199   1.827  16.275  1.0300 -0.7136  0.3433
 8907TIP3    H148136   2.266   1.876  16.322  0.5632  0.3533 -0.0618
 8907TIP3    H248137   2.174   1.884  16.202 -1.0700 -0.5928  1.0855
 8908TIP3   OH248138   0.209   0.883  11.412  0.1714 -0.2346 -0.7576
 8908TIP3    H148139   0.216   0.837  11.328  1.8082 -0.4358 -0.5473
 8908TIP3    H248140   0.154   0.959  11.394  0.1250 -0.5268 -1.9025
 8909TIP3   OH248141   4.312   2.352   1.989  0.0180  0.1070  0.0296
 8909TIP3    H148142   4.271   2.395   1.914  0.1438  3.1420  1.5894
 8909TIP3    H248143   4.346   2.270   1.953 -4.0158 -0.8613 -2.1597
 8910TIP3   OH248144   1.330   3.641   2.830 -0.6370 -0.0969  0.4317
 8910TIP3    H148145   1.323   3.584   2.907  1.0414  1.3866  1.7482
 8910TIP3    H248146   1.299   3.726   2.861  1.1489  0.8080 -0.1742
 8911TIP3   OH248147   2.651   0.622   5.707  0.4768 -0.1742 -0.2958
 8911TIP3    H148148   2.618   0.661   5.788  2.0012 -0.6538  0.5761
 8911TIP3    H248149   2.664   0.529   5.728 -0.2112 -0.5614 -1.4517
 8912TIP3   OH248150   6.025   0.444   2.584 -0.3862  1.0863 -0.0844
 8912TIP3    H148151   6.026   0.536   2.613  0.1426  1.2749 -0.6876
 8912TIP3    H248152   5.961   0.442   2.513 -1.7187  0.6138  1.0896
 8913TIP3   OH248153   2.078   0.194   3.302 -0.2498  0.2691 -0.0139
 8913TIP3    H148154   2.045   0.212   3.213 -1.6743  2.5533  0.8732
 8913TIP3    H248155   2.056   0.103   3.318 -1.5430  0.2947 -1.3980
 8914TIP3   OH248156   1.789   0.776   4.025 -0.0666 -0.4559  0.4869
 8914TIP3    H148157   1.765   0.684   4.025 -0.5093 -0.3461  0.0188
 8914TIP3    H248158   1.858   0.783   4.091  1.1509 -1.4204 -0.6568
 8915TIP3   OH248159   6.047   6.774  13.391 -0.0557  0.2166 -0.0761
 8915TIP3    H148160   6.001   6.837  13.447  0.4270  0.4301  0.0866
 8915TIP3    H248161   6.099   6.722  13.452 -1.3353 -1.1266 -0.0775
 8916TIP3   OH248162   1.429   0.527   1.749  0.4027  0.0709 -0.3830
 8916TIP3    H148163   1.370   0.572   1.809  0.3136  1.5412 -1.5075
 8916TIP3    H248164   1.482   0.470   1.805 -1.4538 -0.6259  0.7528
 8917TIP3   OH248165   0.989   4.047   0.488 -0.8854  0.1179 -0.1144
 8917TIP3    H148166   1.085   4.052   0.484 -0.8513  1.3960  1.2796
 8917TIP3    H248167   0.960   4.110   0.423 -0.7143  1.4052  1.0073
 8918TIP3   OH248168   3.098   6.656   4.476  0.0800  0.2192 -0.0373
 8918TIP3    H148169   3.186   6.692   4.469 -0.1811  1.1656  1.1751
 8918TIP3    H248170   3.109   6.562   4.468  1.1701  0.3529 -0.1685
 8919TIP3   OH248171   1.994   1.931  16.564  0.0799  0.9849  0.5673
 8919TIP3    H148172   1.970   1.845  16.599 -1.3827  1.2591  0.3000
 8919TIP3    H248173   2.056   1.912  16.494  1.3745  0.2978  1.8582
 8920TIP3   OH248174   4.675   5.551  10.780 -0.4395  0.1142  0.2719
 8920TIP3    H148175   4.645   5.469  10.741  5.0765 -2.4213  0.3164
 8920TIP3    H248176   4.710   5.602  10.707  1.3694 -0.3642  0.7360
 8921TIP3   OH248177   4.065   4.460  14.590 -0.2687 -0.0070 -0.3268
 8921TIP3    H148178   3.974   4.433  14.602 -0.1701 -0.3609 -0.3580
 8921TIP3    H248179   4.109   4.382  14.555  0.4744 -0.4685  1.5191
 8922TIP3   OH248180   3.237   5.564   5.506  0.4561  0.5101  0.3708
 8922TIP3    H148181   3.267   5.592   5.592 -0.4171 -0.1323  0.9070
 8922TIP3    H248182   3.143   5.584   5.506  0.2790 -0.2754 -0.1033
 8923TIP3   OH248183   3.207   2.173  13.516 -0.3651  0.3530 -0.2801
 8923TIP3    H148184   3.171   2.090  13.484  0.7259 -0.5028  0.5853
 8923TIP3    H248185   3.294   2.177  13.477 -0.1761  0.7747  0.1760
 8924TIP3   OH248186   2.565   0.527   3.371  0.8554 -0.3999  0.4387
 8924TIP3    H148187   2.491   0.518   3.311  1.0432  0.8092  0.0004
 8924TIP3    H248188   2.563   0.447   3.424 -0.7831 -0.3863  0.4505
 8925TIP3   OH248189   2.783   0.628  10.238  0.1550  0.2606  0.2079
 8925TIP3    H148190   2.756   0.544  10.276 -1.1145  0.0603 -1.0611
 8925TIP3    H248191   2.752   0.694  10.299 -0.3658 -0.1255  0.3643
 8926TIP3   OH248192   2.938   5.846   3.232  0.2368  0.1588  0.1882
 8926TIP3    H148193   2.895   5.851   3.148 -0.2064 -2.0055  0.2160
 8926TIP3    H248194   2.867   5.839   3.296  0.5759  0.8022  0.6455
 8927TIP3   OH248195   2.235   0.370  13.367  0.7765 -0.3604  0.5106
 8927TIP3    H148196   2.311   0.365  13.308  1.0576 -0.5931  0.8909
 8927TIP3    H248197   2.226   0.463  13.387  0.5883 -0.2572 -0.0102
 8928TIP3   OH248198   1.103   4.053   2.563  0.0455  0.4185 -0.0037
 8928TIP3    H148199   1.040   3.989   2.596  0.5097 -1.1042 -1.8658
 8928TIP3    H248200   1.156   4.004   2.500  1.3818  2.3018 -0.4352
 8929TIP3   OH248201   2.014   0.131  11.953 -0.1886 -0.5402 -0.1265
 8929TIP3    H148202   1.976   0.215  11.978  1.0758  0.3056 -0.9391
 8929TIP3    H248203   1.938   0.074  11.936 -1.0809  0.7495 -0.6135
 8930TIP3   OH248204   4.941   4.453   1.141 -0.4524 -0.5345  0.4383
 8930TIP3    H148205   4.852   4.489   1.145 -0.4740 -0.6300  0.9033
 8930TIP3    H248206   4.973   4.460   1.231  0.1114 -0.2558  0.2209
 8931TIP3   OH248207   1.920   0.299   4.060  0.8936  0.4668 -0.6079
 8931TIP3    H148208   1.934   0.211   4.025 -0.5535 -0.0510  0.0434
 8931TIP3    H248209   1.960   0.297   4.147 -0.2041  0.0427 -0.0959
 8932TIP3   OH248210   0.546   2.459   0.710  0.8450  0.2294  0.1935
 8932TIP3    H148211   0.568   2.446   0.618 -2.4682 -1.0208 -0.5710
 8932TIP3    H248212   0.590   2.388   0.756  1.6172  0.2024 -0.5671
 8933TIP3   OH248213   5.971   3.667  16.843 -0.3544 -0.1459 -0.1198
 8933TIP3    H148214   5.904   3.676  16.910 -0.0975  0.9087  0.0093
 8933TIP3    H248215   6.032   3.739  16.860  0.1315 -0.3355 -1.0063
 8934TIP3   OH248216   2.993   4.668  13.067  0.2526  0.3616 -0.4899
 8934TIP3    H148217   2.901   4.642  13.057 -0.1499  1.6198 -0.3000
 8934TIP3    H248218   2.992   4.733  13.138  1.1007  1.2447 -1.2493
 8935TIP3   OH248219   4.448   6.739  11.796  0.0732 -0.1067 -0.7722
 8935TIP3    H148220   4.510   6.813  11.791 -0.3249  0.4729  1.7706
 8935TIP3    H248221   4.370   6.770  11.749  0.7023  0.1805 -1.6709
 8936TIP3   OH248222   4.220   3.958   4.040  0.3895 -0.6040  0.3224
 8936TIP3    H148223   4.205   3.958   3.945  0.2594 -0.7647  0.3415
 8936TIP3    H248224   4.133   3.968   4.078  0.2566 -2.0329  0.4423
 8937TIP3   OH248225   2.654   3.306   4.733  0.4186  0.5410 -0.0414
 8937TIP3    H148226   2.724   3.246   4.706  2.1533  2.1226  0.7308
 8937TIP3    H248227   2.670   3.386   4.684 -2.5310  0.1556 -1.9129
 8938TIP3   OH248228   1.631   2.870   5.673 -0.1491  0.5823 -0.9910
 8938TIP3    H148229   1.707   2.868   5.731 -0.2466  0.1311 -0.8784
 8938TIP3    H248230   1.579   2.794   5.698 -1.7304  2.0299  0.4198
 8939TIP3   OH248231   1.840   2.303   3.844  0.4542 -0.1226  0.2871
 8939TIP3    H148232   1.907   2.242   3.875 -0.6644 -1.8608 -0.5349
 8939TIP3    H248233   1.757   2.260   3.864 -0.3775  1.0390 -0.5202
 8940TIP3   OH248234   4.675   2.813   1.899 -0.7399  0.0274 -0.2762
 8940TIP3    H148235   4.589   2.786   1.868 -1.5769  1.5954  0.5257
 8940TIP3    H248236   4.666   2.817   1.994  0.6218 -1.0116 -0.0737
 8941TIP3   OH248237   0.566   2.995   4.507 -0.4607 -0.5299  0.2044
 8941TIP3    H148238   0.545   2.902   4.510 -1.0223 -0.4420 -0.5097
 8941TIP3    H248239   0.644   3.000   4.452 -0.5097 -0.5690  0.1307
 8942TIP3   OH248240   3.251   5.157   4.297 -0.6871 -0.4641  0.1084
 8942TIP3    H148241   3.165   5.119   4.278 -1.1141  0.3035  0.4691
 8942TIP3    H248242   3.263   5.143   4.390 -0.3729 -0.6463  0.0424
 8943TIP3   OH248243   4.952   6.749  14.099  0.1868  0.6753  0.2293
 8943TIP3    H148244   4.899   6.741  14.178  0.6807  0.5698  0.5549
 8943TIP3    H248245   5.038   6.778  14.130 -0.0152  2.0328 -0.3991
 8944TIP3   OH248246   3.860   5.007  12.030 -0.8246 -0.6397 -0.1785
 8944TIP3    H148247   3.900   5.059  11.960  1.8015 -2.2544 -0.0011
 8944TIP3    H248248   3.901   5.038  12.110 -1.5801 -0.8630  0.3108
 8945TIP3   OH248249   2.589   3.391   5.574 -0.1694 -0.3356 -0.3494
 8945TIP3    H148250   2.594   3.455   5.504  1.8977  0.5477  0.5423
 8945TIP3    H248251   2.659   3.329   5.556  0.0264 -0.4182  0.6199
 8946TIP3   OH248252   6.393   5.492   0.534  0.6786 -0.1115  0.1278
 8946TIP3    H148253   6.359   5.552   0.601 -1.3589  1.6098 -2.2588
 8946TIP3    H248254   6.471   5.536   0.500  0.0242  0.5068 -0.6097
 8947TIP3   OH248255   3.530   4.009  16.323  0.1631 -0.1134 -0.6410
 8947TIP3    H148256   3.489   3.972  16.401 -0.3688 -1.8675 -1.6943
 8947TIP3    H248257   3.470   4.078  16.294  1.5797  2.3156  1.8330
 8948TIP3   OH248258   1.679   6.068   6.187 -0.1318 -0.1201 -1.1266
 8948TIP3    H148259   1.724   6.117   6.118  2.6473 -1.4342 -0.3964
 8948TIP3    H248260   1.594   6.047   6.150 -0.1946  2.4580 -2.6595
 8949TIP3   OH248261   2.353   2.866   5.360  0.1442 -0.2870 -0.1077
 8949TIP3    H148262   2.427   2.926   5.349 -0.2836  0.0727 -1.1593
 8949TIP3    H248263   2.295   2.910   5.422  0.2016  0.0298 -0.2777
 8950TIP3   OH248264   1.093   5.133  16.982  0.1931 -0.1750 -0.4756
 8950TIP3    H148265   1.164   5.150  17.045  1.1145 -1.2406 -1.1856
 8950TIP3    H248266   1.028   5.084  17.032  0.1848  0.3398  0.0383
 8951TIP3   OH248267   4.655   2.901  15.411  0.1171 -0.6036  0.0048
 8951TIP3    H148268   4.668   2.807  15.400 -1.4736 -0.7987 -0.4788
 8951TIP3    H248269   4.654   2.936  15.322 -2.2337 -0.6131 -0.0492
 8952TIP3   OH248270   0.406   6.277  12.118 -0.7979 -0.2502 -0.2780
 8952TIP3    H148271   0.368   6.251  12.034  2.1546 -1.5648 -1.3669
 8952TIP3    H248272   0.408   6.196  12.169  1.7458 -0.6338 -0.8556
 8953TIP3   OH248273   2.121   1.315  14.426 -0.3020  0.0003 -0.6010
 8953TIP3    H148274   2.110   1.282  14.515 -1.5625  1.8890 -0.0125
 8953TIP3    H248275   2.031   1.325  14.393  0.1242  0.4969 -1.6419
 8954TIP3   OH248276   1.575   5.198  14.060  0.2900  0.6297  0.0854
 8954TIP3    H148277   1.555   5.243  14.142  3.7246 -0.4113  1.7004
 8954TIP3    H248278   1.583   5.268  13.996 -1.3549  1.5934  0.8800
 8955TIP3   OH248279   5.647   4.307   4.531  0.4589 -0.1943  0.5348
 8955TIP3    H148280   5.557   4.332   4.554  1.1689  1.2207  2.0019
 8955TIP3    H248281   5.646   4.300   4.435 -0.6370  2.4550  0.2660
 8956TIP3   OH248282   3.810   6.209  11.294  0.6853 -0.1005 -0.1373
 8956TIP3    H148283   3.718   6.185  11.293  0.4644  0.7146 -1.2905
 8956TIP3    H248284   3.817   6.275  11.363 -0.2402  2.0873 -2.0216
 8957TIP3   OH248285   5.715   2.768  11.548  0.4984  0.3642  0.8756
 8957TIP3    H148286   5.773   2.722  11.609  0.5825  0.6289  0.9979
 8957TIP3    H248287   5.693   2.850  11.593  1.7003  1.2201 -0.0308
 8958TIP3   OH248288   0.860   0.941   4.284 -0.0090  0.0238 -0.0055
 8958TIP3    H148289   0.821   0.939   4.197  2.8269 -2.0431 -1.4296
 8958TIP3    H248290   0.909   1.024   4.287  0.6333 -0.3118 -0.8121
 8959TIP3   OH248291   2.689   2.619  15.745  0.8972  0.3176 -0.1618
 8959TIP3    H148292   2.609   2.618  15.799  0.2212 -1.1306 -1.1223
 8959TIP3    H248293   2.723   2.708  15.754 -1.1309  1.1515 -0.1256
 8960TIP3   OH248294   5.347   3.289   1.764  0.0157  0.2043  0.1838
 8960TIP3    H148295   5.317   3.268   1.853  0.8530 -0.2576  0.3653
 8960TIP3    H248296   5.408   3.363   1.777 -0.3539  0.5608 -0.0842
 8961TIP3   OH248297   2.412   6.421   1.386  0.0766 -0.0065  0.1873
 8961TIP3    H148298   2.382   6.399   1.297 -1.4966  3.0292 -0.1814
 8961TIP3    H248299   2.497   6.463   1.373 -0.7590  1.6826 -0.1277
 8962TIP3   OH248300   3.172   4.964  13.651  0.1711 -0.3789 -0.6115
 8962TIP3    H148301   3.213   5.050  13.642 -0.9619  0.1106 -1.2977
 8962TIP3    H248302   3.244   4.906  13.677  1.1974  0.5273 -1.3281
 8963TIP3   OH248303   2.490   2.274  16.705 -0.8177  0.4125 -0.6922
 8963TIP3    H148304   2.558   2.211  16.678 -0.7335 -0.8677  2.1395
 8963TIP3    H248305   2.510   2.353  16.654  2.1804 -0.2412 -0.7505
 8964TIP3   OH248306   1.431   3.718   4.841 -0.0780 -0.8094  0.1795
 8964TIP3    H148307   1.418   3.796   4.895  3.1039  0.6240 -0.8526
 8964TIP3    H248308   1.430   3.750   4.751 -2.6387 -2.7188 -0.6059
 8965TIP3   OH248309   0.489   1.081   2.466 -0.6501 -0.5848 -0.0449
 8965TIP3    H148310   0.459   1.113   2.381  0.8093 -2.6408 -1.4393
 8965TIP3    H248311   0.538   1.154   2.503 -0.4260  0.0247 -1.4582
 8966TIP3   OH248312   4.325   5.238  13.101  0.4795  0.0656 -0.0814
 8966TIP3    H148313   4.404   5.290  13.116  0.7356 -0.5090  0.6145
 8966TIP3    H248314   4.290   5.221  13.188  2.3633 -3.9159  0.0957
 8967TIP3   OH248315   5.121   5.813   4.682 -0.4153  0.3419 -0.1651
 8967TIP3    H148316   5.214   5.800   4.665 -0.5978 -0.5781 -0.5395
 8967TIP3    H248317   5.076   5.767   4.611 -1.1593 -0.2391  0.6397
 8968TIP3   OH248318   4.831   2.955   0.970  0.2102  0.0796  0.2017
 8968TIP3    H148319   4.746   2.917   0.949  0.4545  1.1550 -3.3741
 8968TIP3    H248320   4.820   2.990   1.059 -3.2401  0.6056 -0.2956
 8969TIP3   OH248321   4.181   4.669   1.480  0.2359 -0.0087  0.1432
 8969TIP3    H148322   4.112   4.692   1.542  1.2251 -2.8764  2.5682
 8969TIP3    H248323   4.140   4.605   1.422 -0.1955  1.3449 -1.0902
 8970TIP3   OH248324   5.809   3.400  16.974 -0.2993  0.0823 -0.4892
 8970TIP3    H148325   5.776   3.310  16.976  1.7415 -0.7463 -1.0066
 8970TIP3    H248326   5.891   3.397  17.024  0.6934  1.2333 -1.9425
 8971TIP3   OH248327   6.777   3.414   0.226 -0.5143 -0.1436  0.4825
 8971TIP3    H148328   6.848   3.478   0.232  0.0865 -0.8948  2.1097
 8971TIP3    H248329   6.822   3.330   0.213 -1.2420 -0.3666 -0.7007
 8972TIP3   OH248330   3.192   0.796  14.511  0.1175  0.2593 -0.2021
 8972TIP3    H148331   3.176   0.703  14.496 -1.3882  0.5442 -0.4560
 8972TIP3    H248332   3.241   0.798  14.593 -0.8675 -0.7095  0.4402
 8973TIP3   OH248333   3.756   6.075   2.929  0.1799  0.1489  0.2655
 8973TIP3    H148334   3.767   5.986   2.896  4.1631 -0.0192  1.4404
 8973TIP3    H248335   3.763   6.066   3.024 -0.9206  1.6066  0.5225
 8974TIP3   OH248336   6.571   3.390  14.492 -0.2629 -0.1678 -0.1322
 8974TIP3    H148337   6.537   3.347  14.413 -0.0692  1.2038 -1.0027
 8974TIP3    H248338   6.494   3.430  14.532 -0.2303 -0.1438 -0.0944
 8975TIP3   OH248339   0.812   0.944  11.092 -0.7863 -0.2661  0.4849
 8975TIP3    H148340   0.812   0.877  11.023 -1.2798 -0.7833  0.9690
 8975TIP3    H248341   0.726   0.985  11.086 -1.5654 -1.5707  1.9488
 8976TIP3   OH248342   0.417   0.217  17.160  0.2238  0.5225  0.1247
 8976TIP3    H148343   0.385   0.183  17.077 -2.2245  1.2456  0.6827
 8976TIP3    H248344   0.496   0.167  17.178  0.0537 -0.5912 -1.9613
 8977TIP3   OH248345   0.622   6.277  15.698 -0.0265  0.5272 -0.7933
 8977TIP3    H148346   0.638   6.251  15.607 -1.9569 -0.8017 -0.8027
 8977TIP3    H248347   0.688   6.230  15.749 -0.3140 -0.4754 -1.3199
 8978TIP3   OH248348   4.710   4.545  13.560 -0.1450 -0.7689  0.6431
 8978TIP3    H148349   4.700   4.453  13.584 -0.2720 -0.5844  1.3012
 8978TIP3    H248350   4.787   4.547  13.503 -0.8885 -1.4735 -0.4360
 8979TIP3   OH248351   3.366   0.392  13.050  0.2501 -0.5591 -0.1710
 8979TIP3    H148352   3.435   0.458  13.058 -0.6092  0.3423  0.0141
 8979TIP3    H248353   3.405   0.313  13.088  1.7989 -0.5823 -1.6750
 8980TIP3   OH248354   3.563   5.813   3.975  0.5657 -0.0185  0.0494
 8980TIP3    H148355   3.507   5.771   4.040 -2.3606 -1.8025 -3.3007
 8980TIP3    H248356   3.635   5.752   3.962 -0.1678 -0.8633 -0.1136
 8981TIP3   OH248357   6.776   2.306  12.752 -0.1783 -0.5588 -0.4199
 8981TIP3    H148358   6.862   2.295  12.711  0.0742 -0.7050  0.1278
 8981TIP3    H248359   6.714   2.265  12.692  0.2144 -1.0077 -0.5217
 8982TIP3   OH248360   2.320   5.923  12.849  0.5625  0.0083 -0.4455
 8982TIP3    H148361   2.271   5.844  12.826  0.5647 -0.0540 -0.2450
 8982TIP3    H248362   2.349   5.959  12.766  0.4052 -0.1036 -0.5491
 8983TIP3   OH248363   6.478   4.166   1.167  0.1050  0.1408  0.0617
 8983TIP3    H148364   6.383   4.162   1.172 -0.0157 -0.9965 -1.9182
 8983TIP3    H248365   6.504   4.080   1.135  1.6289  0.9590 -1.0443
 8984TIP3   OH248366   4.996   5.747  13.190  0.2116  0.0703 -0.5466
 8984TIP3    H148367   4.960   5.660  13.172 -0.6630  0.4171 -0.5392
 8984TIP3    H248368   4.988   5.757  13.285 -0.1849  0.3690 -0.6116
 8985TIP3   OH248369   5.881   5.525   4.094  0.5941  0.0600 -0.2778
 8985TIP3    H148370   5.854   5.616   4.089 -2.4808 -0.7468 -0.6712
 8985TIP3    H248371   5.972   5.528   4.123  0.5537  3.2081 -0.1612
 8986TIP3   OH248372   0.909   5.926  14.445 -0.1128 -0.4520 -0.9048
 8986TIP3    H148373   0.818   5.952  14.459  0.1093 -0.7423  1.4604
 8986TIP3    H248374   0.923   5.939  14.351 -2.0852  1.1878 -1.0509
 8987TIP3   OH248375   6.776   0.223   1.991  0.1861  0.2580  0.0045
 8987TIP3    H148376   6.871   0.221   2.002  0.0398 -0.4993  1.2903
 8987TIP3    H248377   6.744   0.147   2.039 -1.3405  2.4862  2.9047
 8988TIP3   OH248378   3.533   2.311  10.389 -0.5090  0.1113 -0.3397
 8988TIP3    H148379   3.620   2.345  10.367 -0.4058 -0.6211 -1.1325
 8988TIP3    H248380   3.490   2.300  10.304 -0.2363 -2.4799 -0.2214
 8989TIP3   OH248381   4.930   3.859  13.511 -0.0006 -0.5267 -0.0720
 8989TIP3    H148382   4.951   3.867  13.418  1.0594 -1.1584  0.0874
 8989TIP3    H248383   4.937   3.765  13.528 -1.7718 -0.6189  0.3076
 8990TIP3   OH248384   1.419   1.842   4.141  0.1136  0.3373 -0.4124
 8990TIP3    H148385   1.469   1.869   4.218 -0.5658  0.7088 -0.0920
 8990TIP3    H248386   1.455   1.895   4.070  0.5878  0.1593 -0.3094
 8991TIP3   OH248387   4.931   1.633   5.270 -0.1042 -0.1978 -0.2638
 8991TIP3    H148388   4.942   1.552   5.220  2.4166 -0.5713  0.7388
 8991TIP3    H248389   4.997   1.693   5.234 -2.2038  1.6752 -1.2880
 8992TIP3   OH248390   4.574   2.654  15.960 -0.2024  0.1781 -0.1662
 8992TIP3    H148391   4.667   2.674  15.969  0.1284 -1.3034  0.0840
 8992TIP3    H248392   4.564   2.569  16.003 -1.1020 -1.0285 -2.5298
 8993TIP3   OH248393   5.404   3.336   1.517  0.1770 -0.2382 -0.4188
 8993TIP3    H148394   5.402   3.249   1.476 -1.0889 -0.3628 -0.1474
 8993TIP3    H248395   5.384   3.319   1.610  3.1219  0.0222  0.3453
 8994TIP3   OH248396   5.642   6.659  13.636  0.0974  0.2194 -0.3075
 8994TIP3    H148397   5.645   6.563  13.634  2.6109  0.2091 -2.2392
 8994TIP3    H248398   5.550   6.680  13.651 -0.3063 -2.4487  1.7223
 8995TIP3   OH248399   1.838   5.004   4.784 -0.0872 -0.0879  0.0518
 8995TIP3    H148400   1.811   5.093   4.761 -2.0353 -0.7897 -0.5794
 8995TIP3    H248401   1.870   4.967   4.702  0.9845  0.1079  0.3746
 8996TIP3   OH248402   3.454   5.563   0.997  0.1661  0.1824 -0.2777
 8996TIP3    H148403   3.537   5.555   1.043 -0.2718 -1.1699  0.3145
 8996TIP3    H248404   3.396   5.609   1.058  0.3892  0.9276 -0.6066
 8997TIP3   OH248405   2.590   3.001  14.478 -0.4880  0.4701  0.0772
 8997TIP3    H148406   2.561   2.936  14.414  1.0702  1.1859 -1.4130
 8997TIP3    H248407   2.673   2.967  14.511 -0.4849  0.9050  0.5243
 8998TIP3   OH248408   5.913   2.934   2.241 -1.1848  1.0969  0.2071
 8998TIP3    H148409   5.885   3.022   2.216  1.4296  2.0734  0.3191
 8998TIP3    H248410   6.002   2.927   2.206 -0.1301 -0.2622  2.8246
 8999TIP3   OH248411   4.536   1.171   1.150  0.0251 -0.4009  0.0218
 8999TIP3    H148412   4.610   1.166   1.090 -1.2424 -0.9894 -1.5765
 8999TIP3    H248413   4.574   1.197   1.234  2.3112 -2.6010 -0.2144
 9000TIP3   OH248414   4.655   3.659  14.678  0.6502  0.3781  0.3183
 9000TIP3    H148415   4.570   3.620  14.700  0.0114  0.8223 -1.2283
 9000TIP3    H248416   4.709   3.643  14.755 -0.8620  0.1696  1.3782
 9001TIP3   OH248417   4.874   6.212  16.978  0.4930 -0.3043  0.3643
 9001TIP3    H148418   4.936   6.246  17.042  0.5900 -1.9097  1.1771
 9001TIP3    H248419   4.900   6.121  16.966 -0.6912 -0.5456 -0.5591
 9002TIP3   OH248420   5.899   6.237  14.242  0.0812  0.0287  0.0841
 9002TIP3    H148421   5.970   6.234  14.307 -1.3878 -2.7755  1.7743
 9002TIP3    H248422   5.919   6.312  14.187  2.1737  1.7673  2.9776
 9003TIP3   OH248423   5.101   3.107  16.890 -0.7614  0.2352  0.3394
 9003TIP3    H148424   5.178   3.156  16.859  0.3975  1.7003  4.7951
 9003TIP3    H248425   5.129   3.015  16.887  0.6245  0.6166  0.5334
 9004TIP3   OH248426   1.376   4.401  12.072 -0.1446  0.4204  0.1667
 9004TIP3    H148427   1.317   4.331  12.044  0.6678 -0.6707  1.1054
 9004TIP3    H248428   1.420   4.366  12.149  1.3384  1.4128 -0.1929
 9005TIP3   OH248429   2.870   5.519   0.842  0.4730  0.0325 -0.0624
 9005TIP3    H148430   2.857   5.611   0.864 -1.2645 -0.1541 -0.1540
 9005TIP3    H248431   2.781   5.484   0.832  1.1025 -1.2660 -1.6221
 9006TIP3   OH248432   3.376   1.235   0.940  0.4545 -0.5597 -0.6859
 9006TIP3    H148433   3.381   1.272   1.028 -1.2623 -0.3870 -0.6302
 9006TIP3    H248434   3.379   1.140   0.954 -0.6863 -0.5607 -0.3456
 9007TIP3   OH248435   2.941   1.747   5.368 -0.1070  0.2605 -0.1759
 9007TIP3    H148436   2.931   1.696   5.287 -0.1158 -1.6694  0.9704
 9007TIP3    H248437   3.030   1.728   5.397 -0.1932  0.7278  0.4022
 9008TIP3   OH248438   2.905   1.045   0.733 -0.0056  0.2445  0.0228
 9008TIP3    H148439   2.810   1.053   0.740 -0.1473  1.3741 -2.2177
 9008TIP3    H248440   2.935   1.135   0.723  1.3516 -0.0917  0.8116
 9009TIP3   OH248441   4.018   3.499  11.715 -0.1386 -0.7440 -0.3268
 9009TIP3    H148442   4.055   3.438  11.778  0.0580  0.4159  0.7057
 9009TIP3    H248443   4.030   3.585  11.754  0.0042  0.0121 -1.9628
 9010TIP3   OH248444   0.242   3.935  11.906 -0.0321 -0.7883  0.3538
 9010TIP3    H148445   0.209   4.019  11.938 -1.7287 -0.7513 -1.2678
 9010TIP3    H248446   0.266   3.952  11.815 -2.1950 -2.3986 -0.6280
 9011TIP3   OH248447   5.794   4.678   1.919  0.0941  0.3522  0.4587
 9011TIP3    H148448   5.854   4.741   1.959  0.6687 -0.3413  0.7172
 9011TIP3    H248449   5.707   4.704   1.950  0.3966  0.6035  1.1062
 9012TIP3   OH248450   3.002   4.532  11.581 -0.4463 -0.0714  0.1054
 9012TIP3    H148451   3.010   4.543  11.676 -0.5573 -0.5605  0.1745
 9012TIP3    H248452   2.935   4.596  11.555  0.4061  0.8712  0.1814
 9013TIP3   OH248453   5.608   2.632   4.224  0.2943 -0.1340  0.2644
 9013TIP3    H148454   5.554   2.582   4.285  0.9012 -0.2555  0.7129
 9013TIP3    H248455   5.558   2.712   4.207  1.0381  0.9221  2.6202
 9014TIP3   OH248456   2.569   5.956  14.401  0.8922  0.3698  0.3547
 9014TIP3    H148457   2.517   6.036  14.407 -0.5642 -0.4680 -0.6847
 9014TIP3    H248458   2.550   5.921  14.314  1.2862 -1.2549  0.8952
 9015TIP3   OH248459   0.523   6.140   4.072  0.2145  0.1295 -0.1893
 9015TIP3    H148460   0.567   6.073   4.020  0.9745  0.1759  0.3770
 9015TIP3    H248461   0.541   6.116   4.162 -0.0206  0.7546  0.0287
 9016TIP3   OH248462   4.905   1.560   1.679 -0.1653 -0.4706 -0.5647
 9016TIP3    H148463   4.848   1.496   1.636 -0.9694 -0.5640  0.5867
 9016TIP3    H248464   4.865   1.573   1.765  1.6376 -0.6386  0.3441
 9017TIP3   OH248465   3.491   5.566   1.363  0.0231 -0.2683  0.0119
 9017TIP3    H148466   3.428   5.565   1.435 -0.3478  1.7633 -0.2160
 9017TIP3    H248467   3.498   5.475   1.336 -3.4318 -0.5205 -0.4731
 9018TIP3   OH248468   5.972   0.340   6.626 -0.6507 -0.5866 -0.3847
 9018TIP3    H148469   5.891   0.390   6.640 -1.7720 -2.2714 -0.5970
 9018TIP3    H248470   5.949   0.250   6.649  0.9416 -1.2448 -1.2260
 9019TIP3   OH248471   6.238   4.084   1.225  0.0791  0.1185  0.1669
 9019TIP3    H148472   6.176   4.082   1.298  1.1665 -1.3039  1.1024
 9019TIP3    H248473   6.214   4.008   1.172  0.2048  0.3218 -0.1810
 9020TIP3   OH248474   1.182   1.309   0.078  0.4020 -0.8484  0.1231
 9020TIP3    H148475   1.228   1.263   0.008 -1.3789 -1.7297 -0.5455
 9020TIP3    H248476   1.124   1.243   0.116 -0.8896  0.3824  0.3812
 9021TIP3   OH248477   2.201   2.776  16.166 -0.1151 -0.4547 -0.4710
 9021TIP3    H148478   2.213   2.764  16.072 -2.1927  0.0173 -0.8357
 9021TIP3    H248479   2.147   2.854  16.174  1.0658  0.2543  1.1958
 9022TIP3   OH248480   2.476   2.018  11.542 -0.6407  0.2711 -0.0469
 9022TIP3    H148481   2.395   1.967  11.540 -1.5240  1.6131 -1.5512
 9022TIP3    H248482   2.536   1.972  11.483 -0.5815 -0.3058  0.4615
 9023TIP3   OH248483   5.996   1.880   4.784 -0.0148 -0.2822 -0.2486
 9023TIP3    H148484   6.051   1.933   4.727 -1.1915  0.3484 -0.8155
 9023TIP3    H248485   5.981   1.934   4.861 -0.6801 -0.0362 -0.5445
 9024TIP3   OH248486   5.811   3.199  16.204  0.2395 -0.2247 -0.1406
 9024TIP3    H148487   5.814   3.294  16.187  0.5921 -0.2849 -0.4272
 9024TIP3    H248488   5.843   3.159  16.124 -0.7688 -0.6319 -0.3499
 9025TIP3   OH248489   6.462   4.172  13.120 -0.1133 -0.0323  0.2436
 9025TIP3    H148490   6.451   4.204  13.030  1.4152 -0.0470  0.0334
 9025TIP3    H248491   6.377   4.190  13.161  0.0072  2.4628 -0.4274
 9026TIP3   OH248492   2.760   0.912  16.874 -0.2048 -0.8945 -0.1526
 9026TIP3    H148493   2.795   0.930  16.961  1.7710  0.9395 -1.2363
 9026TIP3    H248494   2.694   0.980  16.860  1.7650  0.8664 -1.2667
 9027TIP3   OH248495   0.259   4.831  14.090  0.0272 -0.2232  0.4316
 9027TIP3    H148496   0.264   4.786  14.174  2.3546 -1.9840 -0.5399
 9027TIP3    H248497   0.323   4.786  14.035 -2.7482 -0.5197 -2.9466
 9028TIP3   OH248498   5.722   1.539  14.380 -0.2781  0.5759  0.1152
 9028TIP3    H148499   5.786   1.470  14.362  1.3502  2.2411 -0.6899
 9028TIP3    H248500   5.693   1.568  14.293 -1.1529  0.7569  0.4518
 9029TIP3   OH248501   0.715   4.803  11.024 -0.0790 -1.0207  0.4507
 9029TIP3    H148502   0.797   4.777  11.065  0.5937 -1.1990 -0.9373
 9029TIP3    H248503   0.687   4.725  10.975  1.3200  0.3312 -2.7763
 9030TIP3   OH248504   1.860   3.369   4.580  0.0920  0.7420 -0.0588
 9030TIP3    H148505   1.891   3.279   4.583 -1.4025  0.2257  1.7113
 9030TIP3    H248506   1.939   3.422   4.576  0.9779 -0.6324 -2.9430
 9031TIP3   OH248507   5.002   6.198   6.165 -0.0383  0.2259  0.3661
 9031TIP3    H148508   4.926   6.253   6.147  1.7370  2.6135 -0.3552
 9031TIP3    H248509   5.059   6.252   6.218  1.2455 -1.4557  0.7963
 9032TIP3   OH248510   0.951   2.063   5.194  0.0035  0.2472 -0.5713
 9032TIP3    H148511   0.968   2.154   5.218 -1.4587  0.7842 -1.4262
 9032TIP3    H248512   0.862   2.064   5.158  0.1254 -1.4467 -1.0116
 9033TIP3   OH248513   3.711   5.710   0.211 -0.3791  0.4595 -0.2340
 9033TIP3    H148514   3.652   5.766   0.260  0.2595  0.7204  0.2438
 9033TIP3    H248515   3.774   5.678   0.276 -0.3511 -0.2973 -0.6204
 9034TIP3   OH248516   2.199   4.264   5.159 -0.2337  1.0826  0.4070
 9034TIP3    H148517   2.138   4.234   5.092 -0.6453 -1.4846  1.7793
 9034TIP3    H248518   2.206   4.358   5.146 -0.5884  0.7583 -2.9356
 9035TIP3   OH248519   4.458   3.405   4.924 -0.1136  0.1070 -0.1084
 9035TIP3    H148520   4.393   3.398   4.854  0.6788 -1.9328 -0.7077
 9035TIP3    H248521   4.457   3.319   4.966  0.1425  0.9741  1.7719
 9036TIP3   OH248522   2.902   3.263  12.937 -0.3879 -0.1257 -0.0210
 9036TIP3    H148523   2.882   3.227  12.851  1.7711 -0.2818 -0.5287
 9036TIP3    H248524   2.919   3.186  12.991  0.6606  0.0042 -0.1389
 9037TIP3   OH248525   4.593   5.373   4.309  0.5768  0.3141  0.4234
 9037TIP3    H148526   4.671   5.400   4.261  0.8976 -0.4244  0.5175
 9037TIP3    H248527   4.626   5.320   4.381 -0.1454 -2.8322 -1.3851
 9038TIP3   OH248528   5.701   6.388  13.640  0.3828 -0.0380 -0.7688
 9038TIP3    H148529   5.679   6.296  13.626 -0.5723 -0.3574  2.1013
 9038TIP3    H248530   5.782   6.401  13.591  1.4422 -2.8835  0.0142
 9039TIP3   OH248531   6.295   6.352  15.915  0.0943 -0.2726 -0.1235
 9039TIP3    H148532   6.226   6.312  15.862  0.1459 -0.7963  0.1927
 9039TIP3    H248533   6.274   6.325  16.005  0.0265  0.5708  0.1274
 9040TIP3   OH248534   5.980   5.345  12.818 -0.4813 -0.4639  1.0206
 9040TIP3    H148535   6.025   5.295  12.886 -0.4623 -1.5537  0.2304
 9040TIP3    H248536   5.893   5.360  12.855 -0.7666 -1.8075  0.9609
 9041TIP3   OH248537   5.532   2.107  11.777 -0.9747 -0.7008  0.1673
 9041TIP3    H148538   5.609   2.150  11.814 -0.0707 -0.8549 -1.4740
 9041TIP3    H248539   5.546   2.109  11.683 -2.1910 -2.2218 -0.0829
 9042TIP3   OH248540   2.479   3.746  11.571  0.1820  0.4475 -0.5542
 9042TIP3    H148541   2.504   3.655  11.587 -1.1587  0.3931  1.6525
 9042TIP3    H248542   2.415   3.741  11.500  0.6220 -0.2569 -0.9086
 9043TIP3   OH248543   0.020   6.330   6.098 -0.7314  0.0977 -0.2767
 9043TIP3    H148544   0.027   6.253   6.155 -1.0184 -0.1337 -0.5483
 9043TIP3    H248545  -0.014   6.399   6.155  0.3406  0.2643  0.1824
 9044TIP3   OH248546   1.453   0.376   2.144 -0.5882 -0.2740 -0.8186
 9044TIP3    H148547   1.485   0.465   2.160  0.7922 -0.7729 -0.6210
 9044TIP3    H248548   1.434   0.341   2.231 -2.7159  0.3465 -0.9875
 9045TIP3   OH248549   1.586   0.832   2.362  0.0894  0.1323 -1.1231
 9045TIP3    H148550   1.595   0.915   2.316  1.9257  0.2584 -0.6143
 9045TIP3    H248551   1.554   0.856   2.450  0.2476  0.2552 -1.1002
 9046TIP3   OH248552   3.090   2.683   5.951 -0.1120 -0.4360  0.8775
 9046TIP3    H148553   3.162   2.631   5.987  1.3947  1.0369  0.1900
 9046TIP3    H248554   3.062   2.739   6.023 -1.6653 -2.0450  1.5879
 9047TIP3   OH248555   2.949   4.834  15.259 -0.2819 -0.2680 -0.5222
 9047TIP3    H148556   2.967   4.743  15.284 -0.3885  0.1959  1.4269
 9047TIP3    H248557   3.030   4.881  15.280  0.3204 -0.1097 -2.9318
 9048TIP3   OH248558   0.184   6.033   4.414 -0.5287 -0.0462  0.3215
 9048TIP3    H148559   0.256   6.096   4.411  0.3780 -1.0700 -1.2975
 9048TIP3    H248560   0.174   6.004   4.323 -2.1742 -0.8580  0.7164
 9049TIP3   OH248561   5.984   2.792  15.270  0.0170 -0.2205 -0.0552
 9049TIP3    H148562   5.936   2.851  15.329  2.1315  0.5380  0.9857
 9049TIP3    H248563   5.924   2.719  15.257 -0.7833 -0.1396  2.5772
 9050TIP3   OH248564   1.756   2.451  16.845  0.5124 -0.0532 -0.4181
 9050TIP3    H148565   1.763   2.372  16.898  0.9965  0.4611  0.3220
 9050TIP3    H248566   1.686   2.433  16.783  0.9615 -1.2485 -0.6060
 9051TIP3   OH248567   3.414   3.801  14.707  0.6048 -0.0768 -0.9339
 9051TIP3    H148568   3.337   3.815  14.653  1.2756  0.2714 -1.8245
 9051TIP3    H248569   3.394   3.846  14.789 -0.0030  0.2919 -1.2781
 9052TIP3   OH248570   3.732   4.992   3.079  0.1113 -0.0264 -0.1251
 9052TIP3    H148571   3.665   5.058   3.092 -0.1543 -0.6388  2.0543
 9052TIP3    H248572   3.810   5.041   3.053 -0.5710  0.9240 -0.4131
 9053TIP3   OH248573   5.926   4.161  16.129  0.4334  0.0903 -0.2218
 9053TIP3    H148574   5.914   4.089  16.067 -0.5423 -1.0562  1.2452
 9053TIP3    H248575   5.852   4.220  16.111 -0.7494 -1.0083  0.8109
 9054TIP3   OH248576   2.677   2.896  14.856 -0.3404  0.2541 -0.0627
 9054TIP3    H148577   2.604   2.955  14.835 -1.6369 -1.3178 -0.1651
 9054TIP3    H248578   2.636   2.824  14.905  1.3620 -0.0510  0.9753
 9055TIP3   OH248579   5.182   3.224   2.003  0.0653  0.0683 -0.2954
 9055TIP3    H148580   5.141   3.262   2.081 -1.2771 -0.6932 -0.5969
 9055TIP3    H248581   5.112   3.223   1.938  0.9304 -0.1113 -1.2390
 9056TIP3   OH248582   3.097   5.791   4.589 -0.3019  0.1168  0.0788
 9056TIP3    H148583   3.176   5.844   4.596 -0.3848  0.6207 -1.9593
 9056TIP3    H248584   3.031   5.852   4.556 -0.6710 -0.9672 -1.3155
 9057TIP3   OH248585   4.058   3.332  12.177 -0.1889 -0.2770  0.0156
 9057TIP3    H148586   3.969   3.306  12.153 -0.1478 -0.0301 -0.4201
 9057TIP3    H248587   4.078   3.405  12.118 -1.3227  2.6279  2.9187
 9058TIP3   OH248588   1.898   5.786  14.924 -0.0581  0.1645  0.0035
 9058TIP3    H148589   1.880   5.816  14.835 -1.4736  2.0877  0.8594
 9058TIP3    H248590   1.920   5.693  14.915  1.3508  0.6677 -2.4905
 9059TIP3   OH248591   3.614   0.083   1.081  0.4033  0.5744  0.2091
 9059TIP3    H148592   3.705   0.085   1.052  0.7426 -1.1809  0.9890
 9059TIP3    H248593   3.572   0.019   1.023 -0.5686  1.9298 -0.6546
 9060TIP3   OH248594   4.331   4.599   2.557  0.2114  0.0743  0.1900
 9060TIP3    H148595   4.324   4.570   2.466  2.3049 -0.9644  0.3008
 9060TIP3    H248596   4.385   4.532   2.599  1.3435  1.7791  1.5828
 9061TIP3   OH248597   0.529   2.779  11.663  0.2873  0.2034  0.3170
 9061TIP3    H148598   0.623   2.765  11.647  0.4617 -0.1063  1.4473
 9061TIP3    H248599   0.496   2.819  11.583  1.0444 -1.1947 -0.7366
 9062TIP3   OH248600   4.676   1.390   2.672 -0.1699 -0.1964  0.3700
 9062TIP3    H148601   4.615   1.460   2.647  1.5422  1.3336  0.2757
 9062TIP3    H248602   4.620   1.322   2.708 -1.9845  0.9287 -0.1656
 9063TIP3   OH248603   4.333   4.668   0.358 -0.1419 -0.1253 -0.1810
 9063TIP3    H148604   4.295   4.643   0.442 -1.3984  1.3908 -0.2666
 9063TIP3    H248605   4.389   4.743   0.379  0.5766 -0.5463 -0.5274
 9064TIP3   OH248606   1.725   2.059  12.279 -0.3873 -0.1168  0.4196
 9064TIP3    H148607   1.712   2.056  12.184 -0.2157  0.3681  0.3761
 9064TIP3    H248608   1.656   2.118  12.310  0.2811  0.6623  0.4540
 9065TIP3   OH248609   3.305   2.261   0.218  0.6159 -0.7639  0.2617
 9065TIP3    H148610   3.310   2.261   0.313  1.3993 -0.1023  0.2314
 9065TIP3    H248611   3.389   2.297   0.190  0.0375 -0.1029 -0.6636
 9066TIP3   OH248612   6.569   5.592  15.141  0.5132  0.2496  0.6386
 9066TIP3    H148613   6.661   5.567  15.146 -0.0019 -2.1594 -0.4512
 9066TIP3    H248614   6.558   5.659  15.208  2.2973 -1.8439  3.2006
 9067TIP3   OH248615   3.141   1.395   1.569 -0.1366 -0.3149 -0.4426
 9067TIP3    H148616   3.105   1.335   1.503  3.6173 -0.6363 -2.4899
 9067TIP3    H248617   3.205   1.343   1.617  0.9360  1.2276 -0.1194
 9068TIP3   OH248618   3.099   1.732   3.809  0.3286  0.3797 -0.4357
 9068TIP3    H148619   3.114   1.753   3.901  0.5966 -1.0619 -0.1376
 9068TIP3    H248620   3.182   1.693   3.780  0.2579  0.8596 -1.3025
 9069TIP3   OH248621   6.616   2.296  12.516  0.2415 -0.3047 -0.3066
 9069TIP3    H148622   6.651   2.359  12.452 -1.1791  0.1268 -0.7037
 9069TIP3    H248623   6.521   2.301  12.504  0.0196 -1.1860  0.9495
 9070TIP3   OH248624   3.759   2.860  12.817  0.0217  0.4378  0.5979
 9070TIP3    H148625   3.842   2.830  12.854 -0.2353  1.3379  1.9955
 9070TIP3    H248626   3.740   2.941  12.864 -2.0344 -0.1675  0.9078
 9071TIP3   OH248627   0.092   5.452   1.367  0.4407  0.5511 -0.0318
 9071TIP3    H148628   0.071   5.466   1.275 -0.0507 -0.6307 -0.1062
 9071TIP3    H248629   0.013   5.414   1.405  0.6005  1.1237  0.9089
 9072TIP3   OH248630   4.783   4.432  10.570 -0.4964 -0.2786  0.6040
 9072TIP3    H148631   4.794   4.375  10.494  0.1050  2.9587 -1.9338
 9072TIP3    H248632   4.872   4.449  10.600 -0.5764  0.3076  0.5241
 9073TIP3   OH248633   3.732   3.845  11.773  0.1615  0.3443 -0.0478
 9073TIP3    H148634   3.704   3.820  11.685  1.8498  0.0259 -0.5268
 9073TIP3    H248635   3.739   3.940  11.771 -0.4937  0.3964 -0.0306
 9074TIP3   OH248636   6.113   3.644   0.895 -0.4323  0.2879  0.3959
 9074TIP3    H148637   6.205   3.626   0.911 -0.5558 -0.3730  0.4196
 9074TIP3    H248638   6.086   3.576   0.833 -0.3818  1.7312 -1.2884
 9075TIP3   OH248639   4.742   3.965   0.096  0.0514 -0.2615 -0.2339
 9075TIP3    H148640   4.823   3.995   0.055  0.0046 -0.4859 -0.4939
 9075TIP3    H248641   4.756   3.978   0.189  1.0532 -1.8836 -0.1205
 9076TIP3   OH248642   5.622   2.566  13.957  0.4090 -0.1829 -0.0295
 9076TIP3    H148643   5.683   2.619  14.008 -0.0855  1.5690 -1.1671
 9076TIP3    H248644   5.676   2.526  13.888  0.5778 -0.1459  0.0803
 9077TIP3   OH248645   1.602   4.086   0.471 -0.0961  0.4342  0.2824
 9077TIP3    H148646   1.633   4.079   0.380 -0.1296  0.6755  0.2517
 9077TIP3    H248647   1.571   4.176   0.478  0.8421  0.7285  0.8375
 9078TIP3   OH248648   1.340   3.047   3.889  0.0149 -0.4414  0.2201
 9078TIP3    H148649   1.362   2.965   3.933 -1.1844 -1.0375 -0.2665
 9078TIP3    H248650   1.395   3.113   3.932  0.2606 -1.3296  1.2942
 9079TIP3   OH248651   2.919   3.843  16.705  0.9277 -0.4553  0.0874
 9079TIP3    H148652   2.886   3.885  16.625 -0.1925 -0.2634  0.6296
 9079TIP3    H248653   2.865   3.765  16.715  0.0476  0.2912  1.4412
 9080TIP3   OH248654   2.343   2.260   4.463 -0.0412 -0.4150 -0.5523
 9080TIP3    H148655   2.411   2.327   4.466  0.2170 -0.6600 -0.9125
 9080TIP3    H248656   2.364   2.202   4.537  2.7388 -2.9748 -3.0789
 9081TIP3   OH248657   1.969   3.193  11.354 -0.5723  0.1653  0.2121
 9081TIP3    H148658   1.948   3.146  11.273 -0.0815  0.1474  0.0922
 9081TIP3    H248659   1.939   3.283  11.337  0.3696  0.3895 -0.3559
 9082TIP3   OH248660   4.132   4.672   2.119 -0.3538  0.1295  0.5905
 9082TIP3    H148661   4.119   4.588   2.076 -1.1522  0.1899  0.7030
 9082TIP3    H248662   4.073   4.670   2.195 -0.2226  0.7023  0.7164
 9083TIP3   OH248663   4.898   5.797   2.509 -0.3391  0.0955 -0.0088
 9083TIP3    H148664   4.947   5.753   2.579  1.5437 -0.0440 -1.3467
 9083TIP3    H248665   4.888   5.730   2.441  1.1466  1.2255 -1.3973
 9084TIP3   OH248666   2.774   1.604  12.944 -0.4557 -0.0510  0.3494
 9084TIP3    H148667   2.815   1.553  12.875  0.6128 -1.7774  2.1668
 9084TIP3    H248668   2.747   1.540  13.010 -0.4155  1.5694  2.0570
 9085TIP3   OH248669   3.966   1.983   1.943 -0.4381  0.1342 -0.6499
 9085TIP3    H148670   4.008   1.922   1.882  1.1500  0.4644  0.0451
 9085TIP3    H248671   3.872   1.973   1.928 -0.1275 -0.9957 -1.9592
 9086TIP3   OH248672   3.588   0.982  12.550  0.2294 -0.1454 -0.1613
 9086TIP3    H148673   3.498   0.977  12.580  0.7006  0.4732  1.4720
 9086TIP3    H248674   3.583   0.970  12.456 -1.3056 -2.6839  0.1596
 9087TIP3   OH248675   1.883   3.050  11.143 -0.0640 -0.2530 -0.1656
 9087TIP3    H148676   1.789   3.041  11.127 -0.2705  0.3681  0.6201
 9087TIP3    H248677   1.917   3.091  11.063 -0.3538 -1.0005 -0.6879
 9088TIP3   OH248678   6.095   0.406  11.591  0.0663 -0.2259  0.0158
 9088TIP3    H148679   6.009   0.424  11.554 -0.7242 -1.5132  1.1607
 9088TIP3    H248680   6.107   0.312  11.581  1.3402 -0.0726 -0.0993
 9089TIP3   OH248681   1.424   5.115  14.523  0.4667 -0.3406  0.4320
 9089TIP3    H148682   1.498   5.062  14.493 -0.7122 -2.7276  1.5195
 9089TIP3    H248683   1.363   5.116  14.450  1.2925  1.2264 -0.2893
 9090TIP3   OH248684   6.267   5.537   3.491  0.2243  0.0186 -0.1481
 9090TIP3    H148685   6.183   5.496   3.512  0.5461 -0.3565  0.4430
 9090TIP3    H248686   6.278   5.521   3.397 -0.2340 -0.1779 -0.1737
 9091TIP3   OH248687   4.767   1.327   6.441 -0.3396  0.4925 -0.4068
 9091TIP3    H148688   4.791   1.377   6.363 -1.8934 -0.3504 -1.4856
 9091TIP3    H248689   4.709   1.386   6.490 -4.0602 -0.8211 -2.8057
 9092TIP3   OH248690   4.195   3.916   1.581  0.3493  0.2684 -0.0234
 9092TIP3    H148691   4.243   3.991   1.545 -0.4820  0.7677 -0.1406
 9092TIP3    H248692   4.224   3.842   1.528  1.6309  0.3877  0.4838
 9093TIP3   OH248693   3.297   4.412   5.425  1.0391  0.5642 -1.2182
 9093TIP3    H148694   3.235   4.485   5.422 -1.5772 -1.4016  0.3822
 9093TIP3    H248695   3.326   4.409   5.516  0.6270 -0.7250 -1.1151
 9094TIP3   OH248696   5.808   4.629   1.303 -0.7916  0.3483  0.2606
 9094TIP3    H148697   5.781   4.571   1.232  1.7964  0.3917 -0.8643
 9094TIP3    H248698   5.736   4.692   1.310 -1.1397  0.3947 -2.4294
 9095TIP3   OH248699   1.082   4.186  13.240  0.5400  0.1106  0.7341
 9095TIP3    H148700   1.033   4.204  13.160 -3.1902 -1.1957  2.5003
 9095TIP3    H248701   1.145   4.119  13.215  1.0714  1.3601 -1.5260
 9096TIP3   OH248702   6.022   1.123  13.782  0.2816 -0.1968  0.7294
 9096TIP3    H148703   6.082   1.099  13.853  2.4530  2.3752 -0.0478
 9096TIP3    H248704   6.048   1.067  13.709  0.0957 -0.7429  1.0727
 9097TIP3   OH248705   5.624   4.305   4.249  0.5294  0.7119  0.7403
 9097TIP3    H148706   5.637   4.216   4.214 -0.7291  0.3863  1.0495
 9097TIP3    H248707   5.703   4.353   4.222  1.4013 -0.5898  0.8721
 9098TIP3   OH248708   5.450   0.559  11.474 -0.0795 -0.5914  0.2039
 9098TIP3    H148709   5.372   0.510  11.449 -1.2324  2.1745 -2.2157
 9098TIP3    H248710   5.492   0.582  11.391  1.2910  1.0585  1.2814
 9099TIP3   OH248711   5.905   4.082  13.642  0.2189 -0.5707  0.1986
 9099TIP3    H148712   5.927   4.172  13.619  0.7081 -0.8206 -0.3574
 9099TIP3    H248713   5.990   4.040  13.656  0.0214 -1.0972 -0.1552
 9100TIP3   OH248714   0.452   5.984  13.971 -0.3018  0.1453  0.3046
 9100TIP3    H148715   0.530   5.997  13.917 -0.2734  1.4955  0.6211
 9100TIP3    H248716   0.482   5.928  14.043  0.1096 -0.1778 -0.1100
 9101TIP3   OH248717   2.257   2.782  16.615 -0.4924  0.5408  0.0498
 9101TIP3    H148718   2.190   2.745  16.673  0.1435 -2.1792 -0.7932
 9101TIP3    H248719   2.218   2.778  16.528  0.2316  0.3033 -0.2671
 9102TIP3   OH248720   4.430   4.040   5.667 -0.2758  0.6068  0.5076
 9102TIP3    H148721   4.395   4.076   5.585 -0.3467  1.9002  1.0737
 9102TIP3    H248722   4.403   4.104   5.734  2.4064  1.2455  1.1124
 9103TIP3   OH248723   2.564   2.867  15.990 -0.3907  0.4003  0.1521
 9103TIP3    H148724   2.551   2.772  16.000 -0.8651 -0.0958 -3.6238
 9103TIP3    H248725   2.475   2.902  15.985 -0.2306  0.6916 -0.7628
 9104TIP3   OH248726   1.454   6.673  15.689  0.4906  0.1034  0.3548
 9104TIP3    H148727   1.477   6.687  15.597  2.0444 -1.0657  0.5146
 9104TIP3    H248728   1.422   6.583  15.692  2.0736 -0.4769  1.1860
 9105TIP3   OH248729   6.477   1.093   5.394 -0.3466 -0.2387  0.7989
 9105TIP3    H148730   6.394   1.061   5.360  0.1289 -0.7362  0.0795
 9105TIP3    H248731   6.488   1.179   5.353 -0.4007 -0.2633  0.7340
 9106TIP3   OH248732   3.300   6.641   4.238  1.0465  0.5430 -0.0406
 9106TIP3    H148733   3.322   6.711   4.299  2.0225  0.0878  0.1513
 9106TIP3    H248734   3.347   6.662   4.158 -0.6725  1.4401 -0.8746
 9107TIP3   OH248735   5.832   1.000   0.366 -0.5206  0.1852 -0.6495
 9107TIP3    H148736   5.864   0.914   0.394  0.3145  0.9542  0.8759
 9107TIP3    H248737   5.765   1.023   0.430  0.9002  1.6530  0.3941
 9108TIP3   OH248738   3.269   5.259   5.862 -0.5029 -0.5869  0.3446
 9108TIP3    H148739   3.326   5.310   5.919  0.7776 -1.4349 -0.1224
 9108TIP3    H248740   3.310   5.172   5.859 -0.0501 -0.3631 -2.4826
 9109TIP3   OH248741   3.277   0.593   1.104  0.1372 -0.4346 -0.4773
 9109TIP3    H148742   3.357   0.643   1.117  1.2588 -2.6224  1.9637
 9109TIP3    H248743   3.207   0.659   1.105  1.7607  1.3954 -1.2261
 9110TIP3   OH248744   0.281   6.446  15.374  0.0060 -0.2732 -0.6747
 9110TIP3    H148745   0.258   6.429  15.466  2.9210  1.0993  0.4372
 9110TIP3    H248746   0.292   6.360  15.335 -0.4796 -0.8872  0.4978
 9111TIP3   OH248747   3.557   6.347   4.604 -0.9984  0.1032 -0.9150
 9111TIP3    H148748   3.511   6.376   4.525 -0.5338 -0.1593 -1.2845
 9111TIP3    H248749   3.570   6.253   4.591  0.6298  0.3634 -1.3258
 9112TIP3   OH248750   1.263   5.456   2.939  0.2013 -0.3951 -0.2285
 9112TIP3    H148751   1.236   5.535   2.892  0.7130 -1.1917 -1.9179
 9112TIP3    H248752   1.224   5.384   2.890  0.6720 -1.2558  0.6363
 9113TIP3   OH248753   3.856   4.931   1.115 -0.3899 -0.0263 -0.0873
 9113TIP3    H148754   3.799   5.008   1.116 -1.3007 -0.6915 -0.1577
 9113TIP3    H248755   3.916   4.948   1.042 -0.8767  0.4122 -0.3976
 9114TIP3   OH248756   0.283   3.118   5.870 -0.3608  0.1849 -0.1054
 9114TIP3    H148757   0.208   3.173   5.896 -0.6702  0.8608 -2.2408
 9114TIP3    H248758   0.257   3.029   5.893 -1.7093  0.4522 -0.5250
 9115TIP3   OH248759   2.799   3.775  10.410  0.1675 -0.0645  0.3370
 9115TIP3    H148760   2.748   3.851  10.382  0.3473 -0.1343 -0.1912
 9115TIP3    H248761   2.737   3.702  10.403 -0.1823  0.1140  1.4183
 9116TIP3   OH248762   6.099   2.411   5.418 -0.3613  0.8103  0.0821
 9116TIP3    H148763   6.181   2.461   5.421  1.2394 -1.6435  0.9754
 9116TIP3    H248764   6.083   2.385   5.509 -1.7864  0.6906 -0.1788
 9117TIP3   OH248765   5.017   1.309   1.126 -0.0190 -0.6995  0.0723
 9117TIP3    H148766   5.109   1.290   1.145 -0.2735 -1.1292  0.9479
 9117TIP3    H248767   4.994   1.378   1.187 -0.5749 -1.3787  0.6501
 9118TIP3   OH248768   2.978   4.982  16.061 -0.4931  0.3744 -0.0345
 9118TIP3    H148769   2.951   4.970  15.970  0.8678 -0.6158 -0.3521
 9118TIP3    H248770   3.074   4.985  16.057 -0.4221  3.6538  1.0257
 9119TIP3   OH248771   3.416   2.207   1.991  0.0517 -0.0838  0.0663
 9119TIP3    H148772   3.419   2.296   1.955 -0.2248 -0.0950  0.0136
 9119TIP3    H248773   3.354   2.160   1.936  1.4821 -0.8115 -0.9796
 9120TIP3   OH248774   1.119   0.606   1.303  0.3303 -0.3177 -0.0042
 9120TIP3    H148775   1.048   0.630   1.363 -0.2144  0.5908 -0.9933
 9120TIP3    H248776   1.198   0.642   1.345 -0.2380  1.6966 -0.5541
 9121TIP3   OH248777   3.164   6.408   6.515  0.0543 -0.8741  0.0047
 9121TIP3    H148778   3.222   6.394   6.441 -0.2717 -0.1106 -0.4076
 9121TIP3    H248779   3.139   6.320   6.544  0.3482 -1.1763 -0.6540
 9122TIP3   OH248780   6.472   1.917   1.896 -0.4161  0.2252  0.1053
 9122TIP3    H148781   6.432   1.962   1.971 -2.3104 -2.3255  0.7715
 9122TIP3    H248782   6.481   1.827   1.925  2.3306 -0.1149 -1.4986
 9123TIP3   OH248783   4.233   1.511   3.604  0.8885 -0.3989  0.7070
 9123TIP3    H148784   4.314   1.555   3.577  1.8310 -2.5146 -0.2034
 9123TIP3    H248785   4.215   1.545   3.691  0.2248  3.3964 -0.7447
 9124TIP3   OH248786   3.881   0.628  11.155 -0.0092  0.1868  0.2237
 9124TIP3    H148787   3.823   0.621  11.079 -0.3560  1.1665  0.3804
 9124TIP3    H248788   3.954   0.682  11.124 -0.1126  0.5234  0.5563
 9125TIP3   OH248789   3.689   6.678  11.295 -0.1354 -0.6410  0.4287
 9125TIP3    H148790   3.782   6.658  11.298 -0.4020 -2.0969 -0.1272
 9125TIP3    H248791   3.651   6.608  11.243 -1.0743  1.7519 -2.4316
 9126TIP3   OH248792   3.291   1.763  15.305  0.0496  0.2636 -0.1541
 9126TIP3    H148793   3.319   1.805  15.224  0.9255  1.2028  0.5963
 9126TIP3    H248794   3.357   1.696  15.321 -0.7381 -0.6845 -0.7758
 9127TIP3   OH248795   2.261   6.620  15.161 -0.0781 -0.5854  0.0412
 9127TIP3    H148796   2.323   6.672  15.212  0.2816 -0.4282 -0.5556
 9127TIP3    H248797   2.193   6.681  15.135  0.4653 -0.3510 -0.8599
 9128TIP3   OH248798   4.534   5.604   3.981 -0.6485  0.2028  1.0633
 9128TIP3    H148799   4.439   5.593   3.988 -0.5871 -0.5826  0.7281
 9128TIP3    H248800   4.552   5.686   4.027 -1.6392  0.9898  0.1109
 9129TIP3   OH248801   3.153   6.423  16.475 -0.1462  0.0296  0.4751
 9129TIP3    H148802   3.203   6.375  16.541 -0.2868  0.3383  0.8100
 9129TIP3    H248803   3.062   6.399  16.492 -0.2753  0.8166  0.9986
 9130TIP3   OH248804   2.139   4.410  15.862 -0.7089  0.0244 -0.4659
 9130TIP3    H148805   2.154   4.362  15.944 -0.4000  0.2297 -0.3999
 9130TIP3    H248806   2.075   4.357  15.815 -1.1436  0.0780  0.0579
 9131TIP3   OH248807   1.800   6.297  13.074 -0.2461 -0.1853  0.2438
 9131TIP3    H148808   1.757   6.382  13.084 -0.7262 -0.5798  1.8001
 9131TIP3    H248809   1.765   6.262  12.992 -0.7013  0.7340  0.0304
 9132TIP3   OH248810   4.289   2.213   2.609 -0.4180  0.2631 -0.3006
 9132TIP3    H148811   4.298   2.130   2.563 -0.9599  0.5162 -0.8808
 9132TIP3    H248812   4.279   2.278   2.540 -3.7549  0.3803  0.1099
 9133TIP3   OH248813   4.509   4.479   0.856 -0.1478 -0.3176 -0.1757
 9133TIP3    H148814   4.499   4.467   0.761 -0.6798  1.2853 -0.3522
 9133TIP3    H248815   4.603   4.481   0.870 -0.0602 -0.7618 -0.6306
 9134TIP3   OH248816   0.231   5.561   0.203 -0.2247  0.2145  0.0926
 9134TIP3    H148817   0.152   5.508   0.207 -0.2763  0.2552 -0.3353
 9134TIP3    H248818   0.271   5.537   0.120  0.7056 -0.5130  0.7227
 9135TIP3   OH248819   4.055   2.519  13.943 -0.1729 -0.0799 -0.1105
 9135TIP3    H148820   4.148   2.512  13.921 -0.3151 -1.8849 -0.3048
 9135TIP3    H248821   4.014   2.445  13.898 -1.6868  0.5624  0.1389
 9136TIP3   OH248822   4.150   0.818   1.455  0.5534 -0.4798 -0.3001
 9136TIP3    H148823   4.189   0.808   1.541 -0.0194 -0.3122 -0.0133
 9136TIP3    H248824   4.206   0.882   1.410 -0.9641  2.0077  1.1241
 9137TIP3   OH248825   1.461   2.363  17.068 -0.0357 -0.0457  0.1426
 9137TIP3    H148826   1.365   2.366  17.077 -0.2155  2.1489 -1.5698
 9137TIP3    H248827   1.476   2.303  16.995  0.0029 -1.1686  1.0442
 9138TIP3   OH248828   1.089   0.985   1.153  0.5156 -0.0271  0.0707
 9138TIP3    H148829   1.085   0.950   1.064  3.1470  0.9253 -0.5278
 9138TIP3    H248830   1.181   0.976   1.178  0.4727  2.4993  1.5093
 9139TIP3   OH248831   1.946   3.250   5.475 -0.4252 -0.2316  0.0039
 9139TIP3    H148832   1.997   3.253   5.394  0.5507 -0.1159  0.6013
 9139TIP3    H248833   2.006   3.283   5.542 -1.5372  0.6357  0.6142
 9140TIP3   OH248834   2.160   1.146  16.116  0.3800 -0.0178 -0.2123
 9140TIP3    H148835   2.181   1.203  16.190 -1.4850 -1.3215  1.4402
 9140TIP3    H248836   2.133   1.205  16.047 -0.0552  1.1783  0.9437
 9141TIP3   OH248837   0.230   0.094  11.983  0.0586 -0.0925 -0.6992
 9141TIP3    H148838   0.228   0.135  12.070  0.3200 -0.9072 -0.2999
 9141TIP3    H248839   0.140   0.104  11.950 -0.1542 -0.1442 -0.1496
 9142TIP3   OH248840   1.049   1.443   2.752 -0.6778  0.2269  0.0636
 9142TIP3    H148841   1.054   1.536   2.730  0.6276  0.0271 -0.6235
 9142TIP3    H248842   1.104   1.400   2.686 -2.1508 -1.1645 -0.3333
 9143TIP3   OH248843   2.472   2.407  16.236  0.4546  0.0919  0.5380
 9143TIP3    H148844   2.425   2.358  16.303  1.4335  2.6922  3.3958
 9143TIP3    H248845   2.564   2.400  16.261  1.1515 -0.6480 -1.9104
 9144TIP3   OH248846   0.492   4.404  10.693 -0.1058  0.4934 -0.3056
 9144TIP3    H148847   0.560   4.472  10.694 -1.3846  1.8531 -1.2967
 9144TIP3    H248848   0.463   4.403  10.602 -1.4831  0.0141  0.1299
 9145TIP3   OH248849   0.213   4.422  11.094 -0.2038 -0.2261  0.0318
 9145TIP3    H148850   0.157   4.489  11.056 -1.1585 -2.0621 -2.0397
 9145TIP3    H248851   0.259   4.383  11.019 -0.5831 -2.6268  0.9468
 9146TIP3   OH248852   6.194   6.486  13.491 -0.3902 -0.1253  0.3024
 9146TIP3    H148853   6.208   6.525  13.405 -1.1430  0.6083  0.5056
 9146TIP3    H248854   6.282   6.460  13.520 -0.2064 -0.9822 -0.9532
 9147TIP3   OH248855   2.250   2.881   1.922  0.4977  0.0161 -0.1144
 9147TIP3    H148856   2.311   2.820   1.961 -0.0767  0.8983  2.3928
 9147TIP3    H248857   2.238   2.949   1.989 -0.3370  1.8513 -2.0051
 9148TIP3   OH248858   5.284   6.636  11.003 -0.0292  0.5797  0.4824
 9148TIP3    H148859   5.269   6.730  11.014 -1.2454  0.6048 -1.0748
 9148TIP3    H248860   5.313   6.627  10.912 -0.6056 -0.6233  0.4033
 9149TIP3   OH248861   1.143   2.120  16.155 -0.8147 -0.1624  0.4840
 9149TIP3    H148862   1.157   2.120  16.060 -0.2708  0.0635  0.5606
 9149TIP3    H248863   1.159   2.210  16.182 -0.5409 -0.3131  0.8450
 9150TIP3   OH248864   3.848   5.840  14.889  0.0061 -0.0817  0.0193
 9150TIP3    H148865   3.758   5.856  14.918  0.2721 -0.7664  1.2739
 9150TIP3    H248866   3.886   5.927  14.881 -0.7242  0.2107 -0.3942
 9151TIP3   OH248867   0.347   2.404  16.863 -0.3293  0.4513 -0.4488
 9151TIP3    H148868   0.431   2.380  16.902 -0.0062  0.6198 -1.0281
 9151TIP3    H248869   0.318   2.480  16.913  0.3392  0.9968 -0.8750
 9152TIP3   OH248870   4.205   2.264  11.289 -0.1612  0.5747  0.5363
 9152TIP3    H148871   4.257   2.225  11.219 -0.0926 -1.1030  1.4531
 9152TIP3    H248872   4.263   2.327  11.331  0.7628 -0.4273  0.8058
 9153TIP3   OH248873   0.029   2.842   3.693  0.3440 -0.5657 -0.2125
 9153TIP3    H148874   0.109   2.893   3.700  0.5207 -0.8775  0.0340
 9153TIP3    H248875  -0.027   2.875   3.763 -0.2062  0.4648 -1.0999
 9154TIP3   OH248876   1.773   6.584   1.701  0.3166  0.5394  0.1476
 9154TIP3    H148877   1.688   6.618   1.729 -0.6451 -0.9472 -0.7951
 9154TIP3    H248878   1.809   6.651   1.644  0.3431  1.7022  1.4823
 9155TIP3   OH248879   6.478   3.236   1.186 -0.0510 -0.5912  0.0066
 9155TIP3    H148880   6.539   3.253   1.113  0.7824 -1.7409  0.4195
 9155TIP3    H248881   6.520   3.277   1.262  0.6317 -2.0708  0.4547
 9156TIP3   OH248882   2.392   4.527  15.016  0.1508  0.7569  0.8191
 9156TIP3    H148883   2.346   4.452  15.054 -0.6207  0.3675 -0.7915
 9156TIP3    H248884   2.485   4.509  15.030 -0.0896  0.2638  1.8081
 9157TIP3   OH248885   4.683   4.739   0.124  0.6254  0.2071 -0.1915
 9157TIP3    H148886   4.763   4.723   0.174  1.7857  0.2497 -1.9235
 9157TIP3    H248887   4.636   4.656   0.125 -0.6034  0.8122  2.8785
 9158TIP3   OH248888   1.905   5.649  13.510  0.5046  0.6342  0.4703
 9158TIP3    H148889   1.868   5.705  13.578 -1.7289 -1.3679  1.0257
 9158TIP3    H248890   1.881   5.691  13.428  0.4897  1.4274  0.8725
 9159TIP3   OH248891   1.350   1.382  11.219  0.3836  0.4624 -0.5648
 9159TIP3    H148892   1.270   1.330  11.211  0.9372 -0.5838  0.3514
 9159TIP3    H248893   1.319   1.471  11.233 -0.7095 -0.1492  1.4032
 9160TIP3   OH248894   5.016   6.204  12.837 -0.2655 -0.5585  0.0907
 9160TIP3    H148895   5.035   6.114  12.810  2.0187  0.1483 -0.9102
 9160TIP3    H248896   4.971   6.243  12.762  0.7425 -0.2735 -0.3843
 9161TIP3   OH248897   0.845   2.923   0.174 -0.0953 -0.0383  0.1820
 9161TIP3    H148898   0.766   2.891   0.129 -0.4238  0.4079  0.4306
 9161TIP3    H248899   0.883   2.844   0.213  0.0536 -0.3875 -0.6556
 9162TIP3   OH248900   3.981   4.868  15.783  0.2952  0.0020 -0.1003
 9162TIP3    H148901   4.007   4.892  15.694  0.1291 -0.3957 -0.2597
 9162TIP3    H248902   3.902   4.920  15.800 -0.0234 -0.3637 -0.4180
 9163TIP3   OH248903   0.622   4.741   3.162 -0.1882  0.2562 -0.2747
 9163TIP3    H148904   0.585   4.669   3.110  0.0339  0.2407 -0.4106
 9163TIP3    H248905   0.716   4.724   3.163  0.1805  1.8240 -2.3119
 9164TIP3   OH248906   6.003   6.767   5.462 -0.0206  0.0918  0.1202
 9164TIP3    H148907   5.915   6.749   5.495 -0.2980  0.0277 -0.6527
 9164TIP3    H248908   6.060   6.740   5.534 -0.6254  0.1335  0.6297
 9165TIP3   OH248909   0.872   6.415   5.658 -0.1859  0.7330 -0.0390
 9165TIP3    H148910   0.809   6.394   5.727 -0.4674  1.6469 -0.0015
 9165TIP3    H248911   0.873   6.511   5.655  1.2785  0.7514  0.0279
 9166TIP3   OH248912   3.476   2.165   1.355  0.2515  0.1966  0.4644
 9166TIP3    H148913   3.426   2.124   1.284 -1.1171  0.0224  1.4915
 9166TIP3    H248914   3.516   2.091   1.402 -0.9147  0.1149  1.3644
 9167TIP3   OH248915   1.653   0.767  13.526  0.2949  0.1278 -0.1360
 9167TIP3    H148916   1.598   0.735  13.455 -0.2758 -1.4654  0.9624
 9167TIP3    H248917   1.729   0.807  13.482 -0.2291 -0.4469 -1.6196
 9168TIP3   OH248918   1.103   3.116   1.297 -0.0640  0.5071  0.3214
 9168TIP3    H148919   1.119   3.183   1.364 -0.7252 -0.7507  1.7982
 9168TIP3    H248920   1.024   3.071   1.326 -0.0694 -0.4382 -1.0356
 9169TIP3   OH248921   1.523   2.166  16.484 -0.0721  0.6327  0.0679
 9169TIP3    H148922   1.597   2.119  16.524  1.9734  1.6472 -2.2324
 9169TIP3    H248923   1.458   2.098  16.468  1.7289 -0.9945 -0.7843
 9170TIP3   OH248924   3.780   0.973  15.191  0.5652  0.4156  0.0965
 9170TIP3    H148925   3.713   1.041  15.184 -0.1038 -0.1536  0.7888
 9170TIP3    H248926   3.734   0.891  15.169  0.9302 -0.0262  0.9380
 9171TIP3   OH248927   4.266   0.269  13.175 -0.7445 -0.3829 -0.4006
 9171TIP3    H148928   4.294   0.231  13.092  0.9599 -0.3442  0.1004
 9171TIP3    H248929   4.347   0.305  13.213 -1.7572  1.0207  0.5455
 9172TIP3   OH248930   3.292   0.314   4.143  0.0967  0.1408 -0.1191
 9172TIP3    H148931   3.341   0.304   4.225  1.6455 -1.2095 -1.1597
 9172TIP3    H248932   3.357   0.304   4.074 -1.8458 -3.8152 -1.6669
 9173TIP3   OH248933   1.990   4.385   1.046 -0.4420  0.3649  0.3198
 9173TIP3    H148934   2.075   4.381   1.090  0.5162  1.5043 -1.3270
 9173TIP3    H248935   1.964   4.293   1.036  0.3828  0.0173  1.2357
 9174TIP3   OH248936   1.401   5.391   3.329 -0.1406 -0.4474 -0.3275
 9174TIP3    H148937   1.312   5.406   3.360 -0.4732  0.2924 -1.5519
 9174TIP3    H248938   1.449   5.470   3.352 -1.0831  1.3802 -3.9451
 9175TIP3   OH248939   6.191   1.899  11.682  0.5039 -0.3423 -0.2113
 9175TIP3    H148940   6.229   1.913  11.769  0.5920 -1.1548 -0.1091
 9175TIP3    H248941   6.167   1.987  11.652 -0.2698 -0.1306  0.9607
 9176TIP3   OH248942   6.601   3.975   3.439  0.4969  0.4166 -0.1074
 9176TIP3    H148943   6.521   4.021   3.413 -0.1108 -1.4923 -1.8793
 9176TIP3    H248944   6.642   3.949   3.356  1.8712 -0.4047  0.7907
 9177TIP3   OH248945   1.692   1.400   2.609  0.0131  0.0227  0.5754
 9177TIP3    H148946   1.718   1.418   2.700  1.9007 -0.4248  0.1660
 9177TIP3    H248947   1.670   1.307   2.608  1.0203 -0.2341  0.3948
 9178TIP3   OH248948   6.620   5.199  10.527  0.0943 -0.2332  0.3414
 9178TIP3    H148949   6.623   5.141  10.451 -0.4842  1.9987 -1.5037
 9178TIP3    H248950   6.526   5.214  10.542  0.2307  0.0115  0.9756
 9179TIP3   OH248951   3.742   4.856  13.410  0.5772 -0.0500  0.2700
 9179TIP3    H148952   3.721   4.787  13.347  0.8459  0.1944 -0.0921
 9179TIP3    H248953   3.693   4.932  13.380 -0.2930 -0.2788  1.0902
 9180TIP3   OH248954   0.492   2.146  14.128 -0.4891 -0.0285  0.2954
 9180TIP3    H148955   0.580   2.137  14.166 -0.5481 -2.3512  0.0205
 9180TIP3    H248956   0.442   2.073  14.164 -1.7446  0.1184 -1.0385
 9181TIP3   OH248957   1.976   1.844   2.058 -0.1854  0.2631 -0.4849
 9181TIP3    H148958   2.054   1.809   2.101  0.8923  1.0262 -1.7480
 9181TIP3    H248959   1.910   1.776   2.070  0.9226 -0.7983 -0.1625
 9182TIP3   OH248960   0.875   0.143   5.578 -0.0032 -1.0101  0.0868
 9182TIP3    H148961   0.879   0.211   5.511  1.5589 -2.5393 -1.5033
 9182TIP3    H248962   0.967   0.117   5.590 -0.4404 -1.9959  1.5608
 9183TIP3   OH248963   1.668   0.679   6.745 -0.1662  0.3408  0.2847
 9183TIP3    H148964   1.705   0.758   6.785 -0.4694  0.7337 -0.1886
 9183TIP3    H248965   1.726   0.608   6.772 -1.2551  0.3005  2.7730
 9184TIP3   OH248966   2.143   5.159   4.676  1.1599  0.3985  0.0954
 9184TIP3    H148967   2.118   5.087   4.618  0.8900  0.5307  0.0478
 9184TIP3    H248968   2.232   5.137   4.703  0.1565 -1.4251  2.2829
 9185TIP3   OH248969   5.378   5.090  11.802  0.1066  0.2248  0.1218
 9185TIP3    H148970   5.449   5.155  11.804  1.5069 -1.2426  1.7723
 9185TIP3    H248971   5.351   5.087  11.710  1.0638  1.9778 -0.2775
 9186TIP3   OH248972   4.633   1.831   0.095  0.6432  0.0609  0.4692
 9186TIP3    H148973   4.671   1.891   0.031  0.2914 -0.3178 -0.1057
 9186TIP3    H248974   4.616   1.751   0.046  3.6378 -1.5490  1.8073
 9187TIP3   OH248975   3.116   3.332  14.599 -0.1475 -0.0563  0.8716
 9187TIP3    H148976   3.070   3.251  14.576  0.9994 -0.2011 -1.1583
 9187TIP3    H248977   3.117   3.383  14.518 -0.6199  1.9257  2.0390
 9188TIP3   OH248978   1.927   5.036  13.827  0.0751  0.3374 -0.4906
 9188TIP3    H148979   1.885   4.950  13.837 -0.6610  0.8382  1.1977
 9188TIP3    H248980   1.854   5.097  13.819  0.5520  0.9527 -0.2130
 9189TIP3   OH248981   3.042   1.394   1.240 -0.1980 -0.1508 -0.3922
 9189TIP3    H148982   2.956   1.352   1.244  0.4524 -1.4569  0.6400
 9189TIP3    H248983   3.037   1.464   1.306 -0.6120  0.1089 -0.6870
 9190TIP3   OH248984   3.418   5.115   3.671 -0.4151  0.2113 -0.4385
 9190TIP3    H148985   3.498   5.117   3.724  0.8895  1.3617 -2.2955
 9190TIP3    H248986   3.447   5.146   3.585 -2.8827  0.5878 -1.1898
 9191TIP3   OH248987   5.171   5.913   0.860 -0.9032  0.2292 -0.3188
 9191TIP3    H148988   5.114   5.959   0.799 -1.0643  1.7571  0.9155
 9191TIP3    H248989   5.138   5.937   0.947 -0.3368 -1.4081  0.4036
 9192TIP3   OH248990   4.134   5.604  12.283 -0.3652  0.1352  0.5630
 9192TIP3    H148991   4.040   5.620  12.278 -0.0403  1.8856 -0.8927
 9192TIP3    H248992   4.174   5.680  12.241  1.6536 -1.2061 -0.1197
 9193TIP3   OH248993   4.104   5.080   0.798 -0.7143 -0.0893  0.1682
 9193TIP3    H148994   4.125   5.088   0.705 -0.2839 -0.9428  0.1814
 9193TIP3    H248995   4.008   5.088   0.802 -0.9242 -1.8088 -0.5711
 9194TIP3   OH248996   5.512   1.697  12.646  0.2642  0.0020  0.1502
 9194TIP3    H148997   5.595   1.745  12.658  0.2731 -0.3981  2.0087
 9194TIP3    H248998   5.537   1.605  12.655 -0.1075 -0.2489 -1.2047
 9195TIP3   OH248999   4.804   1.987  13.856 -0.0198  0.2095  0.3738
 9195TIP3    H149000   4.899   1.986  13.868 -0.0949  0.1286  1.0333
 9195TIP3    H249001   4.776   1.901  13.888 -0.3670  0.4467  0.7234
 9196TIP3   OH249002   0.991   3.909  13.977  0.0401 -0.1809  0.1467
 9196TIP3    H149003   0.926   3.978  13.966  0.2096 -0.1693 -0.8733
 9196TIP3    H249004   0.941   3.835  14.012 -0.5108 -0.1270 -0.4955
 9197TIP3   OH249005   0.483   5.169  12.728  0.1748  0.1193 -0.3897
 9197TIP3    H149006   0.513   5.124  12.808  0.1922  0.7910 -0.0134
 9197TIP3    H249007   0.512   5.259  12.739 -0.2392  0.3250 -0.9466
 9198TIP3   OH249008   4.611   0.959  13.932  0.5768  0.4663  0.4026
 9198TIP3    H149009   4.538   0.899  13.944 -0.0588  0.7158 -1.7169
 9198TIP3    H249010   4.650   0.934  13.848 -0.4048  3.5749 -1.1577
 9199TIP3   OH249011   1.746   3.713   5.165 -0.5845  0.5237  0.0571
 9199TIP3    H149012   1.729   3.623   5.136  0.5516 -0.4735  2.2074
 9199TIP3    H249013   1.661   3.745   5.196 -0.8104 -0.2035  0.2085
 9200TIP3   OH249014   1.116   3.128  12.338  0.1478  0.4846 -0.4403
 9200TIP3    H149015   1.142   3.193  12.272 -0.3797  1.0558 -0.0973
 9200TIP3    H249016   1.198   3.101  12.379  0.1975  3.0852  1.4168
 9201TIP3   OH249017   2.179   3.926   1.278 -0.9088  0.1051 -0.8591
 9201TIP3    H149018   2.219   3.888   1.356  0.5894 -1.3819 -2.2672
 9201TIP3    H249019   2.096   3.881   1.268 -1.0017  0.1392 -0.2550
 9202TIP3   OH249020   4.751   3.151   2.582  0.3222  0.2999  0.1994
 9202TIP3    H149021   4.710   3.127   2.499  0.0421  0.7607  0.1996
 9202TIP3    H249022   4.690   3.213   2.621  0.1076 -0.4336  1.0698
 9203TIP3   OH249023   2.398   0.427  16.537 -0.0827 -0.1383  0.2697
 9203TIP3    H149024   2.447   0.503  16.567 -0.2843 -0.5079  1.6042
 9203TIP3    H249025   2.310   0.439  16.575 -0.7221 -0.0356 -1.1720
 9204TIP3   OH249026   3.890   3.974  12.182 -0.1829 -0.0516  0.3468
 9204TIP3    H149027   3.952   3.981  12.109  1.3164 -0.1921  1.5528
 9204TIP3    H249028   3.805   3.964  12.141 -0.0513  4.2801 -1.4996
 9205TIP3   OH249029   0.402   0.343  14.248  0.0412 -0.0855  0.4851
 9205TIP3    H149030   0.472   0.319  14.187 -0.0319 -2.6275  1.2574
 9205TIP3    H249031   0.322   0.343  14.194  0.5424  2.8484 -0.4030
 9206TIP3   OH249032   4.518   1.288   4.600 -0.2178 -0.0664  0.1693
 9206TIP3    H149033   4.601   1.277   4.553 -1.1481  1.0783 -1.9009
 9206TIP3    H249034   4.543   1.322   4.686  1.4092  2.6672 -1.2519
 9207TIP3   OH249035   3.994   2.950   3.395 -0.0513 -0.1669  0.2571
 9207TIP3    H149036   3.968   3.038   3.369  0.3457 -0.4065 -1.0340
 9207TIP3    H249037   3.914   2.910   3.431 -0.5446  0.2951 -0.3131
 9208TIP3   OH249038   6.042   1.222  15.113  0.1445 -0.8688 -0.9442
 9208TIP3    H149039   5.985   1.146  15.116 -1.5774  0.2825 -2.2787
 9208TIP3    H249040   6.095   1.210  15.034  0.6293 -1.1620 -0.5819
 9209TIP3   OH249041   3.081   5.816   2.866  0.3239  0.2422  0.5084
 9209TIP3    H149042   3.015   5.773   2.920 -0.8733  0.0705 -1.0470
 9209TIP3    H249043   3.101   5.753   2.797  1.9403  0.4016  0.7928
 9210TIP3   OH249044   6.001   2.881   4.340 -0.3078 -0.3470  0.1855
 9210TIP3    H149045   6.011   2.862   4.247  1.3769 -1.3617  0.5286
 9210TIP3    H249046   5.957   2.804   4.376 -1.0208  0.0735  0.2433
 9211TIP3   OH249047   6.756   1.422  15.186 -0.8858 -0.2443  0.1318
 9211TIP3    H149048   6.791   1.378  15.263  0.8525 -1.6068 -1.3290
 9211TIP3    H249049   6.668   1.449  15.211 -0.6331 -1.2540  2.3286
 9212TIP3   OH249050   1.229   2.990   5.683 -0.4761 -0.1920  0.2505
 9212TIP3    H149051   1.296   2.978   5.749  0.9960 -0.4195 -1.2273
 9212TIP3    H249052   1.275   2.984   5.599 -2.2235  0.2932 -0.8182
 9213TIP3   OH249053   6.100   5.800   0.992  0.7867 -0.0438 -0.2035
 9213TIP3    H149054   6.142   5.734   1.048 -0.0268 -1.5833 -1.3198
 9213TIP3    H249055   6.085   5.874   1.050 -0.5921 -1.7861  1.8500
 9214TIP3   OH249056   5.236   0.447  12.850 -0.1606  0.0697  0.2536
 9214TIP3    H149057   5.178   0.383  12.808  2.1051 -1.3998 -0.8249
 9214TIP3    H249058   5.243   0.416  12.941  0.3554 -0.8574 -0.0828
 9215TIP3   OH249059   4.553   0.220   1.763  0.0481  0.6284 -0.3711
 9215TIP3    H149060   4.484   0.281   1.736 -0.4097  0.4249  0.3294
 9215TIP3    H249061   4.540   0.208   1.857 -1.5904 -2.6601 -0.8898
 9216TIP3   OH249062   4.304   0.824  10.906 -0.3188  0.0879 -0.6530
 9216TIP3    H149063   4.301   0.899  10.848 -1.0837  0.3605 -0.2789
 9216TIP3    H249064   4.370   0.847  10.972  0.5973 -0.2519 -1.4246
 9217TIP3   OH249065   6.286   1.327  15.261  0.5476 -0.0843 -0.2414
 9217TIP3    H149066   6.196   1.315  15.231  0.7361 -2.0393 -0.1696
 9217TIP3    H249067   6.282   1.319  15.356  0.8185 -0.3720 -0.2521
 9218TIP3   OH249068   1.088   4.872  13.356  0.1750  0.4525 -0.1668
 9218TIP3    H149069   1.155   4.873  13.425  1.1560 -0.5174 -1.0644
 9218TIP3    H249070   1.060   4.781  13.352  0.1543  0.4898 -1.0633
 9219TIP3   OH249071   4.038   5.126  13.613  0.9853  0.1770  0.2233
 9219TIP3    H149072   4.068   5.035  13.611  1.3526  0.2635  1.3622
 9219TIP3    H249073   4.050   5.157  13.523  0.6175 -0.9641 -0.2403
 9220TIP3   OH249074   1.419   2.691   2.605  0.3145 -0.7695  0.2112
 9220TIP3    H149075   1.511   2.715   2.618  0.1914 -0.6254  0.8921
 9220TIP3    H249076   1.418   2.638   2.526  0.6890  0.9718 -1.0064
 9221TIP3   OH249077   4.814   5.308  11.879 -0.1324  0.4382 -0.4201
 9221TIP3    H149078   4.812   5.365  11.802 -0.5992 -0.6633 -1.2667
 9221TIP3    H249079   4.733   5.329  11.926  0.1398  1.0977 -0.2450
 9222TIP3   OH249080   0.948   3.285  12.849  0.1788 -0.0121  0.5199
 9222TIP3    H149081   1.012   3.258  12.915  0.2178 -0.4470  0.3084
 9222TIP3    H249082   0.880   3.218  12.853  1.3238 -1.4076 -1.4966
 9223TIP3   OH249083   3.865   5.733  14.330 -0.2333 -0.1387 -0.4067
 9223TIP3    H149084   3.840   5.825  14.317  0.0347 -0.2716 -2.2049
 9223TIP3    H249085   3.853   5.718  14.423 -0.9634  1.5272 -0.1840
 9224TIP3   OH249086   5.143   6.015   4.302  0.0283  0.3024 -0.1666
 9224TIP3    H149087   5.219   6.033   4.248  1.1238 -0.5490  1.0201
 9224TIP3    H249088   5.176   6.016   4.392 -1.0590 -1.4328  0.3173
 9225TIP3   OH249089   5.902   6.369   4.686 -0.3913  0.7171  0.0823
 9225TIP3    H149090   5.821   6.420   4.689 -0.4877  0.7240 -1.5057
 9225TIP3    H249091   5.933   6.379   4.596 -0.2032 -1.6647 -0.1804
 9226TIP3   OH249092   0.842   2.161   3.616 -0.5478  0.1372 -0.4825
 9226TIP3    H149093   0.822   2.197   3.703 -0.3055 -1.3148  0.2085
 9226TIP3    H249094   0.937   2.160   3.612 -0.5406  1.6670 -1.4344
 9227TIP3   OH249095   0.393   2.517   6.047 -0.0321 -0.9894 -0.1106
 9227TIP3    H149096   0.356   2.429   6.048 -2.4439 -0.0501  0.7789
 9227TIP3    H249097   0.450   2.521   6.123 -2.7481 -0.7462  2.0461
 9228TIP3   OH249098   4.229   0.201  11.112  0.5085  0.3628  0.3899
 9228TIP3    H149099   4.301   0.209  11.049 -0.0244 -0.5142 -0.3512
 9228TIP3    H249100   4.166   0.268  11.085  0.4848  0.2950  0.2784
 9229TIP3   OH249101   3.160   5.308   5.017 -0.2367 -0.7838  0.3907
 9229TIP3    H149102   3.213   5.314   5.097 -2.3143  0.4647  1.7784
 9229TIP3    H249103   3.099   5.381   5.024 -0.4450 -0.5808 -2.4294
 9230TIP3   OH249104   6.145   5.531  15.648 -0.0365  0.1422 -0.5829
 9230TIP3    H149105   6.179   5.526  15.737 -1.6825  1.0888  0.1354
 9230TIP3    H249106   6.221   5.511  15.592  0.9813 -0.6131  1.0077
 9231TIP3   OH249107   3.170   2.013  16.552 -0.4235  0.2043 -0.1100
 9231TIP3    H149108   3.234   1.941  16.548 -0.2300  0.2923  1.0403
 9231TIP3    H249109   3.194   2.070  16.479 -0.7288 -1.0114 -1.1879
 9232TIP3   OH249110   1.776   0.477  13.577  0.0425  0.1491 -0.6823
 9232TIP3    H149111   1.807   0.567  13.570 -1.3460  0.7864  0.6888
 9232TIP3    H249112   1.852   0.423  13.556  1.4185  1.6358  0.3065
 9233TIP3   OH249113   3.637   5.875  14.586  0.0402 -0.0174  0.3020
 9233TIP3    H149114   3.592   5.865  14.502  2.2375 -0.8654 -0.8454
 9233TIP3    H249115   3.686   5.793  14.597  1.2284  0.8183  1.5130
 9234TIP3   OH249116   2.569   2.549   2.961 -0.2112 -0.5491 -0.2125
 9234TIP3    H149117   2.496   2.488   2.951 -0.1235 -0.9101  1.1186
 9234TIP3    H249118   2.531   2.623   3.009 -0.0967  0.0234 -0.9973
 9235TIP3   OH249119   1.839   4.147   4.817  0.4457  0.1999  0.3204
 9235TIP3    H149120   1.794   4.080   4.765  1.9948 -1.0140  0.4602
 9235TIP3    H249121   1.780   4.222   4.815 -1.1163 -0.9763 -0.2983
 9236TIP3   OH249122   5.684   3.044   2.787 -0.2650  0.3005 -0.2214
 9236TIP3    H149123   5.624   3.114   2.762 -0.8681  1.3112  3.4412
 9236TIP3    H249124   5.766   3.089   2.806  0.6105 -0.6006 -1.6909
 9237TIP3   OH249125   4.996   3.452   0.635  0.1970 -0.1647  0.3822
 9237TIP3    H149126   4.907   3.420   0.653 -0.6288  1.4118 -0.6173
 9237TIP3    H249127   4.989   3.497   0.551  1.5677  1.3440  1.0060
 9238TIP3   OH249128   0.914   1.949  15.760  0.3096  0.1065  0.8051
 9238TIP3    H149129   0.981   1.999  15.807  1.8595 -1.0243 -0.0872
 9238TIP3    H249130   0.951   1.936  15.673 -0.4929 -1.6343  0.6861
 9239TIP3   OH249131   0.194   2.309   1.360 -0.3354 -0.0264 -0.4573
 9239TIP3    H149132   0.104   2.277   1.359 -1.1902  2.0755 -2.8563
 9239TIP3    H249133   0.230   2.277   1.443 -2.8337 -2.0265  0.0062
 9240TIP3   OH249134   6.599   1.526   3.520 -0.1011  0.2843 -0.5981
 9240TIP3    H149135   6.522   1.497   3.570  1.5438 -1.4814  1.0355
 9240TIP3    H249136   6.566   1.536   3.431 -2.4758  0.6591  0.2296
 9241TIP3   OH249137   1.249   2.417   3.689  0.6025  0.7191  0.2370
 9241TIP3    H149138   1.238   2.407   3.594 -1.7568  0.0626  0.5070
 9241TIP3    H249139   1.292   2.337   3.717 -0.0155  0.2480 -0.1309
 9242TIP3   OH249140   1.854   1.224   3.428  0.4909 -0.2176 -0.7461
 9242TIP3    H149141   1.928   1.279   3.403  0.9269 -1.1705 -1.6384
 9242TIP3    H249142   1.873   1.197   3.518  0.5408  0.6353 -0.4969
 9243TIP3   OH249143   5.172   1.909   3.289 -0.0047  0.3224  0.1119
 9243TIP3    H149144   5.218   1.852   3.351  0.4991  0.8568  0.2406
 9243TIP3    H249145   5.171   1.861   3.207  0.6176  0.2201  0.1617
 9244TIP3   OH249146   5.040   3.353  17.032  0.4434 -0.1728 -0.3217
 9244TIP3    H149147   5.094   3.373  17.108  0.0276 -0.4090  0.0391
 9244TIP3    H249148   5.090   3.288  16.983  0.0265 -1.1668  0.5493
 9245TIP3   OH249149   3.393   5.817   1.625 -0.1671 -0.3580  0.2966
 9245TIP3    H149150   3.387   5.738   1.572  2.0263 -1.0194  0.9422
 9245TIP3    H249151   3.331   5.803   1.697  1.1405 -2.1078  1.1300
 9246TIP3   OH249152   6.467   1.684   4.600  0.2826  0.7379 -0.4088
 9246TIP3    H149153   6.413   1.604   4.599  1.2906  0.0389 -0.6399
 9246TIP3    H249154   6.427   1.739   4.667  0.2414 -0.4537  0.5812
 9247TIP3   OH249155   4.878   0.532   1.640 -0.2190 -0.2191 -0.0147
 9247TIP3    H149156   4.896   0.623   1.617  2.2103 -0.2186  1.5582
 9247TIP3    H249157   4.964   0.493   1.653 -1.2401 -2.2753  1.1160
 9248TIP3   OH249158   5.944   0.225  14.888  0.4664  0.5771  0.0036
 9248TIP3    H149159   5.884   0.167  14.935 -0.0072  0.1742 -1.0670
 9248TIP3    H249160   5.889   0.295  14.856  0.5339  0.1327 -1.1085
 9249TIP3   OH249161   5.214   5.712   2.487  0.1332 -0.5024 -0.5611
 9249TIP3    H149162   5.196   5.717   2.581 -1.0217  1.2812 -0.8224
 9249TIP3    H249163   5.309   5.727   2.480  0.0975  0.1866  0.2806
 9250TIP3   OH249164   5.220   5.385  15.556 -0.5263  0.5085  0.2507
 9250TIP3    H149165   5.172   5.462  15.586 -0.4136  1.3036 -1.4698
 9250TIP3    H249166   5.176   5.311  15.597 -1.5999  1.3951  0.7447
 9251TIP3   OH249167   0.149   1.534  13.173 -0.3862 -0.3563 -0.2565
 9251TIP3    H149168   0.080   1.522  13.238  1.0416  0.6271  1.5882
 9251TIP3    H249169   0.153   1.629  13.159  0.3027 -0.4300 -0.6364
 9252TIP3   OH249170   4.565   4.553  15.893 -0.5347  0.2148 -0.6192
 9252TIP3    H149171   4.481   4.509  15.876 -1.4969  1.8567 -0.3224
 9252TIP3    H249172   4.566   4.626  15.832  0.1493  0.8787  0.1678
 9253TIP3   OH249173   5.450   3.740   1.017  0.1900 -0.5967  0.5831
 9253TIP3    H149174   5.539   3.772   1.001  0.1984 -0.3628  1.0719
 9253TIP3    H249175   5.460   3.678   1.089 -0.0782 -0.3655  0.8210
 9254TIP3   OH249176   1.986   6.498  13.883  0.1304 -0.0987  0.7541
 9254TIP3    H149177   1.949   6.503  13.795  2.1007  1.3981 -0.0555
 9254TIP3    H249178   2.006   6.405  13.894 -1.0387 -0.4648  0.0470
 9255TIP3   OH249179   3.948   2.082   5.284 -0.2845  0.5845  0.2153
 9255TIP3    H149180   3.886   2.104   5.354 -0.7098  1.2602 -0.3590
 9255TIP3    H249181   3.902   2.106   5.204  0.9507  1.6631 -0.1929
 9256TIP3   OH249182   5.129   5.105  11.254  0.0031  0.3782 -0.4968
 9256TIP3    H149183   5.100   5.018  11.227 -0.9950  0.7428 -0.6571
 9256TIP3    H249184   5.061   5.164  11.220  0.0967  1.1039  0.5382
 9257TIP3   OH249185   4.933   1.873   2.987  0.4942  0.0346  0.5965
 9257TIP3    H149186   4.914   1.966   2.995  2.4993  0.7121 -1.5067
 9257TIP3    H249187   5.029   1.867   2.990  0.4216 -1.9781  0.6695
 9258TIP3   OH249188   6.134   5.891   0.166  0.2913  0.2209  0.0458
 9258TIP3    H149189   6.118   5.968   0.219 -2.0242  0.0199 -0.2930
 9258TIP3    H249190   6.082   5.904   0.087 -2.0915 -2.6621  0.9732
 9259TIP3   OH249191   5.605   6.141   0.720 -0.4439 -0.3687  0.1925
 9259TIP3    H149192   5.581   6.073   0.784  3.0523 -2.9250 -0.8902
 9259TIP3    H249193   5.688   6.177   0.754 -1.2959  2.1788 -0.2208
 9260TIP3   OH249194   0.361   3.176   3.344  0.6059  0.4185 -0.3254
 9260TIP3    H149195   0.406   3.259   3.328 -0.2325  1.0975  0.6874
 9260TIP3    H249196   0.376   3.159   3.437 -1.2512  0.7056  0.0603
 9261TIP3   OH249197   0.833   3.880   1.111  0.5772  0.2899 -0.0113
 9261TIP3    H149198   0.832   3.974   1.129 -0.3011  0.6804 -1.8620
 9261TIP3    H249199   0.784   3.871   1.029  0.7604 -1.7728  0.0596
 9262TIP3   OH249200   5.249   4.203  13.325 -0.2201 -0.9598 -0.2271
 9262TIP3    H149201   5.165   4.178  13.285  1.0013 -2.0935 -2.2592
 9262TIP3    H249202   5.295   4.251  13.256  0.7684 -0.2214  0.9104
 9263TIP3   OH249203   2.920   0.188  15.797 -0.0904 -0.0414  0.0202
 9263TIP3    H149204   2.902   0.203  15.890  1.3685 -0.7460  0.4535
 9263TIP3    H249205   2.927   0.093  15.789  1.2581  0.0749 -0.4792
 9264TIP3   OH249206   1.627   5.274   3.473  0.1839 -0.4381 -0.7198
 9264TIP3    H149207   1.680   5.203   3.437  0.6324  0.1615 -1.2453
 9264TIP3    H249208   1.558   5.288   3.407  0.2906 -0.1621 -0.7722
 9265TIP3   OH249209   5.328   4.658  11.818  0.5090 -0.1157 -0.2116
 9265TIP3    H149210   5.341   4.744  11.778 -1.1144  0.1122 -0.3428
 9265TIP3    H249211   5.235   4.639  11.802 -0.1757 -0.1547  3.1239
 9266TIP3   OH249212   6.787   6.441  11.916 -0.2251  0.0264 -0.3137
 9266TIP3    H149213   6.774   6.360  11.866 -1.3011  0.5473 -0.9052
 9266TIP3    H249214   6.879   6.437  11.943 -0.3698 -1.5942  0.0506
 9267TIP3   OH249215   2.720   2.934  14.079  0.4448  0.4027  0.2102
 9267TIP3    H149216   2.656   2.873  14.040  1.0748 -0.5098  0.5629
 9267TIP3    H249217   2.785   2.877  14.120  1.3513  1.3189  0.0899
 9268TIP3   OH249218   3.817   5.530  15.793 -0.0422  0.2547  0.2398
 9268TIP3    H149219   3.735   5.481  15.783 -0.5497  1.1633 -0.2204
 9268TIP3    H249220   3.800   5.590  15.866  1.1026 -1.2679  1.8333
 9269TIP3   OH249221   5.627   3.985   3.669 -0.5845 -0.0549  0.1170
 9269TIP3    H149222   5.687   4.057   3.647 -0.0231 -0.6619 -0.3780
 9269TIP3    H249223   5.540   4.024   3.661 -0.3552  0.1908 -1.6708
 9270TIP3   OH249224   3.681   2.212   1.030  0.0392 -0.0989  0.0222
 9270TIP3    H149225   3.726   2.274   0.972  2.7278 -1.5059  0.4461
 9270TIP3    H249226   3.597   2.196   0.987  0.2091  2.0331 -1.2916
 9271TIP3   OH249227   5.623   0.810  15.755  0.7014  0.2580  0.3496
 9271TIP3    H149228   5.699   0.787  15.808  1.5316 -0.0242 -0.9323
 9271TIP3    H249229   5.554   0.751  15.784  0.8553  0.7339  1.7533
 9272TIP3   OH249230   1.066   0.728   3.782 -0.1150 -0.1868 -0.3323
 9272TIP3    H149231   1.094   0.695   3.697  0.4066  1.4858 -0.8493
 9272TIP3    H249232   0.974   0.752   3.768 -0.1009 -0.1445 -0.3528
 9273TIP3   OH249233   2.603   3.369  12.820  0.0069  0.2820  0.1041
 9273TIP3    H149234   2.576   3.449  12.865  0.5077  2.1782 -2.7480
 9273TIP3    H249235   2.698   3.368  12.829 -0.1240 -1.2276  1.9351
 9274TIP3   OH249236   4.831   3.412   3.475 -0.2468  0.3488 -0.3220
 9274TIP3    H149237   4.834   3.465   3.555 -0.1282 -0.5009  0.2501
 9274TIP3    H249238   4.739   3.385   3.468 -0.1761  0.0779 -0.2338
 9275TIP3   OH249239   0.669   3.053  15.375  0.4336 -0.4571  0.1911
 9275TIP3    H149240   0.615   2.985  15.335 -0.1088  0.1691 -0.1599
 9275TIP3    H249241   0.731   3.005  15.431  1.4557 -1.3850 -1.6371
 9276TIP3   OH249242   1.069   5.018   0.012  0.2876  1.0750  0.4593
 9276TIP3    H149243   1.123   5.068   0.073  3.3056 -2.3081  0.8596
 9276TIP3    H249244   1.039   4.942   0.062 -1.8911  0.9907 -0.8239
 9277TIP3   OH249245   4.802   6.082  11.914 -0.1335  0.2941  0.4627
 9277TIP3    H149246   4.761   6.125  11.839 -1.8971 -1.3086  0.4323
 9277TIP3    H249247   4.880   6.040  11.878 -1.4167 -1.2017 -0.7774
 9278TIP3   OH249248   3.424   2.253   5.490 -0.2805 -0.4477  0.3293
 9278TIP3    H149249   3.355   2.213   5.542  0.5126 -1.8219  0.3765
 9278TIP3    H249250   3.396   2.241   5.399 -1.1783  1.0507  0.3779
 9279TIP3   OH249251   3.446   1.903  12.013  0.0380  0.1863 -0.0993
 9279TIP3    H149252   3.486   1.820  12.040 -0.1813  0.6289  1.6774
 9279TIP3    H249253   3.520   1.960  11.992  0.2639  0.1326  0.5244
 9280TIP3   OH249254   2.771   1.535   4.774 -0.2070  0.1790 -0.1713
 9280TIP3    H149255   2.767   1.447   4.810 -0.7243  0.5224  0.6274
 9280TIP3    H249256   2.681   1.568   4.780 -0.3035  0.2641 -1.7396
 9281TIP3   OH249257   4.108   2.481  15.403  0.6033  0.4516 -0.0374
 9281TIP3    H149258   4.095   2.411  15.340  1.0213  1.2201 -1.0160
 9281TIP3    H249259   4.198   2.511  15.388  0.2935  1.4817  0.0313
 9282TIP3   OH249260   3.781   5.248   1.928  0.1024 -0.8889 -0.4948
 9282TIP3    H149261   3.828   5.175   1.887 -0.1976 -1.1515 -0.3808
 9282TIP3    H249262   3.827   5.262   2.011  0.3148 -0.7798 -0.6282
 9283TIP3   OH249263   1.358   5.513   4.287  0.2988 -0.3578 -0.0423
 9283TIP3    H149264   1.362   5.593   4.339 -2.3296  0.8189 -1.4450
 9283TIP3    H249265   1.323   5.542   4.202  2.8380 -2.4192 -1.9640
 9284TIP3   OH249266   0.655   0.164   5.402  0.2414 -0.1905 -0.5395
 9284TIP3    H149267   0.637   0.072   5.383  1.6004 -0.4939 -0.4378
 9284TIP3    H249268   0.704   0.162   5.485 -2.2342  0.8429  1.0679
 9285TIP3   OH249269   3.721   1.675  15.649 -0.1908  0.0547 -0.5509
 9285TIP3    H149270   3.717   1.674  15.744  1.3539 -2.4294 -0.4003
 9285TIP3    H249271   3.696   1.586  15.623  1.9823 -0.1552 -2.2289
 9286TIP3   OH249272   5.753   1.920  11.629  0.2483 -0.1056 -0.3948
 9286TIP3    H149273   5.681   1.886  11.575 -1.1561  1.0673  0.6746
 9286TIP3    H249274   5.769   2.008  11.596  2.2527 -0.8169 -1.5677
 9287TIP3   OH249275   6.686   2.482  16.958  0.4679  0.3079 -0.3248
 9287TIP3    H149276   6.669   2.389  16.972 -2.3604  0.9474  1.3311
 9287TIP3    H249277   6.719   2.487  16.869  1.9805 -2.3767 -0.0187
 9288TIP3   OH249278   0.117   2.445   1.152  0.0404  0.0045  0.0193
 9288TIP3    H149279   0.162   2.414   1.230  1.3573 -0.0636 -0.7314
 9288TIP3    H249280   0.100   2.538   1.169 -0.5770 -0.2358  0.7706
 9289TIP3   OH249281   3.296   6.160  12.197 -0.6610  0.6616 -0.3302
 9289TIP3    H149282   3.213   6.119  12.178 -1.2424  1.8564 -0.4931
 9289TIP3    H249283   3.287   6.250  12.163  1.6409  0.0853 -2.8848
 9290TIP3   OH249284   3.086   6.696  14.161 -0.3627 -0.2011  0.4446
 9290TIP3    H149285   3.120   6.782  14.136  0.4320 -0.1903  1.4537
 9290TIP3    H249286   3.018   6.715  14.226 -1.8745 -0.2572 -1.0469
 9291TIP3   OH249287   6.206   2.200  15.635 -0.0143  0.3312  0.2629
 9291TIP3    H149288   6.211   2.139  15.561 -0.4310  0.7058 -0.0809
 9291TIP3    H249289   6.159   2.152  15.703 -2.0107  0.8744 -0.6568
 9292TIP3   OH249290   4.415   5.374   0.320  0.0705 -0.0366 -0.1187
 9292TIP3    H149291   4.380   5.422   0.394  0.3689 -1.0125  0.6831
 9292TIP3    H249292   4.348   5.382   0.252  0.0136  1.2842  0.0722
 9293TIP3   OH249293   2.184   1.601  14.894  0.2732  0.1873 -0.2449
 9293TIP3    H149294   2.126   1.538  14.936  0.2083 -0.2198 -0.9293
 9293TIP3    H249295   2.234   1.639  14.965  1.3661 -1.6925  0.0385
 9294TIP3   OH249296   3.561   5.476  16.787 -0.4481 -0.0335  0.1443
 9294TIP3    H149297   3.524   5.457  16.701 -0.9000  1.9963 -0.1566
 9294TIP3    H249298   3.611   5.556  16.775 -0.1362  0.0383  1.6824
 9295TIP3   OH249299   3.405   2.975  10.966 -0.2127  0.1692  0.0776
 9295TIP3    H149300   3.331   2.944  10.914 -0.8614  0.2117  0.9540
 9295TIP3    H249301   3.469   2.904  10.959 -1.7478 -1.5692  2.2038
 9296TIP3   OH249302   3.586   6.063   0.607 -0.2743 -0.4388 -0.1043
 9296TIP3    H149303   3.585   6.157   0.589  0.6782  0.3292  3.0861
 9296TIP3    H249304   3.494   6.039   0.617 -0.4668  0.6181  0.8376
 9297TIP3   OH249305   6.440   0.571   4.679  0.3397 -0.1376  0.7783
 9297TIP3    H149306   6.502   0.561   4.606 -0.3217 -0.8892  0.3076
 9297TIP3    H249307   6.466   0.653   4.721  2.0204 -0.7128  0.9468
 9298TIP3   OH249308   4.705   6.721  12.425  0.2958  0.0056  0.2493
 9298TIP3    H149309   4.622   6.688  12.390  0.8260  0.3211 -1.3606
 9298TIP3    H249310   4.753   6.753  12.349  1.7739  0.1415  1.1927
 9299TIP3   OH249311   2.014   0.048   3.961  0.2423 -0.2155  0.0399
 9299TIP3    H149312   2.110   0.045   3.959  0.2659  0.1259  0.5493
 9299TIP3    H249313   1.989  -0.035   4.003  0.1620 -1.9724 -3.1710
 9300TIP3   OH249314   4.835   0.558  16.698 -0.0158 -0.0099  0.1005
 9300TIP3    H149315   4.838   0.600  16.612 -0.1221  0.3991  0.2898
 9300TIP3    H249316   4.898   0.608  16.751 -0.8540  0.5379  0.6023
 9301TIP3   OH249317   6.029   0.863   0.625  0.4607 -0.3604 -0.9018
 9301TIP3    H149318   5.987   0.949   0.625  0.1903 -0.4256  1.4213
 9301TIP3    H249319   5.959   0.802   0.601  0.8276  0.0653 -3.2987
 9302TIP3   OH249320   0.580   1.942   1.798  0.1008  0.8075 -0.3941
 9302TIP3    H149321   0.498   1.932   1.846  1.2212  2.8734  2.1917
 9302TIP3    H249322   0.635   1.871   1.828 -0.6447 -0.6018 -2.1580
 9303TIP3   OH249323   2.755   4.152   2.861 -0.0066 -0.1686 -0.0136
 9303TIP3    H149324   2.671   4.150   2.816  0.0800 -1.2749 -0.1618
 9303TIP3    H249325   2.797   4.233   2.831  0.2031 -1.0233 -2.2405
 9304TIP3   OH249326   5.654   5.288   3.547  0.6278 -0.1318 -0.2824
 9304TIP3    H149327   5.606   5.294   3.630  0.0799 -0.3458 -0.5857
 9304TIP3    H249328   5.648   5.196   3.522  2.1833 -0.4103  0.2603
 9305TIP3   OH249329   3.918   3.105  13.944  0.2865 -0.3840 -0.0561
 9305TIP3    H149330   3.912   3.181  14.001  0.0725 -0.4641  0.0295
 9305TIP3    H249331   3.901   3.030  14.001 -1.0145 -0.3991 -0.4136
 9306TIP3   OH249332   6.639   0.392   3.240 -0.0321  0.5233 -0.2706
 9306TIP3    H149333   6.719   0.340   3.231 -0.5826 -0.4668  0.3837
 9306TIP3    H249334   6.583   0.363   3.169 -1.5130 -2.0248  1.7602
 9307TIP3   OH249335   3.151   4.406  15.552 -0.4361  0.4734  0.0783
 9307TIP3    H149336   3.205   4.463  15.497 -0.3115 -0.3659 -0.6960
 9307TIP3    H249337   3.204   4.327  15.564  0.0944  1.1102  2.5155
 9308TIP3   OH249338   1.430   5.501   1.934  0.3411 -0.3822  0.4365
 9308TIP3    H149339   1.364   5.553   1.887  0.2066 -0.1000  0.9242
 9308TIP3    H249340   1.511   5.514   1.886  0.2589  0.1120  0.4282
 9309TIP3   OH249341   6.131   2.570  14.104 -0.3201  0.1264  0.3769
 9309TIP3    H149342   6.182   2.582  14.024  1.3507 -0.3135  1.3217
 9309TIP3    H249343   6.065   2.505  14.081 -0.1557  0.3374 -0.7630
 9310TIP3   OH249344   2.453   1.356   3.960  0.3123  0.2647 -0.2704
 9310TIP3    H149345   2.458   1.446   3.929  1.0405 -0.1312 -1.3709
 9310TIP3    H249346   2.539   1.318   3.939  0.3298 -0.4466  0.9577
 9311TIP3   OH249347   4.606   0.019  12.817 -0.3246 -0.2090 -0.3879
 9311TIP3    H149348   4.683  -0.009  12.865 -0.7028 -1.9223 -0.7213
 9311TIP3    H249349   4.640   0.058  12.737  0.2252  0.6157  0.2297
 9312TIP3   OH249350   6.313   2.067  16.710  0.3531  0.3291  0.4275
 9312TIP3    H149351   6.297   2.027  16.796  0.4731 -0.1964  0.2132
 9312TIP3    H249352   6.340   1.993  16.655 -2.5616  0.1117 -0.8552
 9313TIP3   OH249353   3.704   1.716  13.534 -1.0997 -0.1082 -0.1616
 9313TIP3    H149354   3.730   1.806  13.554 -0.6183  0.2933 -2.3324
 9313TIP3    H249355   3.613   1.710  13.562 -1.1156  1.0189  0.0736
 9314TIP3   OH249356   3.251   5.200   6.841 -0.3300 -0.3848  0.1163
 9314TIP3    H149357   3.184   5.166   6.900 -0.0833  0.5690  0.9754
 9314TIP3    H249358   3.332   5.191   6.890  0.0792 -0.8760 -0.6421
 9315TIP3   OH249359   2.898   5.384  11.678 -0.1618  0.1999  0.1120
 9315TIP3    H149360   2.904   5.439  11.600  1.6854 -0.2687 -0.1224
 9315TIP3    H249361   2.907   5.444  11.752  1.6810  0.2756 -0.1400
 9316TIP3   OH249362   5.526   3.302  11.381 -0.4762 -0.5662 -0.2884
 9316TIP3    H149363   5.621   3.311  11.385 -0.2158 -2.8071  0.0223
 9316TIP3    H249364   5.510   3.258  11.298 -1.0653 -1.5855  0.3394
 9317TIP3   OH249365   6.409   6.217   1.036  0.3049  0.9381 -0.2188
 9317TIP3    H149366   6.360   6.276   1.093  1.2937  1.8448 -0.2576
 9317TIP3    H249367   6.375   6.130   1.056 -0.0485  1.3428  1.0521
 9318TIP3   OH249368   2.489   4.973  15.354  0.5761  0.7178  0.0969
 9318TIP3    H149369   2.576   5.011  15.363  0.5158  1.6033 -2.3474
 9318TIP3    H249370   2.429   5.047  15.368  0.1507  0.0947  1.8747
 9319TIP3   OH249371   3.279   5.663   1.225 -0.4202 -0.1025  0.7558
 9319TIP3    H149372   3.357   5.653   1.280 -0.1091 -0.0651  0.3179
 9319TIP3    H249373   3.223   5.723   1.275 -0.4274 -0.5848  1.3445
 9320TIP3   OH249374   3.641   0.026  11.662 -0.5531 -0.1173 -0.6249
 9320TIP3    H149375   3.628   0.102  11.719 -0.5344 -0.0564 -0.7027
 9320TIP3    H249376   3.595  -0.045  11.707  1.1804 -0.5794  0.5252
 9321TIP3   OH249377   1.373   1.553  13.049  0.0587  0.0803  0.7637
 9321TIP3    H149378   1.454   1.540  13.099 -0.6675 -0.4873  1.8306
 9321TIP3    H249379   1.379   1.642  13.016  2.4057 -0.8218 -1.5855
 9322TIP3   OH249380   2.646   0.427   1.196  0.3368 -0.3793  0.0827
 9322TIP3    H149381   2.690   0.508   1.222 -1.0138  0.4547 -0.1638
 9322TIP3    H249382   2.554   0.440   1.219 -0.2084 -1.1716 -1.4814
 9323TIP3   OH249383   5.064   4.812   6.963  0.1913 -0.2539  0.2926
 9323TIP3    H149384   5.022   4.847   6.884  0.7463  1.8736  0.8718
 9323TIP3    H249385   5.137   4.759   6.929 -0.0714 -0.0486 -0.6332
 9324TIP3   OH249386   4.062   2.697   2.312 -0.0276 -0.1513 -0.4774
 9324TIP3    H149387   4.039   2.606   2.330 -2.5844  0.3945 -0.5829
 9324TIP3    H249388   4.038   2.710   2.220  0.2262  0.6477 -0.4356
 9325TIP3   OH249389   6.171   3.884   1.502  0.8244  0.1526  0.5637
 9325TIP3    H149390   6.144   3.895   1.594  1.2418 -3.3198  1.2474
 9325TIP3    H249391   6.090   3.893   1.452 -0.1888 -1.7458  1.7433
 9326TIP3   OH249392   0.188   4.970   4.707  0.2422 -0.2049  0.6153
 9326TIP3    H149393   0.178   5.032   4.634  1.7428  0.2385  0.7582
 9326TIP3    H249394   0.147   4.889   4.675 -0.3104  0.3828 -0.2010
 9327TIP3   OH249395   0.604   6.369  16.246 -0.3665  0.1203 -0.3843
 9327TIP3    H149396   0.648   6.290  16.278 -2.2064 -0.0562  1.9784
 9327TIP3    H249397   0.653   6.441  16.286  0.2284  0.1251 -1.0983
 9328TIP3   OH249398   0.646   3.160  15.109  0.3677  1.0321  0.0315
 9328TIP3    H149399   0.673   3.154  15.200 -0.0370 -1.1194  0.0504
 9328TIP3    H249400   0.558   3.123  15.107 -0.6087  3.2416 -0.8782
 9329TIP3   OH249401   1.895   5.594  17.107 -0.3925  0.4257  0.3534
 9329TIP3    H149402   1.828   5.603  17.174  1.0189 -1.6611  2.1968
 9329TIP3    H249403   1.977   5.612  17.153  0.5001  1.0412 -1.3763
 9330TIP3   OH249404   6.213   4.331  13.160  0.0907 -0.1146 -0.6062
 9330TIP3    H149405   6.200   4.306  13.252  0.6987  1.9945  0.1190
 9330TIP3    H249406   6.200   4.425  13.159 -1.6406 -0.2813 -3.0706
 9331TIP3   OH249407   3.635   2.760  15.183  0.1367  0.4818 -0.3251
 9331TIP3    H149408   3.660   2.686  15.239  1.5941  0.6766 -0.6758
 9331TIP3    H249409   3.628   2.834  15.244 -0.9313  0.1629 -0.0328
 9332TIP3   OH249410   4.554   6.455   5.805 -0.5204 -0.1475 -0.7016
 9332TIP3    H149411   4.579   6.478   5.716  0.4287 -1.4949 -0.8212
 9332TIP3    H249412   4.576   6.532   5.858 -2.2660  1.1644 -1.7663
 9333TIP3   OH249413   0.832   1.005   1.020  0.4085  0.0377 -0.0869
 9333TIP3    H149414   0.875   0.925   1.052 -0.9779 -0.8638 -0.4153
 9333TIP3    H249415   0.768   1.026   1.088 -0.6413 -0.3155 -0.9463
 9334TIP3   OH249416   3.501   2.979   3.529 -0.4226  0.4850 -0.0372
 9334TIP3    H149417   3.444   2.938   3.464 -0.1731  0.0246  0.0311
 9334TIP3    H249418   3.441   3.022   3.590 -0.8427 -1.6163  1.1458
 9335TIP3   OH249419   0.796   4.978  14.873 -0.7687  0.0260  0.1526
 9335TIP3    H149420   0.853   5.052  14.854 -1.7821  0.3769 -1.7169
 9335TIP3    H249421   0.841   4.902  14.837 -0.7270  0.0614  0.1305
 9336TIP3   OH249422   2.130   5.152  12.471 -0.5019 -0.5921  0.0881
 9336TIP3    H149423   2.144   5.081  12.534  1.4810  0.8348  1.3816
 9336TIP3    H249424   2.213   5.160  12.425 -1.4756 -0.6616 -1.7705
 9337TIP3   OH249425   4.252   2.086  13.768  0.3070  0.2465 -0.2397
 9337TIP3    H149426   4.325   2.059  13.824  0.5204 -0.1601 -0.7022
 9337TIP3    H249427   4.251   2.021  13.698 -0.3014  0.4365 -0.4117
 9338TIP3   OH249428   4.619   0.811  13.135  0.2979  0.3666 -0.1679
 9338TIP3    H149429   4.583   0.899  13.141  0.4379  0.4606 -0.6445
 9338TIP3    H249430   4.713   0.825  13.121  0.8202  0.1300  2.5438
 9339TIP3   OH249431   4.241   0.246   5.056 -0.2672  0.2306  0.6269
 9339TIP3    H149432   4.303   0.319   5.055 -0.4323  0.4933  2.9698
 9339TIP3    H249433   4.291   0.173   5.092 -0.6892 -0.1935  0.3560
 9340TIP3   OH249434   2.863   3.828  16.382  0.0973  0.2647  0.1097
 9340TIP3    H149435   2.934   3.764  16.375 -1.6035 -1.6342 -0.6992
 9340TIP3    H249436   2.887   3.896  16.318  0.5217 -1.0636 -1.2221
 9341TIP3   OH249437   3.318   4.222  13.802  0.3502 -0.6379 -0.3736
 9341TIP3    H149438   3.289   4.194  13.888 -0.6764 -0.7923 -0.7620
 9341TIP3    H249439   3.262   4.175  13.740  0.0419  0.5947 -1.0906
 9342TIP3   OH249440   4.236   3.521   3.535  0.2047 -0.0996 -0.4694
 9342TIP3    H149441   4.310   3.581   3.543  0.0297 -0.0223  0.7347
 9342TIP3    H249442   4.167   3.573   3.495  1.0748 -0.4352 -2.5109
 9343TIP3   OH249443   0.573   3.498   1.639  0.2362 -0.1373 -0.1279
 9343TIP3    H149444   0.569   3.481   1.733 -2.4427 -1.7358 -0.3944
 9343TIP3    H249445   0.606   3.416   1.602 -0.9373 -0.3875 -0.6738
 9344TIP3   OH249446   3.571   3.906   4.288  0.8257  0.3484  0.1198
 9344TIP3    H149447   3.505   3.942   4.228 -0.0762 -1.1385  0.1733
 9344TIP3    H249448   3.521   3.862   4.356  1.8687  0.6897  1.1463
 9345TIP3   OH249449   5.621   3.855   5.297 -0.9729 -0.0300  0.3224
 9345TIP3    H149450   5.688   3.923   5.285  1.4378 -2.2096  0.6344
 9345TIP3    H249451   5.585   3.841   5.209 -0.7892  0.9209  0.0841
 9346TIP3   OH249452   6.782   6.114   2.844  0.1263  0.8791  0.0837
 9346TIP3    H149453   6.749   6.080   2.927  0.7812  1.3541  0.5525
 9346TIP3    H249454   6.726   6.189   2.824  0.7618  1.5534  0.7673
 9347TIP3   OH249455   4.678   1.293   5.359 -0.1085 -0.1716  0.3335
 9347TIP3    H149456   4.618   1.248   5.418 -0.4436  0.2974  0.3512
 9347TIP3    H249457   4.754   1.314   5.413 -0.6332  0.7266  0.7407
 9348TIP3   OH249458   5.644   4.205  16.969  0.1304 -0.7875  0.1586
 9348TIP3    H149459   5.591   4.282  16.989 -0.3599 -0.6508 -1.5155
 9348TIP3    H249460   5.599   4.133  17.014 -0.6165 -0.4259  0.0070
 9349TIP3   OH249461   6.498   3.323  12.680  0.4662  0.1031  0.7718
 9349TIP3    H149462   6.481   3.307  12.773  0.0160  0.5670  0.7731
 9349TIP3    H249463   6.457   3.407  12.662 -0.0887 -0.3290 -0.0256
 9350TIP3   OH249464   2.113   2.086   1.966 -0.2411 -0.0885  0.2781
 9350TIP3    H149465   2.163   2.031   1.907 -0.1956  1.0043 -0.7268
 9350TIP3    H249466   2.034   2.035   1.985 -0.8059  0.0055 -1.6639
 9351TIP3   OH249467   0.341   2.263   4.717 -0.0051 -0.0355  0.0785
 9351TIP3    H149468   0.331   2.314   4.797 -2.5922  1.7371 -1.2457
 9351TIP3    H249469   0.429   2.283   4.686  0.8758 -0.3976  2.1730
 9352TIP3   OH249470   1.238   3.612  16.544  0.3125  0.0257  0.3717
 9352TIP3    H149471   1.177   3.558  16.495  1.0276 -1.1593  0.7391
 9352TIP3    H249472   1.189   3.640  16.621  0.6253 -2.2064  1.4713
 9353TIP3   OH249473   0.830   4.133  14.148  0.1533 -0.4802  0.0089
 9353TIP3    H149474   0.924   4.138  14.165  0.6356 -0.8754 -2.2640
 9353TIP3    H249475   0.791   4.185  14.218  1.7811 -2.6703  2.8007
 9354TIP3   OH249476   6.196   2.358   3.977 -0.4181 -0.8414  0.1090
 9354TIP3    H149477   6.158   2.374   4.063 -0.6607  1.7766 -0.4056
 9354TIP3    H249478   6.290   2.362   3.991 -0.4620  0.9403  0.0874
 9355TIP3   OH249479   0.612   5.274  13.720 -0.5868  0.1966 -0.3438
 9355TIP3    H149480   0.548   5.210  13.749 -0.3561  0.0444 -0.1700
 9355TIP3    H249481   0.570   5.318  13.646 -0.5118 -0.5652 -0.8508
 9356TIP3   OH249482   0.612   4.939   4.207 -0.0492  0.6872  0.1243
 9356TIP3    H149483   0.626   4.858   4.256 -0.1377  0.8272  0.3791
 9356TIP3    H249484   0.649   5.007   4.262 -0.2448  0.8576  0.0443
 9357TIP3   OH249485   3.261   5.405  15.688  0.4321  0.1707 -0.4329
 9357TIP3    H149486   3.234   5.326  15.642 -2.6290  0.6637  0.3082
 9357TIP3    H249487   3.261   5.381  15.780  1.9075  0.4201 -0.3454
 9358TIP3   OH249488   2.535   0.616   4.666 -0.1943 -0.5108  0.0259
 9358TIP3    H149489   2.618   0.618   4.714  0.0168  0.6660 -0.3575
 9358TIP3    H249490   2.475   0.569   4.724  0.1389  0.5845  1.3089
 9359TIP3   OH249491   4.788   1.668  11.542 -0.1406 -0.7755 -0.4060
 9359TIP3    H149492   4.831   1.655  11.457  1.3680 -0.4788  0.2743
 9359TIP3    H249493   4.727   1.740  11.526  1.6386  0.7340 -0.7781
 9360TIP3   OH249494   2.720   4.319   1.051  0.3102 -0.1187  0.0776
 9360TIP3    H149495   2.706   4.271   0.969  0.6975  0.4404 -0.3268
 9360TIP3    H249496   2.807   4.358   1.041  0.3467 -0.0183  0.7436
 9361TIP3   OH249497   6.183   2.950   2.526 -0.3232  0.2765  0.2069
 9361TIP3    H149498   6.253   2.886   2.541 -1.1121 -0.5959  0.2285
 9361TIP3    H249499   6.194   2.976   2.434 -0.3809 -0.3798  0.0046
 9362TIP3   OH249500   6.785   5.644  16.198  0.1030 -0.7814 -0.6771
 9362TIP3    H149501   6.762   5.733  16.172 -0.3755 -0.9287 -0.7589
 9362TIP3    H249502   6.796   5.649  16.293 -0.6084 -0.7822 -0.5886
 9363TIP3   OH249503   1.125   4.534   0.748 -0.3799  0.1578 -0.2571
 9363TIP3    H149504   1.170   4.456   0.716 -1.3296 -0.6452  0.3143
 9363TIP3    H249505   1.057   4.551   0.682 -1.3657 -0.6112  0.5278
 9364TIP3   OH249506   3.152   2.324  16.158 -0.2286 -0.0266  0.3051
 9364TIP3    H149507   3.111   2.268  16.092  0.3520 -1.7821  1.3342
 9364TIP3    H249508   3.181   2.401  16.110 -2.1139 -0.0622 -0.9702
 9365TIP3   OH249509   4.316   6.268   1.857  0.4636  0.1329  0.2552
 9365TIP3    H149510   4.289   6.204   1.923  0.1142  1.5765  1.5613
 9365TIP3    H249511   4.257   6.342   1.869  0.4538  0.4780 -1.6433
 9366TIP3   OH249512   0.929   3.446   1.590  0.1543 -0.1942 -0.3761
 9366TIP3    H149513   0.924   3.541   1.593 -0.8943 -0.2555  2.0330
 9366TIP3    H249514   0.882   3.422   1.511 -1.2173  1.2378 -0.0435
 9367TIP3   OH249515   3.108   5.591  16.105  0.3859 -0.5172  0.2530
 9367TIP3    H149516   3.132   5.511  16.059  0.9099 -1.0093  1.3716
 9367TIP3    H249517   3.034   5.566  16.160  0.3570 -0.1636  0.3765
 9368TIP3   OH249518   6.077   2.177  14.295 -0.1655  0.7756 -0.4405
 9368TIP3    H149519   6.045   2.179  14.205  0.8164  1.4288 -0.7855
 9368TIP3    H249520   6.106   2.087  14.308  0.4512  0.8795 -1.0565
 9369TIP3   OH249521   0.898   2.498   5.041  0.0862  0.2232 -0.2223
 9369TIP3    H149522   0.806   2.525   5.048  0.3102  0.7292  1.0681
 9369TIP3    H249523   0.939   2.566   4.987  0.0321  0.9049  0.5725
 9370TIP3   OH249524   0.123   2.148  12.491 -0.2643 -0.1435  0.5813
 9370TIP3    H149525   0.133   2.062  12.530  0.1976 -0.7364 -0.7731
 9370TIP3    H249526   0.037   2.146  12.449 -0.0180 -0.1450  0.0752
 9371TIP3   OH249527   2.987   2.245  13.338 -0.5393 -0.6830 -0.1263
 9371TIP3    H149528   3.006   2.235  13.431 -0.6260 -1.4606 -0.1846
 9371TIP3    H249529   2.929   2.172  13.317 -2.8478  1.0466 -0.1818
 9372TIP3   OH249530   1.602   5.957  14.633 -0.1399  0.2734 -0.7199
 9372TIP3    H149531   1.672   5.977  14.570  0.6300 -0.6500 -0.1885
 9372TIP3    H249532   1.632   5.877  14.677 -1.5554 -0.1534 -0.4984
 9373TIP3   OH249533   2.463   6.755  11.708 -0.0729  0.0779  0.1012
 9373TIP3    H149534   2.527   6.826  11.710  0.1792 -0.1510  0.2365
 9373TIP3    H249535   2.511   6.680  11.671 -0.4628  0.1015 -0.4577
 9374TIP3   OH249536   2.301   4.294   1.672 -0.0500  0.1138 -0.4241
 9374TIP3    H149537   2.387   4.320   1.641 -0.4132  1.8795 -0.0313
 9374TIP3    H249538   2.259   4.254   1.595  0.2406  1.4781 -1.3171
 9375TIP3   OH249539   4.189   5.233   4.695 -0.0494 -0.0030  0.5073
 9375TIP3    H149540   4.134   5.193   4.762 -1.0625  0.7571  0.1569
 9375TIP3    H249541   4.196   5.324   4.722 -0.6091  0.3481 -0.4813
 9376TIP3   OH249542   6.604   4.158  14.471  0.6122  0.0403  0.0705
 9376TIP3    H149543   6.685   4.110  14.489  1.6558  1.6314 -0.1330
 9376TIP3    H249544   6.568   4.115  14.393  1.5248 -0.3967 -0.1313
 9377TIP3   OH249545   0.452   3.300  15.494  0.6358 -0.4469 -0.6178
 9377TIP3    H149546   0.463   3.290  15.400 -1.1086 -0.2730 -0.8850
 9377TIP3    H249547   0.364   3.338  15.504 -0.8494 -3.8837  1.1677
 9378TIP3   OH249548   2.956   3.775  15.596  0.3846 -0.1285  0.3092
 9378TIP3    H149549   2.864   3.791  15.616  0.1673 -2.1309  1.1816
 9378TIP3    H249550   2.958   3.761  15.502  0.3725  3.0261 -0.2754
 9379TIP3   OH249551   2.145   0.759   0.913  0.0654 -0.0673 -0.1455
 9379TIP3    H149552   2.117   0.757   1.005 -0.7271  2.7907 -0.2497
 9379TIP3    H249553   2.064   0.765   0.863  0.5641  0.4295 -0.9062
 9380TIP3   OH249554   0.273   1.606   3.626  0.4435 -0.2417  0.5015
 9380TIP3    H149555   0.367   1.605   3.643  0.1009 -0.0595  2.7029
 9380TIP3    H249556   0.235   1.557   3.698 -1.2501  0.8052  0.3796
 9381TIP3   OH249557   3.143   2.902  16.875  0.4419  0.0758 -0.3647
 9381TIP3    H149558   3.221   2.847  16.869 -0.4182 -1.2574  0.0432
 9381TIP3    H249559   3.086   2.855  16.935 -0.3621  1.4254 -0.0414
 9382TIP3   OH249560   2.031   0.319   1.531  0.0435 -0.0973 -0.1572
 9382TIP3    H149561   2.046   0.390   1.593 -1.3989 -0.3695  0.5474
 9382TIP3    H249562   2.114   0.270   1.531  0.4825  0.6157  0.6294
 9383TIP3   OH249563   2.953   0.416  11.922  0.0847  0.3492 -0.0051
 9383TIP3    H149564   2.919   0.341  11.874  0.0491  0.3449  0.0276
 9383TIP3    H249565   2.988   0.474  11.854  0.4672  0.1259 -0.0042
 9384TIP3   OH249566   4.388   5.801  12.633 -0.1432  0.0186  0.4619
 9384TIP3    H149567   4.346   5.817  12.549  0.8839 -2.2078 -0.5640
 9384TIP3    H249568   4.316   5.770  12.689 -0.7552  1.0936  0.2856
 9385TIP3   OH249569   6.715   1.987   4.869  0.4149  0.2548 -0.1526
 9385TIP3    H149570   6.736   1.996   4.775  2.6161  0.1833  0.2700
 9385TIP3    H249571   6.681   1.898   4.877  0.7847  0.0400 -0.8194
 9386TIP3   OH249572   0.733   3.998   4.190  0.0438  0.2737 -0.4645
 9386TIP3    H149573   0.825   3.974   4.203  0.4573  1.1726 -1.5380
 9386TIP3    H249574   0.736   4.081   4.143 -1.3212  0.2373 -0.6665
 9387TIP3   OH249575   3.657   4.559   2.326 -0.1757  0.2916 -0.8310
 9387TIP3    H149576   3.674   4.525   2.414 -1.4771  1.2931 -0.1455
 9387TIP3    H249577   3.723   4.519   2.271 -0.0033 -1.2144  0.4150
 9388TIP3   OH249578   4.865   5.131  13.740 -0.3074 -0.1252  0.4881
 9388TIP3    H149579   4.959   5.130  13.758 -0.2996 -3.5407  0.9238
 9388TIP3    H249580   4.826   5.181  13.811  1.1811  1.8483 -0.0269
 9389TIP3   OH249581   2.870   4.324   0.636  0.4912 -0.1589  0.0829
 9389TIP3    H149582   2.938   4.390   0.649  0.5314 -0.2267  0.2101
 9389TIP3    H249583   2.911   4.257   0.582 -0.1834  0.9522 -1.9196
 9390TIP3   OH249584   3.920   3.534   0.619  0.8938 -0.0269  0.1058
 9390TIP3    H149585   3.858   3.603   0.644  0.1902 -0.8538  0.6675
 9390TIP3    H249586   3.870   3.474   0.565  1.9447  0.7625 -1.8591
 9391TIP3   OH249587   0.004   2.800  15.963 -0.4033  0.4289 -0.0729
 9391TIP3    H149588   0.008   2.707  15.943 -0.0316  0.5935 -0.7842
 9391TIP3    H249589  -0.073   2.809  16.020  0.6735 -0.5966  1.6126
 9392TIP3   OH249590   3.422   2.220   2.281  0.6580  0.4203 -0.2068
 9392TIP3    H149591   3.397   2.189   2.195  0.5345 -1.9883  0.6351
 9392TIP3    H249592   3.341   2.255   2.319  0.1674 -0.7305 -0.1775
 9393TIP3   OH249593   2.565   4.017   1.586 -0.1267 -0.2039  0.3204
 9393TIP3    H149594   2.588   4.090   1.644  1.2286 -0.3273 -0.0345
 9393TIP3    H249595   2.517   3.956   1.643 -0.1125  0.3515  0.9398
 9394TIP3   OH249596   1.629   2.151   1.570 -0.0458  0.0562 -0.0846
 9394TIP3    H149597   1.594   2.222   1.624 -2.1086 -0.3964 -0.7082
 9394TIP3    H249598   1.712   2.184   1.536  0.4815  0.9886  1.9858
 9395TIP3   OH249599   0.005   3.322  15.239 -0.0916  0.0938 -0.5813
 9395TIP3    H149600  -0.005   3.366  15.324  0.5360  1.7796 -1.3243
 9395TIP3    H249601  -0.067   3.355  15.187 -1.0645 -1.7065 -0.4499
 9396TIP3   OH249602   4.806   2.193  11.571 -0.0333 -0.3916 -0.1951
 9396TIP3    H149603   4.803   2.132  11.497 -0.6863 -1.4754  0.6960
 9396TIP3    H249604   4.870   2.259  11.544 -0.4004 -0.6372 -1.8042
 9397TIP3   OH249605   4.873   6.004  12.184  0.5161 -0.3534 -0.2626
 9397TIP3    H149606   4.850   5.912  12.171  0.8948 -0.4471 -0.2775
 9397TIP3    H249607   4.832   6.050  12.110 -3.9511  0.2358  2.2169
 9398TIP3   OH249608   1.370   0.564   3.696 -0.1988 -0.2674  0.8066
 9398TIP3    H149609   1.354   0.657   3.714 -1.4938 -0.0529 -1.1068
 9398TIP3    H249610   1.459   0.561   3.662 -0.4250  0.4354  0.1105
 9399TIP3   OH249611   0.437   6.135  12.484 -0.9440  0.1251 -0.2963
 9399TIP3    H149612   0.409   6.209  12.430 -1.3215  0.7427  0.7157
 9399TIP3    H249613   0.390   6.060  12.449 -2.4139  0.7959  0.1393
 9400TIP3   OH249614   5.937   4.896   2.433 -0.4708 -0.2627 -0.1082
 9400TIP3    H149615   6.007   4.953   2.464  0.7818 -1.6959 -0.1694
 9400TIP3    H249616   5.873   4.895   2.504  0.2916 -0.1020  0.5940
 9401TIP3   OH249617   1.566   3.847   5.297 -0.2586  0.0570  0.1752
 9401TIP3    H149618   1.577   3.938   5.269 -1.1971  0.6707  1.6228
 9401TIP3    H249619   1.581   3.850   5.392  0.3102 -1.4253  0.1535
 9402TIP3   OH249620   2.777   6.014   4.047  0.0433  0.0337  0.3257
 9402TIP3    H149621   2.852   5.961   4.072  1.4050  1.9728  0.6087
 9402TIP3    H249622   2.808   6.104   4.052 -2.0666  0.8850 -0.3941
 9403TIP3   OH249623   4.203   5.426  16.305 -0.0529 -0.2980  0.3024
 9403TIP3    H149624   4.157   5.476  16.237  0.9339 -1.4054 -1.2497
 9403TIP3    H249625   4.158   5.342  16.307 -0.7426  0.0806  1.8174
 9404TIP3   OH249626   3.098   3.655  12.350  0.4134  0.1751 -0.2083
 9404TIP3    H149627   3.025   3.595  12.338  1.6918 -1.9630  1.8775
 9404TIP3    H249628   3.065   3.720  12.412  0.3001 -0.9390  0.9452
 9405TIP3   OH249629   2.345   1.590   5.088 -0.6020 -0.0784  0.2111
 9405TIP3    H149630   2.408   1.518   5.091 -0.5338 -0.2283 -2.3939
 9405TIP3    H249631   2.368   1.645   5.163 -0.0919 -2.2782  1.7538
 9406TIP3   OH249632   2.539   4.565  11.419 -0.1871 -0.3300 -0.3394
 9406TIP3    H149633   2.593   4.550  11.496  2.3557  0.3432 -1.8577
 9406TIP3    H249634   2.473   4.495  11.422  1.7419 -2.2368  0.8404
 9407TIP3   OH249635   5.481   0.138  14.423 -0.2093  0.1452 -0.4114
 9407TIP3    H149636   5.461   0.229  14.402 -1.3946 -0.1689 -0.7359
 9407TIP3    H249637   5.402   0.105  14.466  0.6464 -0.4058  0.7977
 9408TIP3   OH249638   0.199   4.307   6.130 -0.5263  0.2095 -0.1009
 9408TIP3    H149639   0.117   4.265   6.102 -0.2304  1.0157 -2.4557
 9408TIP3    H249640   0.259   4.234   6.147 -0.9187 -0.3827 -1.1632
 9409TIP3   OH249641   1.233   5.986   0.002 -0.6608  0.1612 -0.8825
 9409TIP3    H149642   1.207   6.051   0.068 -1.3830 -1.9014  0.9527
 9409TIP3    H249643   1.175   6.003  -0.072 -1.7392  0.7704  0.0767
 9410TIP3   OH249644   4.678   1.871   2.236  0.0744  0.1675  0.5216
 9410TIP3    H149645   4.713   1.803   2.294  0.3009 -2.4779 -2.4410
 9410TIP3    H249646   4.755   1.923   2.211  0.8113 -1.4318 -0.7170
 9411TIP3   OH249647   2.790   1.142   3.461 -0.3844  0.3989  0.6931
 9411TIP3    H149648   2.768   1.203   3.532 -1.4640 -0.9888  1.6241
 9411TIP3    H249649   2.879   1.113   3.481  0.2890  1.9285  0.0172
 9412TIP3   OH249650   6.490   4.646   0.720  0.3105  0.0678 -1.0594
 9412TIP3    H149651   6.534   4.677   0.640 -0.7352  2.0064 -0.9450
 9412TIP3    H249652   6.405   4.690   0.719  1.5695  3.2604  2.8877
 9413TIP3   OH249653   5.560   5.346  14.069  0.5069  0.1295  0.2036
 9413TIP3    H149654   5.532   5.337  14.160  0.2470  0.4519  0.1538
 9413TIP3    H249655   5.482   5.328  14.018  0.6067  0.1453  0.0459
 9414TIP3   OH249656   1.181   2.836  13.333  0.0502  0.9680  0.6391
 9414TIP3    H149657   1.245   2.769  13.356  1.1569  2.1357  1.0927
 9414TIP3    H249658   1.108   2.821  13.393 -0.2439 -0.5284 -0.0467
 9415TIP3   OH249659   2.038   2.324   4.988 -0.2507 -0.1583  0.0455
 9415TIP3    H149660   1.982   2.250   4.964  0.5330 -0.5604 -0.5994
 9415TIP3    H249661   2.026   2.386   4.916  0.0045 -0.1716 -0.0075
 9416TIP3   OH249662   4.667   0.454  12.620 -0.3361 -0.1783  0.3497
 9416TIP3    H149663   4.662   0.359  12.606  2.0874 -0.7248  2.4311
 9416TIP3    H249664   4.609   0.470  12.695  0.0392 -0.2046  0.6488
 9417TIP3   OH249665   2.758   2.222   4.512  0.0849 -0.0526  0.0069
 9417TIP3    H149666   2.850   2.194   4.510  0.4419  1.0502 -2.1540
 9417TIP3    H249667   2.716   2.161   4.573  2.1915 -0.7167  0.9048
 9418TIP3   OH249668   4.211   4.955   3.570  0.0083 -0.0719 -0.5700
 9418TIP3    H149669   4.131   5.006   3.557  0.3485  0.6980  0.2900
 9418TIP3    H249670   4.235   4.926   3.482  0.4558  2.2549 -1.2810
 9419TIP3   OH249671   0.517   3.573  14.930  0.1395  0.7192  0.6964
 9419TIP3    H149672   0.484   3.627  15.001 -0.7406  1.2824 -0.1117
 9419TIP3    H249673   0.488   3.618  14.850  2.3780  0.9471 -0.0716
 9420TIP3   OH249674   0.906   1.512   5.523  0.5946  0.9254 -0.2139
 9420TIP3    H149675   0.966   1.537   5.452  1.5730  0.5661  0.4683
 9420TIP3    H249676   0.840   1.458   5.480  1.1384  0.7626 -0.8714
 9421TIP3   OH249677   5.882   5.649   0.973  0.0320 -0.1307 -0.0473
 9421TIP3    H149678   5.904   5.558   0.953 -1.7646  0.1191 -4.3466
 9421TIP3    H249679   5.951   5.701   0.930  0.3435  0.5713  1.2556
 9422TIP3   OH249680   2.418   2.204   6.030  0.0377  0.1398  0.0654
 9422TIP3    H149681   2.403   2.159   6.113  0.8775 -0.3264 -0.0140
 9422TIP3    H249682   2.480   2.147   5.984  0.7257  1.1303 -0.2564
 9423TIP3   OH249683   4.519   4.492   0.602  0.2253 -0.1460 -0.3975
 9423TIP3    H149684   4.567   4.575   0.597  0.2644 -0.1662 -0.3483
 9423TIP3    H249685   4.532   4.452   0.516 -0.8047  0.4650 -0.8617
 9424TIP3   OH249686   3.253   2.477  17.171  0.0339  0.1293 -0.4851
 9424TIP3    H149687   3.307   2.539  17.220 -1.7215  2.1832 -0.9901
 9424TIP3    H249688   3.230   2.524  17.090 -1.0454 -1.3382 -1.0703
 9425TIP3   OH249689   6.486   1.440   3.925  0.7196  0.2781  0.2520
 9425TIP3    H149690   6.492   1.514   3.863  0.5668 -0.3909 -0.5801
 9425TIP3    H249691   6.564   1.450   3.981  1.6031  0.1453 -0.9113
 9426TIP3   OH249692   5.972   4.645  12.426 -0.3000 -0.4573  0.2497
 9426TIP3    H149693   5.947   4.596  12.348  0.8242 -1.2690  0.3666
 9426TIP3    H249694   5.907   4.715  12.433  0.2318  0.3343 -2.0469
 9427TIP3   OH249695   0.458   6.066   5.193 -0.0300 -0.0152 -0.5795
 9427TIP3    H149696   0.412   5.984   5.208  1.1592 -1.0188 -2.1323
 9427TIP3    H249697   0.528   6.068   5.258 -1.6658  1.1432  1.2696
 9428TIP3   OH249698   6.018   0.100   2.410  0.1624 -0.2852 -0.5102
 9428TIP3    H149699   5.981   0.076   2.325 -1.7923 -2.6325  0.8707
 9428TIP3    H249700   5.945   0.091   2.471  1.7354  0.3665  1.5794
 9429TIP3   OH249701   3.025   1.136  14.369 -0.1163 -0.6748 -0.1676
 9429TIP3    H149702   2.963   1.090  14.312  0.1688 -1.0283 -0.1985
 9429TIP3    H249703   2.996   1.227  14.368  1.8546  0.0940 -3.6728
 9430TIP3   OH249704   6.307   4.413   0.446  0.2175 -0.1723  0.0686
 9430TIP3    H149705   6.307   4.353   0.520 -1.0505 -0.5339 -0.2083
 9430TIP3    H249706   6.244   4.481   0.469  0.3408  0.1013 -0.3850
 9431TIP3   OH249707   0.783   5.108  16.929  0.5270  0.1012  0.1621
 9431TIP3    H149708   0.793   5.185  16.874  0.8886  0.1400  0.2757
 9431TIP3    H249709   0.763   5.143  17.016  0.1947  0.0480  0.1069
 9432TIP3   OH249710   1.373   3.267  14.765 -0.8716  1.2252 -0.0499
 9432TIP3    H149711   1.411   3.248  14.851 -0.6994 -1.1630 -0.5623
 9432TIP3    H249712   1.433   3.330  14.726  0.6958  0.1585  0.5129
 9433TIP3   OH249713   2.799   2.461   5.327 -0.1088  0.5641 -0.6138
 9433TIP3    H149714   2.741   2.533   5.349 -0.2592  0.0695  0.6522
 9433TIP3    H249715   2.885   2.488   5.360  0.0571  0.6123 -1.0765
 9434TIP3   OH249716   3.822   0.403   5.306  0.1171 -0.4857  0.7336
 9434TIP3    H149717   3.912   0.376   5.287 -0.2131 -1.0992  0.0114
 9434TIP3    H249718   3.794   0.450   5.227 -0.5578 -1.2318  0.5191
 9435TIP3   OH249719   4.782   3.986  15.720  0.3706  0.1467  0.8612
 9435TIP3    H149720   4.796   4.070  15.676 -1.0175 -0.4847 -0.8936
 9435TIP3    H249721   4.845   3.927  15.680 -0.9577 -0.4521 -0.4131
 9436TIP3   OH249722   5.177   6.746  15.993 -0.2983  0.5594  0.0208
 9436TIP3    H149723   5.268   6.717  15.983 -0.1435  0.0843  2.2270
 9436TIP3    H249724   5.156   6.726  16.085 -2.7770  0.2465 -0.5574
 9437TIP3   OH249725   0.098   5.221   2.498 -0.5855  0.1563  0.5145
 9437TIP3    H149726   0.120   5.291   2.560  0.6352  0.1966  0.0633
 9437TIP3    H249727   0.052   5.156   2.550  3.4595 -1.5111  2.3913
 9438TIP3   OH249728   4.181   3.272   0.883  1.0486 -0.6830 -0.0993
 9438TIP3    H149729   4.193   3.180   0.861 -1.1580 -1.4236  1.4680
 9438TIP3    H249730   4.089   3.290   0.865  1.2780  1.0524  0.2393
 9439TIP3   OH249731   6.520   0.274  16.714  0.0928 -0.0885  0.1841
 9439TIP3    H149732   6.527   0.369  16.706 -0.7401 -0.0421 -0.0329
 9439TIP3    H249733   6.540   0.256  16.806  2.0419  0.1068 -0.1536
 9440TIP3   OH249734   1.789   2.281  15.148  0.1641 -0.1130  0.0734
 9440TIP3    H149735   1.814   2.355  15.203  1.8162  0.6272 -1.5727
 9440TIP3    H249736   1.869   2.229  15.140 -0.6611 -1.4711  0.2056
 9441TIP3   OH249737   0.484   1.087  15.957  0.2141 -0.1335 -0.3281
 9441TIP3    H149738   0.435   1.025  15.903  0.6108 -0.3434 -0.4521
 9441TIP3    H249739   0.538   1.134  15.894 -2.1672  2.4043 -0.6771
 9442TIP3   OH249740   4.243   3.600  16.506  0.2221 -0.4270 -0.1172
 9442TIP3    H149741   4.249   3.542  16.582  0.8410  1.2129  1.1329
 9442TIP3    H249742   4.321   3.580  16.454 -0.0116 -1.2868 -0.1631
 9443TIP3   OH249743   3.218   2.048   4.066 -0.1899  0.5578 -0.4498
 9443TIP3    H149744   3.262   1.990   4.004  1.8390  0.7569  0.7017
 9443TIP3    H249745   3.288   2.104   4.100 -1.2201  0.4820  1.9762
 9444TIP3   OH249746   5.260   0.794  16.655 -0.2564  0.1383  0.2020
 9444TIP3    H149747   5.346   0.753  16.660 -0.6998 -0.9231 -0.6019
 9444TIP3    H249748   5.278   0.888  16.661  1.0697  0.0058 -1.0891
 9445TIP3   OH249749   4.416   6.230   0.885 -0.0398 -0.2289  0.2873
 9445TIP3    H149750   4.486   6.171   0.913 -0.0800 -0.8436 -0.8762
 9445TIP3    H249751   4.341   6.203   0.938  0.2073 -0.5359  0.4925
 9446TIP3   OH249752   0.378   3.635  13.705  0.1613 -0.3316  0.5442
 9446TIP3    H149753   0.350   3.552  13.664 -1.7506  0.1530  0.7549
 9446TIP3    H249754   0.403   3.690  13.632 -0.2606 -0.5178  0.2504
 9447TIP3   OH249755   0.899   0.865   6.125  0.2891  0.1704 -0.0426
 9447TIP3    H149756   0.811   0.901   6.112  0.4524  1.2403  1.5655
 9447TIP3    H249757   0.954   0.912   6.063 -0.0329  0.5089 -0.0713
 9448TIP3   OH249758   0.970   0.354   2.178 -0.0658 -0.0179  0.0399
 9448TIP3    H149759   1.033   0.297   2.135 -0.4993  0.4473 -1.2649
 9448TIP3    H249760   0.909   0.294   2.222 -0.7454 -0.6225 -1.6359
 9449TIP3   OH249761   0.917   1.312   1.746  0.0899  0.4716 -0.2031
 9449TIP3    H149762   0.989   1.352   1.794 -0.0737  1.1024 -0.4574
 9449TIP3    H249763   0.880   1.248   1.806  1.5905 -0.7087 -0.5006
 9450TIP3   OH249764   0.862   4.416   5.154  0.3886  0.1986 -0.3301
 9450TIP3    H149765   0.770   4.433   5.134  0.3473  0.7110  0.2813
 9450TIP3    H249766   0.877   4.327   5.122  0.2525  0.8556 -2.3858
 9451TIP3   OH249767   4.186   4.249   4.475  0.4426 -0.7566 -0.1672
 9451TIP3    H149768   4.099   4.284   4.453 -0.3524  0.1936  3.6640
 9451TIP3    H249769   4.182   4.157   4.450 -0.9613 -0.3081 -1.7609
 9452TIP3   OH249770   1.526   0.491   3.101 -0.1393 -0.3577  0.0916
 9452TIP3    H149771   1.615   0.466   3.079 -0.4847 -2.1009  0.5295
 9452TIP3    H249772   1.531   0.585   3.117  1.3633 -0.1971 -1.0769
 9453TIP3   OH249773   0.077   3.076  15.707 -0.2270  0.1343  0.4041
 9453TIP3    H149774   0.014   3.091  15.637  0.0644 -0.6549 -0.0283
 9453TIP3    H249775   0.023   3.072  15.787 -0.7117 -0.3931  0.0570
 9454TIP3   OH249776   4.437   2.595  13.397 -0.5368  0.7842 -0.0920
 9454TIP3    H149777   4.514   2.561  13.350 -1.0622  0.0552 -0.4405
 9454TIP3    H249778   4.362   2.556  13.352 -1.0648  0.2132  1.2317
 9455TIP3   OH249779   6.724   3.310  16.824  0.1767  0.1454  0.6903
 9455TIP3    H149780   6.704   3.253  16.899  0.6095 -0.0455  0.6597
 9455TIP3    H249781   6.813   3.341  16.840  0.6218 -0.6274 -0.2097
 9456TIP3   OH249782   4.804   5.806   3.158 -0.3984 -0.5530  0.0046
 9456TIP3    H149783   4.717   5.835   3.186 -0.3175 -1.2055  0.9826
 9456TIP3    H249784   4.791   5.717   3.127  0.1573 -1.2972  1.7344
 9457TIP3   OH249785   5.141   0.292   3.019  0.6354 -0.1244  0.9354
 9457TIP3    H149786   5.111   0.364   3.074  0.0075  1.2194 -1.0670
 9457TIP3    H249787   5.206   0.331   2.961 -1.3098 -0.5313 -1.7206
 9458TIP3   OH249788   4.237   5.800  13.273 -0.3351  0.1874 -0.0124
 9458TIP3    H149789   4.296   5.724  13.280  0.7372  0.8919 -0.9326
 9458TIP3    H249790   4.184   5.782  13.196 -0.4288  0.1383  0.0643
 9459TIP3   OH249791   5.790   5.047   5.567 -0.3960 -0.2890  0.2745
 9459TIP3    H149792   5.879   5.013   5.567 -0.1695  0.1373 -1.9755
 9459TIP3    H249793   5.741   4.987   5.624  1.5927  0.4212  2.9440
 9460TIP3   OH249794   6.340   0.322   1.152 -0.6035 -0.4562  0.1891
 9460TIP3    H149795   6.334   0.229   1.130  1.4957 -0.3221 -1.2518
 9460TIP3    H249796   6.433   0.343   1.141 -0.9120  1.6615  1.1814
 9461TIP3   OH249797   3.434   4.730  15.848 -0.2448  0.2484 -0.5419
 9461TIP3    H149798   3.361   4.677  15.816 -0.5770 -0.2942  1.0445
 9461TIP3    H249799   3.417   4.742  15.941  1.9936 -0.4472  0.0421
 9462TIP3   OH249800   4.489   4.881  12.932  0.9745  0.1455 -0.0067
 9462TIP3    H149801   4.403   4.881  12.975  0.4369  0.2047 -1.0413
 9462TIP3    H249802   4.470   4.862  12.840  1.8856  1.8025 -0.5959
 9463TIP3   OH249803   3.716   4.985   4.021  0.2186 -0.0918  0.0281
 9463TIP3    H149804   3.745   5.034   4.098 -0.7866 -0.6718  0.8178
 9463TIP3    H249805   3.708   4.895   4.053 -0.1416 -0.3496 -0.7756
 9464TIP3   OH249806   1.015   1.931  14.305 -0.0645 -0.4789  0.3501
 9464TIP3    H149807   1.032   1.910  14.397  2.3393  0.0783  0.1049
 9464TIP3    H249808   0.989   1.847  14.266 -0.1997 -0.9084  1.3394
 9465TIP3   OH249809   3.743   6.359  14.033  0.2498 -0.2879  0.6183
 9465TIP3    H149810   3.729   6.265  14.044 -0.5522 -0.3281 -0.6056
 9465TIP3    H249811   3.657   6.398  14.050  0.6141  0.2510  1.2790
 9466TIP3   OH249812   2.616   1.048  10.983  0.0170 -0.5212 -0.1897
 9466TIP3    H149813   2.645   1.000  11.061  1.4609  1.6522  0.7378
 9466TIP3    H249814   2.522   1.058  10.994  0.0443 -1.1713  0.7277
 9467TIP3   OH249815   5.586   4.640   0.078  0.7330 -0.3422  0.1583
 9467TIP3    H149816   5.557   4.651   0.169  2.6935 -1.0679  0.9535
 9467TIP3    H249817   5.642   4.716   0.062 -1.6923  1.2299 -1.4544
 9468TIP3   OH249818   0.425   1.650   4.720  0.1208  0.3695 -0.0671
 9468TIP3    H149819   0.373   1.641   4.800 -0.3707  2.4762 -0.0892
 9468TIP3    H249820   0.401   1.574   4.667 -0.8430 -0.1485  1.0654
 9469TIP3   OH249821   4.990   0.406   1.000 -0.5202  0.4456  0.0865
 9469TIP3    H149822   4.967   0.346   1.071 -0.7487 -1.0869 -1.2370
 9469TIP3    H249823   5.081   0.384   0.979  0.6227  2.9374  1.8110
 9470TIP3   OH249824   1.609   6.535   3.041 -0.0385  0.4512 -0.5118
 9470TIP3    H149825   1.623   6.453   3.088  1.0253  0.6113 -0.5125
 9470TIP3    H249826   1.574   6.595   3.107  1.1739  0.5884  0.0368
 9471TIP3   OH249827   5.161   2.401   5.672  0.2815 -0.7528  0.5295
 9471TIP3    H149828   5.183   2.318   5.627 -0.2987  0.2066 -1.6724
 9471TIP3    H249829   5.221   2.465   5.633 -2.1198  0.6832 -1.0256
 9472TIP3   OH249830   3.199   2.758  10.698 -0.8448  0.4140 -0.1189
 9472TIP3    H149831   3.265   2.699  10.733 -1.6699 -1.8136 -2.0424
 9472TIP3    H249832   3.249   2.834  10.668  0.5018 -0.0857  0.7332
 9473TIP3   OH249833   6.781   1.893   1.902  0.4086 -0.0765 -0.9767
 9473TIP3    H149834   6.760   1.941   1.821  0.7008  1.2273 -0.3137
 9473TIP3    H249835   6.810   1.961   1.963 -1.5792 -0.7427  0.8692
 9474TIP3   OH249836   5.678   4.058  12.717 -0.1163  0.1728 -0.1923
 9474TIP3    H149837   5.623   3.981  12.700  0.1234 -0.1662  0.5443
 9474TIP3    H249838   5.758   4.022  12.756 -0.7246  0.9371  1.8416
 9475TIP3   OH249839   0.376   5.405   3.965  0.3539  0.3966  0.1094
 9475TIP3    H149840   0.362   5.474   4.030 -0.5188 -0.2725  0.6653
 9475TIP3    H249841   0.427   5.338   4.011  0.4564  0.2941 -0.1514
 9476TIP3   OH249842   3.868   4.287  11.218  0.3888 -0.0328 -0.5574
 9476TIP3    H149843   3.828   4.347  11.155  0.7865 -0.5874 -1.3684
 9476TIP3    H249844   3.862   4.332  11.302 -1.4932  0.1054 -0.7307
 9477TIP3   OH249845   6.372   2.029   4.415  0.1180 -0.4039 -0.6555
 9477TIP3    H149846   6.300   2.085   4.386 -0.7975 -2.0112 -1.6345
 9477TIP3    H249847   6.401   1.983   4.336  1.8735 -0.1910 -0.1730
 9478TIP3   OH249848   4.202   4.577  15.321  0.6219  0.4123 -0.1099
 9478TIP3    H149849   4.127   4.600  15.376  2.9925 -0.4124  3.8406
 9478TIP3    H249850   4.238   4.498  15.361  3.3166  0.4770 -2.1152
 9479TIP3   OH249851   1.224   1.935   5.817 -0.5800 -0.1683  0.0700
 9479TIP3    H149852   1.271   1.931   5.900  0.2824 -1.3640 -0.4419
 9479TIP3    H249853   1.152   1.996   5.833 -1.1520 -1.2728  2.0590
 9480TIP3   OH249854   3.412   5.243  15.405  0.1355  0.0560 -0.0247
 9480TIP3    H149855   3.360   5.314  15.370 -0.8179 -1.4910 -1.9004
 9480TIP3    H249856   3.487   5.236  15.346  0.2207 -0.5063  0.1442
 9481TIP3   OH249857   2.443   4.281  16.599 -0.6303  0.1626  0.0202
 9481TIP3    H149858   2.516   4.333  16.564 -0.5986  0.4444  0.4906
 9481TIP3    H249859   2.434   4.208  16.538 -0.8998  0.8999 -0.8423
 9482TIP3   OH249860   0.504   3.116   1.859 -0.6104 -0.8014 -0.0081
 9482TIP3    H149861   0.428   3.084   1.906 -0.9672 -0.4289 -0.3200
 9482TIP3    H249862   0.572   3.124   1.925 -1.1630 -0.0867  0.4909
 9483TIP3   OH249863   1.644   3.416   5.244  0.0897  0.5332 -0.2748
 9483TIP3    H149864   1.739   3.411   5.232  0.1098 -1.4993  0.3467
 9483TIP3    H249865   1.609   3.346   5.189 -0.9687  0.6146  0.2716
 9484TIP3   OH249866   4.166   0.555  11.260 -0.5560 -0.1936 -0.4285
 9484TIP3    H149867   4.171   0.591  11.349  0.2624 -2.8375  0.6855
 9484TIP3    H249868   4.074   0.530  11.249 -0.5818 -0.2070 -0.1869
 9485TIP3   OH249869   6.406   6.787  16.909 -0.8296 -0.2658 -0.6339
 9485TIP3    H149870   6.416   6.692  16.907 -0.2408 -0.2178 -2.3999
 9485TIP3    H249871   6.417   6.814  16.817  0.6310  1.6515  0.0346
 9486TIP3   OH249872   3.281   4.039   0.063  0.4235 -0.0331  0.2825
 9486TIP3    H149873   3.299   4.111   0.124  0.8023 -0.0859  0.2353
 9486TIP3    H249874   3.210   4.071   0.008 -1.6529 -0.8700  2.3081
 9487TIP3   OH249875   2.923   1.587  12.277  0.2196 -0.5148  0.2180
 9487TIP3    H149876   2.975   1.667  12.287  0.8726 -0.7814 -0.8181
 9487TIP3    H249877   2.846   1.601  12.331 -1.1769  2.1221 -2.1939
 9488TIP3   OH249878   4.789   2.424  13.581  0.9646  0.4140  0.8769
 9488TIP3    H149879   4.877   2.405  13.614  0.4898 -0.7116  1.5681
 9488TIP3    H249880   4.802   2.451  13.490  1.8807 -1.6347  0.3376
 9489TIP3   OH249881   5.965   5.621   0.139 -0.0699 -0.1992  0.0486
 9489TIP3    H149882   5.958   5.688   0.071 -2.1116 -1.3634 -1.0065
 9489TIP3    H249883   5.957   5.538   0.091  3.5024 -1.3588  1.1495
 9490TIP3   OH249884   5.796   2.977   1.617  0.4107 -0.1827 -0.1282
 9490TIP3    H149885   5.803   3.049   1.679  2.5683  0.6212 -1.1732
 9490TIP3    H249886   5.882   2.934   1.620  0.1093 -0.9537 -1.5499
 9491TIP3   OH249887   6.590   4.921   0.174 -0.0274  0.3873 -0.1643
 9491TIP3    H149888   6.662   4.978   0.200  2.5401 -2.2239 -0.9207
 9491TIP3    H249889   6.541   4.971   0.109  2.5332  1.5217 -1.3499
 9492TIP3   OH249890   1.252   2.169  10.673  0.0874 -0.5255 -0.5421
 9492TIP3    H149891   1.329   2.224  10.688 -0.4153  0.3565 -1.0945
 9492TIP3    H249892   1.228   2.186  10.582 -0.0028 -1.7803 -0.7632
 9493TIP3   OH249893   5.403   5.467   0.062  0.3371 -0.2753 -0.3568
 9493TIP3    H149894   5.338   5.416   0.015 -0.6255 -0.0133  0.6535
 9493TIP3    H249895   5.436   5.529  -0.003  0.6308 -1.3529 -1.2606
 9494TIP3   OH249896   5.126   5.740   4.402  0.1573 -0.1764 -0.3936
 9494TIP3    H149897   5.110   5.720   4.310  0.8124  1.5087 -0.9082
 9494TIP3    H249898   5.221   5.740   4.411  0.1684  1.5047 -0.1934
 9495TIP3   OH249899   4.924   1.145   5.701  0.4650 -0.1095 -0.0083
 9495TIP3    H149900   4.887   1.189   5.625 -1.5378 -0.4096  0.7454
 9495TIP3    H249901   4.914   1.051   5.682  1.9692 -0.2405 -0.2957
 9496TIP3   OH249902   1.837   1.123   1.493  0.4055  0.3038  0.5796
 9496TIP3    H149903   1.915   1.176   1.482  0.7006 -0.2603 -0.1704
 9496TIP3    H249904   1.869   1.038   1.521  0.2963 -0.5967 -1.7951
 9497TIP3   OH249905   3.310   4.686   1.219  0.3438  0.3104  0.6133
 9497TIP3    H149906   3.400   4.716   1.207  0.2558  0.5106  0.4419
 9497TIP3    H249907   3.299   4.617   1.153  0.4504  0.1108  0.8038
 9498TIP3   OH249908   2.733   1.585   5.900 -0.5968 -0.2970  0.0525
 9498TIP3    H149909   2.764   1.660   5.950 -1.0796 -0.1036  0.0722
 9498TIP3    H249910   2.804   1.522   5.904  0.3446  0.6565 -1.0675
 9499TIP3   OH249911   4.250   6.687  12.315 -0.9060  0.3957  0.4970
 9499TIP3    H149912   4.279   6.776  12.292 -1.2554  0.6923  1.1723
 9499TIP3    H249913   4.167   6.700  12.360  0.0806 -0.0938  2.5545
 9500TIP3   OH249914   1.090   0.548  13.239  0.1382 -0.1272 -0.0734
 9500TIP3    H149915   0.996   0.526  13.242  0.5546 -2.0042  0.1293
 9500TIP3    H249916   1.103   0.604  13.316 -0.8276  0.2508 -0.1655
 9501TIP3   OH249917   6.366   6.155   6.003 -0.0712  0.3749 -0.3073
 9501TIP3    H149918   6.318   6.198   5.932 -0.1143 -1.0775 -1.2083
 9501TIP3    H249919   6.367   6.219   6.074 -0.7720  1.5491 -1.3175
 9502TIP3   OH249920   5.717   3.747   1.258  0.0546 -0.2416 -0.0060
 9502TIP3    H149921   5.635   3.722   1.300 -1.2314  2.4106 -0.7093
 9502TIP3    H249922   5.722   3.841   1.269  1.7458  0.0110 -2.1581
 9503TIP3   OH249923   5.066   3.250   2.264  0.0233  0.6116 -0.0458
 9503TIP3    H149924   5.069   3.345   2.257 -2.5507  0.7632 -0.2309
 9503TIP3    H249925   5.121   3.229   2.339  0.4795  2.2658  0.1066
 9504TIP3   OH249926   1.669   6.008  12.053 -0.0922 -0.3957 -0.4490
 9504TIP3    H149927   1.700   6.068  12.121  0.8794  0.0885 -1.2901
 9504TIP3    H249928   1.735   5.939  12.051 -0.5665 -0.8547 -0.3273
 9505TIP3   OH249929   3.223   4.655  10.926 -0.5248 -0.2009 -0.0968
 9505TIP3    H149930   3.297   4.601  10.896  0.5773  0.3847  1.4160
 9505TIP3    H249931   3.256   4.745  10.919 -2.3320  0.3720 -2.5998
 9506TIP3   OH249932   4.553   3.315  13.333  0.0284 -0.1361  0.4702
 9506TIP3    H149933   4.608   3.325  13.256 -1.2093  2.4068 -0.1727
 9506TIP3    H249934   4.526   3.223  13.331  1.9186 -0.7048 -0.7612
 9507TIP3   OH249935   6.692   1.777   3.638  0.6081  0.4280 -0.2909
 9507TIP3    H149936   6.671   1.690   3.604  0.8811 -0.2852  1.2758
 9507TIP3    H249937   6.684   1.769   3.733  0.9101  2.0502 -0.0865
 9508TIP3   OH249938   5.861   6.043   2.734 -0.3629  0.0207  0.6352
 9508TIP3    H149939   5.792   6.000   2.785 -0.4713 -0.2612  0.2515
 9508TIP3    H249940   5.924   5.973   2.714 -0.0736  0.2331  0.8031
 9509TIP3   OH249941   2.920   0.250   3.282 -0.1157  0.0935 -0.5266
 9509TIP3    H149942   2.984   0.242   3.211  0.7940 -0.2582  0.3063
 9509TIP3    H249943   2.893   0.341   3.280 -0.2020  0.0555 -1.4111
 9510TIP3   OH249944   6.012   2.730   1.088  0.6331 -0.3628 -0.4635
 9510TIP3    H149945   6.027   2.640   1.118  0.0281 -0.4413 -0.3959
 9510TIP3    H249946   6.038   2.785   1.161 -1.0248 -0.5545  0.3215
 9511TIP3   OH249947   3.119   4.163   1.533 -0.3468  0.2329  0.3018
 9511TIP3    H149948   3.208   4.194   1.552 -0.0836  0.2919 -0.9836
 9511TIP3    H249949   3.072   4.178   1.615  0.5132  1.3181  0.6364
 9512TIP3   OH249950   1.398   0.074   1.573  0.1391  0.3836  0.0056
 9512TIP3    H149951   1.366  -0.011   1.543 -0.4333  0.6759 -0.2257
 9512TIP3    H249952   1.335   0.101   1.640  0.6286  0.3771  0.4759
 9513TIP3   OH249953   5.317   0.277   5.529 -0.4077 -0.6368  0.0474
 9513TIP3    H149954   5.328   0.332   5.451 -1.2262 -0.8674 -0.2466
 9513TIP3    H249955   5.340   0.189   5.500  1.9491 -0.3232  0.7960
 9514TIP3   OH249956   6.307   3.309  15.682 -0.2827  0.3633  0.0047
 9514TIP3    H149957   6.322   3.368  15.756 -0.2805 -1.2033  1.3202
 9514TIP3    H249958   6.284   3.225  15.723 -0.0275 -0.6254 -1.7745
 9515TIP3   OH249959   5.178   0.392  16.268 -0.1294 -0.8975  0.0227
 9515TIP3    H149960   5.111   0.324  16.280 -0.3882 -1.4750 -3.5005
 9515TIP3    H249961   5.261   0.347  16.282 -0.3459 -1.7290 -1.1613
 9516TIP3   OH249962   1.686   4.747   0.305 -0.1009 -0.1640  0.0237
 9516TIP3    H149963   1.728   4.696   0.374 -0.2219  0.7042  0.7685
 9516TIP3    H249964   1.686   4.690   0.228  2.2075 -0.2815  0.0594
 9517TIP3   OH249965   5.560   1.824   0.665 -0.5447  0.0276  0.1382
 9517TIP3    H149966   5.477   1.809   0.620 -1.4000 -0.5856  1.8355
 9517TIP3    H249967   5.621   1.762   0.625 -0.9086  0.4237 -1.0573
 9518TIP3   OH249968   3.577   3.066  15.857 -0.4108 -0.0605  0.9670
 9518TIP3    H149969   3.621   3.072  15.772 -1.2412 -0.0878  0.5217
 9518TIP3    H249970   3.505   3.004  15.842  0.6427 -1.6867  2.2216
 9519TIP3   OH249971   1.984   5.125  16.078  0.1754  0.1828  0.4221
 9519TIP3    H149972   2.026   5.208  16.055 -0.3136  0.0165 -1.1715
 9519TIP3    H249973   1.908   5.120  16.020  1.1823 -2.1987 -0.8295
 9520TIP3   OH249974   3.985   3.144   5.726 -0.2645  0.2818  0.2941
 9520TIP3    H149975   3.972   3.228   5.682  0.8174  0.7700  0.8563
 9520TIP3    H249976   3.986   3.166   5.819  2.2199  0.0105  0.3939
 9521TIP3   OH249977   0.739   1.714  13.301 -0.3655  0.6611 -0.1786
 9521TIP3    H149978   0.679   1.698  13.228 -0.5007 -0.6502  0.1852
 9521TIP3    H249979   0.744   1.809  13.308 -0.1162  0.8197 -2.0746
 9522TIP3   OH249980   3.772   3.465   3.405 -0.1504 -0.0659 -0.9316
 9522TIP3    H149981   3.799   3.393   3.348  1.1301 -1.4875  1.3048
 9522TIP3    H249982   3.699   3.430   3.456  0.7663  0.0137  0.4915
 9523TIP3   OH249983   4.601   4.298   3.030  0.0925  0.1736  0.0994
 9523TIP3    H149984   4.651   4.323   2.952 -0.0999  1.7724  0.4680
 9523TIP3    H249985   4.667   4.289   3.099  0.1309 -0.0791  0.0311
 9524TIP3   OH249986   3.660   5.621   4.969 -0.0200 -0.3405 -0.1170
 9524TIP3    H149987   3.738   5.633   5.022 -0.9603 -0.3934  1.3269
 9524TIP3    H249988   3.591   5.668   5.016 -0.6963  0.5064 -1.8286
 9525TIP3   OH249989   2.535   4.921   2.557  0.4834 -0.2197  0.3537
 9525TIP3    H149990   2.518   4.915   2.463  1.7322 -0.0242  0.0885
 9525TIP3    H249991   2.451   4.945   2.596  0.2392  1.0620 -0.8682
 9526TIP3   OH249992   3.479   0.008  12.051 -0.4645 -0.6615 -0.0058
 9526TIP3    H149993   3.415   0.079  12.061 -1.6127 -1.6897  0.1907
 9526TIP3    H249994   3.457  -0.054  12.120  0.0670 -1.5481 -0.6106
 9527TIP3   OH249995   5.351   6.220  12.036 -0.7741 -0.6379  0.5440
 9527TIP3    H149996   5.332   6.127  12.032 -0.8909 -0.7157  2.1070
 9527TIP3    H249997   5.422   6.227  12.100  0.7176  0.1638 -1.1156
 9528TIP3   OH249998   2.748   1.230   1.644 -0.4810  0.2246 -0.2238
 9528TIP3    H149999   2.738   1.285   1.721 -0.7031  1.8898 -1.3984
 9528TIP3    H250000   2.833   1.187   1.656  0.3470  1.8778  0.0976
 9529TIP3   OH250001   5.755   1.858  11.898  0.0125  0.0188  0.0532
 9529TIP3    H150002   5.844   1.826  11.882 -0.1227 -0.3497  0.0225
 9529TIP3    H250003   5.721   1.877  11.810 -0.0779 -0.2273  0.0326
 9530TIP3   OH250004   5.457   4.202   2.441  0.0021  0.1304  0.6121
 9530TIP3    H150005   5.454   4.112   2.408 -0.5979  0.2195  0.4153
 9530TIP3    H250006   5.389   4.205   2.508 -0.3621  0.5900  0.2246
 9531TIP3   OH250007   6.676   1.508  11.364 -0.0574  0.2987  0.1585
 9531TIP3    H150008   6.627   1.522  11.445 -0.9831 -0.9948 -0.1400
 9531TIP3    H250009   6.761   1.475  11.393  0.2361  1.4127  0.6400
 9532TIP3   OH250010   0.650   0.630   1.449 -0.2640  0.1754  0.1183
 9532TIP3    H150011   0.736   0.599   1.476  0.3732  1.7920  0.0483
 9532TIP3    H250012   0.624   0.693   1.517 -1.2656 -0.0597 -0.0209
 9533TIP3   OH250013   6.049   4.625  14.003  0.0748 -0.3299 -0.1513
 9533TIP3    H150014   6.088   4.540  14.021 -0.3746 -0.6089 -0.4851
 9533TIP3    H250015   6.120   4.688  14.019  0.3360 -0.7400  0.3421
 9534TIP3   OH250016   0.230   4.580  12.781  0.1118  0.1415 -0.1212
 9534TIP3    H150017   0.243   4.600  12.689 -1.9418  1.3574 -0.2251
 9534TIP3    H250018   0.221   4.665  12.823  1.8197 -0.3582  1.3868
 9535TIP3   OH250019   2.659   5.579   1.254  0.0444  0.2535  0.4422
 9535TIP3    H150020   2.742   5.542   1.224 -0.2740  0.3858 -0.6277
 9535TIP3    H250021   2.597   5.507   1.248  0.0993  0.1143  1.3862
 9536TIP3   OH250022   2.206   0.235  14.744 -0.0771 -0.0158 -0.8538
 9536TIP3    H150023   2.270   0.176  14.783 -0.0578 -0.3826 -1.4342
 9536TIP3    H250024   2.241   0.255  14.657 -1.0805 -0.7600 -1.4402
 9537TIP3   OH250025   0.057   5.974   1.052 -0.1311 -0.6564  0.2879
 9537TIP3    H150026  -0.026   6.009   1.022  0.0327  1.4005  1.9089
 9537TIP3    H250027   0.118   6.048   1.046  1.1017 -1.5710  0.8723
 9538TIP3   OH250028   3.052   2.056  14.636 -0.4991 -0.2005  0.2359
 9538TIP3    H150029   3.029   1.970  14.600 -2.4607  0.6121 -0.5601
 9538TIP3    H250030   3.133   2.080  14.591 -0.9058 -0.8574 -0.8816
 9539TIP3   OH250031   0.743   0.872  16.074 -0.2928 -0.2020  0.0174
 9539TIP3    H150032   0.654   0.904  16.064 -0.3342 -0.2547  0.2234
 9539TIP3    H250033   0.797   0.935  16.025 -0.4480 -0.2036 -0.1541
 9540TIP3   OH250034   0.746   6.378   2.651 -0.1000 -0.0606 -0.6363
 9540TIP3    H150035   0.748   6.299   2.596 -1.2342 -1.7674  1.5885
 9540TIP3    H250036   0.709   6.348   2.734 -0.2691  2.7923  0.4297
 9541TIP3   OH250037   1.376   6.324  10.983  0.0174 -0.4942  0.0153
 9541TIP3    H150038   1.303   6.291  10.930  0.5723 -1.1434 -0.3609
 9541TIP3    H250039   1.404   6.248  11.035 -1.0785  0.3323  1.9266
 9542TIP3   OH250040   3.121   1.016  11.496 -0.1524  0.2642  0.1046
 9542TIP3    H150041   3.064   1.070  11.441 -0.0366 -0.4929 -0.7993
 9542TIP3    H250042   3.204   1.065  11.501 -0.1015  0.2611 -0.5699
 9543TIP3   OH250043   4.117   0.176   4.261 -0.0033 -0.2780  0.2227
 9543TIP3    H150044   4.157   0.262   4.278 -0.6041  0.3548 -1.3947
 9543TIP3    H250045   4.029   0.196   4.230 -0.5680 -1.5507  0.9424
 9544TIP3   OH250046   2.063   2.493  11.934  0.3517 -0.2683  0.1127
 9544TIP3    H150047   2.154   2.494  11.964  0.6161 -1.0862 -0.6203
 9544TIP3    H250048   2.067   2.456  11.846 -0.4057  2.1633 -1.0212
 9545TIP3   OH250049   2.773   6.538   4.383  0.5594  0.7124  0.0191
 9545TIP3    H150050   2.700   6.591   4.415 -0.8098 -0.1277 -1.5525
 9545TIP3    H250051   2.819   6.594   4.321 -1.4313 -0.0699 -2.3531
 9546TIP3   OH250052   5.560   1.485  11.331  0.2838 -0.3232  0.3076
 9546TIP3    H150053   5.588   1.514  11.417  0.8274  0.1279 -0.0141
 9546TIP3    H250054   5.570   1.390  11.332  0.0477 -0.3418  0.8241
 9547TIP3   OH250055   3.892   3.167   2.012  0.0709  0.4103  0.2351
 9547TIP3    H150056   3.871   3.099   1.948  2.4030  0.0904 -0.3038
 9547TIP3    H250057   3.844   3.244   1.982  1.5898  0.4727 -2.4070
 9548TIP3   OH250058   6.555   5.893   1.241  0.0225 -0.5118  0.0691
 9548TIP3    H150059   6.589   5.969   1.288 -1.2839 -0.9035  1.7611
 9548TIP3    H250060   6.632   5.839   1.224  0.8246  0.6978 -0.2621
 9549TIP3   OH250061   2.753   5.781   0.609 -0.0307 -0.3104 -1.1407
 9549TIP3    H150062   2.769   5.875   0.621  1.3976 -0.5889 -0.5964
 9549TIP3    H250063   2.716   5.753   0.693  0.1645 -0.3494 -1.0668
 9550TIP3   OH250064   1.435   3.052   6.586  0.3610  0.2686  0.5198
 9550TIP3    H150065   1.361   3.088   6.538 -0.7828 -0.8402  1.4015
 9550TIP3    H250066   1.408   3.055   6.678  0.6948 -1.6926  0.7183
 9551TIP3   OH250067   1.657   1.210  13.224 -0.0224 -0.5628 -0.3540
 9551TIP3    H150068   1.656   1.223  13.319 -2.3703  0.1832 -0.4244
 9551TIP3    H250069   1.666   1.116  13.213 -0.8102 -0.7731  0.6538
 9552TIP3   OH250070   0.752   1.464   6.433 -0.6941 -0.1587 -0.0126
 9552TIP3    H150071   0.813   1.529   6.400 -0.6077 -0.7610 -1.0792
 9552TIP3    H250072   0.808   1.392   6.463 -0.8193 -0.0436  0.5125
 9553TIP3   OH250073   3.105   0.487   4.231 -0.1940 -0.4202  0.6140
 9553TIP3    H150074   3.033   0.441   4.187  0.1689  1.1854 -1.8098
 9553TIP3    H250075   3.183   0.437   4.207  0.1616  1.1506 -1.7620
 9554TIP3   OH250076   5.197   2.486   0.287 -0.2107  0.0121 -0.0434
 9554TIP3    H150077   5.170   2.498   0.378  0.4057  2.2551 -0.1028
 9554TIP3    H250078   5.286   2.521   0.283  0.3287 -1.3903 -1.2216
 9555TIP3   OH250079   0.906   6.415  14.055  0.1607 -1.2004 -0.2653
 9555TIP3    H150080   0.955   6.465  14.120  0.0831 -1.4277 -0.0274
 9555TIP3    H250081   0.899   6.473  13.980 -0.5966 -0.5496  0.2851
 9556TIP3   OH250082   1.794   4.563  13.104 -0.2372  0.2402 -0.4193
 9556TIP3    H150083   1.709   4.532  13.136  0.7308 -0.9868  1.1489
 9556TIP3    H250084   1.816   4.636  13.163 -0.1252  0.4377 -0.7058
 9557TIP3   OH250085   0.810   5.687   0.103 -0.2116  0.4531  0.1589
 9557TIP3    H150086   0.818   5.642   0.187 -0.1271 -0.5281 -0.3583
 9557TIP3    H250087   0.897   5.680   0.064 -0.8676 -1.3873 -1.1179
 9558TIP3   OH250088   2.505   0.849  11.335  0.5024  0.3123  0.0002
 9558TIP3    H150089   2.554   0.805  11.404  0.0273  1.6676  1.2528
 9558TIP3    H250090   2.423   0.875  11.377 -1.1217 -1.3845 -1.8766
 9559TIP3   OH250091   0.825   6.269   1.217 -0.5858 -0.4895 -0.2587
 9559TIP3    H150092   0.880   6.324   1.160  0.1964 -1.2712 -0.2818
 9559TIP3    H250093   0.754   6.327   1.245  0.9203  0.9770  0.7872
 9560TIP3   OH250094   2.333   6.208  15.019  0.0918  0.0422  0.3248
 9560TIP3    H150095   2.248   6.244  15.045 -0.1602  0.1601 -0.6157
 9560TIP3    H250096   2.332   6.118  15.050 -0.5774 -0.0997 -0.0861
 9561TIP3   OH250097   4.158   5.578   5.473 -0.0699  0.4244  0.2188
 9561TIP3    H150098   4.245   5.562   5.508 -0.3087  0.7949  0.9886
 9561TIP3    H250099   4.103   5.511   5.513 -0.0454 -0.1741 -0.7047
 9562TIP3   OH250100   2.099   4.484  16.380  0.1545 -0.1489  0.4195
 9562TIP3    H150101   2.157   4.560  16.379  1.1278 -0.8651 -0.7882
 9562TIP3    H250102   2.011   4.521  16.374  0.5779  0.8986  0.4541
 9563TIP3   OH250103   5.931   1.372  13.228 -0.2295  0.3469 -0.0629
 9563TIP3    H150104   5.857   1.370  13.167  0.0845 -0.2619 -0.4232
 9563TIP3    H250105   5.932   1.286  13.269  0.8919 -0.0214 -0.8049
 9564TIP3   OH250106   2.002   3.872   6.470 -0.2110 -0.3924  0.1682
 9564TIP3    H150107   2.054   3.802   6.431  0.3120 -1.2629  2.2859
 9564TIP3    H250108   1.921   3.873   6.419  1.6060  0.7514 -2.9846
 9565TIP3   OH250109   5.543   3.841   5.046 -0.4254 -0.4353 -0.2827
 9565TIP3    H150110   5.570   3.778   4.980 -1.9977  0.1516 -1.5374
 9565TIP3    H250111   5.482   3.899   5.001 -0.9605  0.4573  1.4925
 9566TIP3   OH250112   4.544   5.347  12.018 -0.7308  0.3766 -0.0299
 9566TIP3    H150113   4.495   5.425  12.045 -1.4843  0.4239 -1.4539
 9566TIP3    H250114   4.501   5.318  11.937  1.1686  0.0266 -0.9749
 9567TIP3   OH250115   4.729   4.694  16.986 -0.6235  0.1207  0.2822
 9567TIP3    H150116   4.728   4.621  17.048  0.8304 -0.1289  0.0337
 9567TIP3    H250117   4.698   4.769  17.038 -1.1221 -0.4406  0.8186
 9568TIP3   OH250118   0.744   1.441   2.578  0.0228  0.0723 -0.0030
 9568TIP3    H150119   0.827   1.485   2.597  0.7120 -1.5128  0.8417
 9568TIP3    H250120   0.741   1.438   2.482  1.2046 -0.2796 -0.0507
 9569TIP3   OH250121   0.118   4.881  11.619 -0.3076  0.2605 -0.2342
 9569TIP3    H150122   0.135   4.966  11.658 -2.6202  1.7796 -2.2342
 9569TIP3    H250123   0.045   4.845  11.670  0.2923 -0.3074  0.2467
 9570TIP3   OH250124   5.929   0.424  14.170  0.1461 -0.5612  0.1730
 9570TIP3    H150125   5.979   0.493  14.214 -1.0118 -0.3271  1.1833
 9570TIP3    H250126   5.872   0.470  14.109 -0.1537 -0.6696  0.3686
 9571TIP3   OH250127   5.514   1.505  13.691 -0.0906 -0.4211  0.0224
 9571TIP3    H150128   5.542   1.571  13.628 -1.0897  0.6172  0.6415
 9571TIP3    H250129   5.480   1.555  13.765  1.1627 -1.6026  1.4719
 9572TIP3   OH250130   1.179   3.054   6.306 -0.5143 -0.2535  0.8676
 9572TIP3    H150131   1.093   3.088   6.280 -0.5493 -1.4897 -0.8664
 9572TIP3    H250132   1.167   2.959   6.309  1.2255 -0.6574 -1.5309
 9573TIP3   OH250133   4.341   0.765  14.215 -0.6082  0.4963 -0.1074
 9573TIP3    H150134   4.423   0.761  14.264 -0.6308 -0.4305 -0.1253
 9573TIP3    H250135   4.278   0.801  14.278 -0.3680  0.4453  0.1676
 9574TIP3   OH250136   3.011   3.214   2.317 -0.4643  0.2820 -0.0809
 9574TIP3    H150137   3.091   3.267   2.319  0.8220 -1.5792  0.7336
 9574TIP3    H250138   2.951   3.264   2.261  1.4066  1.5338 -1.1005
 9575TIP3   OH250139   0.217   3.056  10.657  0.3128  0.0473  0.0076
 9575TIP3    H150140   0.260   3.123  10.605  0.4614 -0.1314 -0.0972
 9575TIP3    H250141   0.222   3.088  10.747  0.1107  0.3248 -0.0773
 9576TIP3   OH250142   4.315   1.063   5.319  0.6179 -0.3542  0.3045
 9576TIP3    H150143   4.262   1.115   5.259  3.5196  2.4464 -0.0811
 9576TIP3    H250144   4.276   1.080   5.405  0.4185  1.0703 -0.0374
 9577TIP3   OH250145   6.468   4.227  11.607  0.4268 -0.1433 -0.4671
 9577TIP3    H150146   6.508   4.197  11.689 -3.4947 -0.9702  1.4233
 9577TIP3    H250147   6.449   4.146  11.559 -3.2965 -0.4351  1.1221
 9578TIP3   OH250148   3.061   4.473  14.317  0.0739 -0.2805  0.6024
 9578TIP3    H150149   3.119   4.513  14.253 -2.2411  1.8041 -0.3788
 9578TIP3    H250150   2.992   4.538  14.331 -1.8989 -2.4699  1.8695
 9579TIP3   OH250151   3.594   2.907   4.218  0.4550 -0.5645  0.0294
 9579TIP3    H150152   3.591   2.855   4.298  1.9173  1.0490  1.2181
 9579TIP3    H250153   3.587   2.997   4.248 -0.4345  0.0248 -1.8166
 9580TIP3   OH250154   5.721   6.450  13.915  0.3714  0.5816  0.0652
 9580TIP3    H150155   5.761   6.537  13.918  0.3389  0.6755 -1.5798
 9580TIP3    H250156   5.731   6.422  13.824 -0.0238 -0.9490  0.4721
 9581TIP3   OH250157   3.342   5.887   6.093  0.3219 -0.5739  0.1050
 9581TIP3    H150158   3.277   5.840   6.042  0.0599 -1.4341  1.1931
 9581TIP3    H250159   3.397   5.819   6.132  3.2151  0.1016 -2.3752
 9582TIP3   OH250160   4.283   0.940   2.254 -0.0460 -0.7576  0.2183
 9582TIP3    H150161   4.342   0.887   2.201 -3.1073 -1.8036 -2.4706
 9582TIP3    H250162   4.251   1.007   2.194 -2.9987 -1.4190  0.9097
 9583TIP3   OH250163   4.852   5.095  15.493  0.3439  0.0975  0.3957
 9583TIP3    H150164   4.886   5.129  15.576  2.1328 -1.5304  0.4122
 9583TIP3    H250165   4.844   5.001  15.508 -0.8720 -0.0124 -0.7996
 9584TIP3   OH250166   1.530   2.529   2.259 -0.6330 -0.3264 -0.0466
 9584TIP3    H150167   1.598   2.591   2.286 -0.2565 -0.3407 -0.9214
 9584TIP3    H250168   1.542   2.454   2.318 -1.0870  0.4125  1.0114
 9585TIP3   OH250169   5.650   2.444   0.234  0.1140  0.1750 -0.4173
 9585TIP3    H150170   5.701   2.449   0.314 -0.6246  0.3625  0.0549
 9585TIP3    H250171   5.713   2.459   0.164  0.6156  0.8589  0.1730
 9586TIP3   OH250172   6.465   4.006  14.943 -0.9083  0.0789 -0.4146
 9586TIP3    H150173   6.497   3.939  14.883  1.0337 -0.2640  0.9205
 9586TIP3    H250174   6.388   4.043  14.899  0.7647  0.3062 -3.3853
 9587TIP3   OH250175   2.723   6.757   4.026  0.0096 -0.2238 -0.0640
 9587TIP3    H150176   2.780   6.801   4.089  2.4734 -1.3093 -1.4131
 9587TIP3    H250177   2.653   6.820   4.009  1.4653  1.7181  0.7459
 9588TIP3   OH250178   5.438   4.244   1.740  0.2814  0.0693  0.0673
 9588TIP3    H150179   5.408   4.191   1.666  1.5434 -1.5328  0.6464
 9588TIP3    H250180   5.404   4.200   1.817  0.9946  0.3395  0.5484
 9589TIP3   OH250181   1.002   3.451   2.478 -0.3825 -0.0862  0.2370
 9589TIP3    H150182   1.035   3.522   2.533 -1.1487 -0.1215  0.7556
 9589TIP3    H250183   1.027   3.371   2.524 -0.2266 -0.1375  0.0644
 9590TIP3   OH250184   2.491   5.769   0.801  0.2331  0.1049  0.5724
 9590TIP3    H150185   2.487   5.822   0.722  0.4935  0.8923  1.0747
 9590TIP3    H250186   2.420   5.706   0.791 -0.1054  0.5685 -0.0278
 9591TIP3   OH250187   5.638   5.891   2.803  0.4859 -0.2770 -0.4819
 9591TIP3    H150188   5.593   5.815   2.768 -0.4652 -0.5404  1.2110
 9591TIP3    H250189   5.649   5.872   2.896  0.1067  1.6959  0.0173
 9592TIP3   OH250190   3.770   5.653  14.606 -0.2588 -0.2708 -0.3903
 9592TIP3    H150191   3.842   5.644  14.668  0.6100 -2.4176 -1.5966
 9592TIP3    H250192   3.717   5.574  14.620 -1.7674  0.7115 -0.3209
 9593TIP3   OH250193   6.440   0.379   2.151  0.3300 -0.8750 -0.0285
 9593TIP3    H150194   6.433   0.313   2.220  0.4185  1.8771  2.8591
 9593TIP3    H250195   6.530   0.409   2.155  0.0634  0.0513 -0.6197
 9594TIP3   OH250196   5.359   1.060   3.064 -0.3027  0.2837  0.0702
 9594TIP3    H150197   5.269   1.079   3.037 -1.0590 -1.9859  0.7659
 9594TIP3    H250198   5.377   0.972   3.029  1.0186 -0.0003  1.3556
 9595TIP3   OH250199   0.476   1.115   4.450 -0.1198  0.3080  0.2940
 9595TIP3    H150200   0.394   1.096   4.497 -0.2503 -0.4379 -0.2131
 9595TIP3    H250201   0.545   1.100   4.515 -0.2306 -1.7955 -0.0212
 9596TIP3   OH250202   5.537   2.935   0.054  0.0791 -0.2079 -0.4185
 9596TIP3    H150203   5.549   3.028   0.075  0.0118 -0.0955 -0.8814
 9596TIP3    H250204   5.442   2.924   0.049  0.0971  0.1677 -2.4193
 9597TIP3   OH250205   1.920   5.074   5.867 -0.2897 -0.6810  0.3768
 9597TIP3    H150206   1.908   4.984   5.896 -2.6591 -1.2737 -2.1146
 9597TIP3    H250207   1.866   5.126   5.926 -1.7185 -1.3514 -0.3110
 9598TIP3   OH250208   0.871   1.369  13.704  1.0077  0.0329  0.1470
 9598TIP3    H150209   0.947   1.419  13.674  0.5837  1.0985  0.7835
 9598TIP3    H250210   0.885   1.360  13.799  0.2133  0.4733  0.3120
 9599TIP3   OH250211   1.430   3.566   5.309 -0.2559 -0.3654  1.3251
 9599TIP3    H150212   1.489   3.495   5.285 -0.2418 -0.5127  1.7965
 9599TIP3    H250213   1.470   3.644   5.271 -0.4225 -0.6451  0.5531
 9600TIP3   OH250214   6.135   3.867   5.202 -0.7984  0.3687  0.7416
 9600TIP3    H150215   6.138   3.934   5.133 -1.3345  0.9404  1.2590
 9600TIP3    H250216   6.180   3.908   5.276 -0.4394 -0.1494  0.8120
 9601TIP3   OH250217   5.567   1.796   1.268 -0.5763 -0.4671  0.1542
 9601TIP3    H150218   5.635   1.729   1.272 -0.0812  0.0583  1.0495
 9601TIP3    H250219   5.581   1.839   1.184  0.3196 -0.2636  0.3914
 9602TIP3   OH250220   3.078   6.250  15.893 -0.4100  0.5076 -0.0482
 9602TIP3    H150221   3.079   6.154  15.899 -2.1038  0.5168  1.1306
 9602TIP3    H250222   3.160   6.277  15.935 -0.3675 -0.4024  0.4935
 9603TIP3   OH250223   0.764   3.250   2.702  0.0058  0.0816  0.5785
 9603TIP3    H150224   0.672   3.223   2.701  0.1780 -0.6224  1.5234
 9603TIP3    H250225   0.809   3.177   2.746  1.2666 -0.3574 -1.3132
 9604TIP3   OH250226   4.988   5.011  14.021  0.2179  0.2705  0.3592
 9604TIP3    H150227   5.023   5.060  13.947  0.9125 -0.8440 -0.0807
 9604TIP3    H250228   4.901   5.046  14.035  0.8357  1.8957  0.3267
 9605TIP3   OH250229   2.124   3.825   2.344  0.2377  0.1704 -0.1723
 9605TIP3    H150230   2.044   3.805   2.393  1.8013 -1.9415  1.7583
 9605TIP3    H250231   2.169   3.890   2.398  0.6858 -0.1015 -0.2118
 9606TIP3   OH250232   0.714   0.153   2.846  0.0854  0.5488 -0.1469
 9606TIP3    H150233   0.781   0.207   2.888  0.2762 -0.6340  1.1326
 9606TIP3    H250234   0.637   0.162   2.901 -0.3501  0.6945 -0.7672
 9607TIP3   OH250235   4.449   5.641   1.266  0.1661  0.0871 -0.3409
 9607TIP3    H150236   4.534   5.615   1.302  0.7861  0.5201 -1.4434
 9607TIP3    H250237   4.406   5.687   1.338  0.4807 -0.9308  0.5243
 9608TIP3   OH250238   0.020   3.064   1.724 -0.0782  0.2288  0.1835
 9608TIP3    H150239   0.066   2.990   1.684 -1.2829 -0.1238 -0.5945
 9608TIP3    H250240   0.049   3.140   1.674  0.4445  0.1544  0.3708
 9609TIP3   OH250241   3.670   1.332  13.675  0.0664  0.4470  0.4913
 9609TIP3    H150242   3.684   1.353  13.582  0.9804 -0.5409  0.3931
 9609TIP3    H250243   3.580   1.300  13.678  0.6602 -1.4628 -0.4496
 9610TIP3   OH250244   0.545   4.742   2.160  0.2208  0.3369  0.4251
 9610TIP3    H150245   0.477   4.808   2.175 -0.8704 -0.4350 -0.8959
 9610TIP3    H250246   0.617   4.792   2.121  0.0785  1.0142  0.9957
 9611TIP3   OH250247   6.620   2.204  12.970  0.5247  0.1255  0.3091
 9611TIP3    H150248   6.555   2.145  12.930 -1.1090  1.6424  0.6090
 9611TIP3    H250249   6.679   2.227  12.898  0.6115 -1.0869 -0.0295
 9612TIP3   OH250250   6.384   6.385  14.663 -0.1310  0.1044  0.2419
 9612TIP3    H150251   6.416   6.295  14.674  0.7114  0.3304 -0.2141
 9612TIP3    H250252   6.293   6.375  14.634 -0.0220 -0.6049  0.1138
 9613TIP3   OH250253   1.625   0.332  16.453  0.2858 -0.1164  0.2326
 9613TIP3    H150254   1.612   0.377  16.537 -0.3792 -0.6992  0.4516
 9613TIP3    H250255   1.713   0.357  16.426  1.4409 -1.6728  2.2130
 9614TIP3   OH250256   0.144   4.901   1.714 -0.1676 -0.1081  0.1665
 9614TIP3    H150257   0.077   4.945   1.662 -0.9256 -1.2333  0.1559
 9614TIP3    H250258   0.227   4.934   1.680 -0.6845  0.2943 -0.7409
 9615TIP3   OH250259   5.430   1.511   1.677 -0.0683  0.4794  0.3778
 9615TIP3    H150260   5.512   1.552   1.653  0.2135  0.3537  1.0854
 9615TIP3    H250261   5.394   1.567   1.746 -1.6945  1.7928 -1.4395
 9616TIP3   OH250262   6.354   6.239  14.308  0.7518 -0.0861  0.0704
 9616TIP3    H150263   6.326   6.241  14.217  0.5602 -1.1132  0.0922
 9616TIP3    H250264   6.408   6.160  14.315 -0.0526 -0.5864  1.0637
 9617TIP3   OH250265   0.410   0.292  15.946 -0.3856 -0.2106 -0.1909
 9617TIP3    H150266   0.410   0.305  15.852 -0.9805 -0.7032 -0.2640
 9617TIP3    H250267   0.439   0.201  15.958 -0.2923 -0.1452  0.1047
 9618TIP3   OH250268   3.396   3.984   1.767  0.4509  0.2553 -0.1082
 9618TIP3    H150269   3.396   4.069   1.722  2.1403  0.8399  0.8750
 9618TIP3    H250270   3.476   3.941   1.737  0.3863 -0.3285  0.5354
 9619TIP3   OH250271   0.377   1.104   1.324 -0.4405 -0.6040  0.4738
 9619TIP3    H150272   0.335   1.179   1.282  0.5958  0.5464  1.4002
 9619TIP3    H250273   0.307   1.062   1.374 -1.5898 -1.7396 -1.9396
 9620TIP3   OH250274   4.845   4.066   4.079  0.1219  0.0027 -0.1164
 9620TIP3    H150275   4.753   4.038   4.075  0.0885  0.2347 -1.1857
 9620TIP3    H250276   4.850   4.117   4.160 -0.1828 -1.7442  1.0549
 9621TIP3   OH250277   5.295   4.300   2.153  0.5533 -0.7767 -0.1098
 9621TIP3    H150278   5.390   4.294   2.150  0.8085  1.0329  1.8460
 9621TIP3    H250279   5.271   4.267   2.240 -0.1969  1.9006  0.7994
 9622TIP3   OH250280   3.042   0.549   1.832 -0.1393  0.1057 -0.3352
 9622TIP3    H150281   3.122   0.534   1.781  0.0582  1.3034 -0.3964
 9622TIP3    H250282   3.073   0.576   1.918 -0.4841  0.5663 -0.3542
 9623TIP3   OH250283   6.776   4.198   5.732  0.2857 -0.1964 -0.0280
 9623TIP3    H150284   6.773   4.105   5.751 -1.6879  0.0371  1.0680
 9623TIP3    H250285   6.697   4.234   5.773  1.8187  2.2311  1.0730
 9624TIP3   OH250286   2.917   2.089  13.033 -0.0897  0.6214  0.5437
 9624TIP3    H150287   2.848   2.024  13.025 -1.1747  1.8623 -0.7356
 9624TIP3    H250288   2.990   2.052  12.984 -1.6273  1.4713 -2.6947
 9625TIP3   OH250289   1.321   0.170  12.916  0.0456 -0.9390 -0.2350
 9625TIP3    H150290   1.387   0.144  12.852  0.8414 -1.6632  0.8435
 9625TIP3    H250291   1.356   0.139  13.000 -0.9705 -0.0167  0.5491
 9626TIP3   OH250292   3.595   3.512   5.153 -0.3807  1.0315 -0.0731
 9626TIP3    H150293   3.686   3.481   5.159 -0.7349 -0.7210 -2.1832
 9626TIP3    H250294   3.556   3.490   5.237  0.5124 -0.6418 -0.0434
 9627TIP3   OH250295   4.498   2.482   5.356  0.0369  0.0396 -0.2371
 9627TIP3    H150296   4.489   2.560   5.301  1.6215  0.0163 -0.5728
 9627TIP3    H250297   4.494   2.515   5.446 -1.2658  0.2381 -0.3478
 9628TIP3   OH250298   0.243   2.002  14.190  0.1480  0.2206 -0.3570
 9628TIP3    H150299   0.162   1.954  14.175  0.8911 -0.9006 -0.9624
 9628TIP3    H250300   0.217   2.077  14.243 -1.6252  1.1017 -2.3475
 9629TIP3   OH250301   4.836   3.332   0.996 -0.6289  0.2376 -0.0338
 9629TIP3    H150302   4.892   3.408   1.012  0.1511 -0.2785 -0.3237
 9629TIP3    H250303   4.748   3.363   1.020 -0.4317  1.4462 -0.7779
 9630TIP3   OH250304   0.036   0.634  12.763 -0.1410 -0.1650 -0.4450
 9630TIP3    H150305   0.014   0.545  12.788 -0.1548 -0.1543 -0.4188
 9630TIP3    H250306   0.048   0.631  12.668 -1.6695  0.1330 -0.6724
 9631TIP3   OH250307   4.851   4.011   1.051 -0.3629  0.2816 -0.0251
 9631TIP3    H150308   4.848   4.090   1.105 -0.1053  1.5335 -1.7145
 9631TIP3    H250309   4.778   4.022   0.989 -1.9317 -2.0772  1.2699
 9632TIP3   OH250310   5.731   3.503  15.574  0.3718 -0.4313  0.1933
 9632TIP3    H150311   5.665   3.434  15.570 -1.7330  1.4776 -0.4078
 9632TIP3    H250312   5.814   3.457  15.583 -0.9203 -3.0076 -0.1571
 9633TIP3   OH250313   1.511   4.483  14.730  0.5579  0.1414  0.3204
 9633TIP3    H150314   1.428   4.444  14.706  0.8175 -1.1904  1.4093
 9633TIP3    H250315   1.504   4.500  14.824  0.3262  3.1835 -0.1279
 9634TIP3   OH250316   0.236   4.029   0.899 -0.4232 -0.2037  0.0099
 9634TIP3    H150317   0.157   4.083   0.895  1.2322  2.3137 -1.5897
 9634TIP3    H250318   0.228   3.969   0.825 -0.3339  0.8359 -0.8609
 9635TIP3   OH250319   5.001   1.011  16.099  0.1417  0.3219  0.0931
 9635TIP3    H150320   5.008   1.084  16.037  0.9028  1.1394  1.1204
 9635TIP3    H250321   4.963   0.940  16.047 -2.3074  1.9443 -0.5000
 9636TIP3   OH250322   5.917   3.483  12.265 -0.0561  0.1908  0.4702
 9636TIP3    H150323   5.956   3.397  12.255 -1.3913 -0.4822  0.7650
 9636TIP3    H250324   5.843   3.483  12.204 -0.2815  1.0006  0.7248
 9637TIP3   OH250325   0.176   0.484   0.733 -0.0284 -0.4680  0.0175
 9637TIP3    H150326   0.100   0.515   0.783  0.4750  0.3161  0.3294
 9637TIP3    H250327   0.213   0.564   0.695  0.7746 -0.8093  0.0672
 9638TIP3   OH250328   2.431   2.146   1.695 -0.0198 -0.2713 -0.3294
 9638TIP3    H150329   2.504   2.153   1.757  0.3884 -0.9764 -0.7051
 9638TIP3    H250330   2.422   2.052   1.680 -1.3424 -0.2296  0.0824
 9639TIP3   OH250331   0.276   4.063   5.596  0.1212 -0.4806  0.5090
 9639TIP3    H150332   0.297   4.094   5.684 -0.6703  0.4970  0.3655
 9639TIP3    H250333   0.211   3.993   5.610 -0.1573 -0.1875  0.6990
 9640TIP3   OH250334   6.420   3.800   0.722 -0.4989  0.0340 -0.4167
 9640TIP3    H150335   6.416   3.728   0.785 -1.9878  2.0289  1.9399
 9640TIP3    H250336   6.473   3.867   0.764  1.5229  0.1579 -2.8881
 9641TIP3   OH250337   4.847   3.594  14.912 -0.0952 -0.1435 -0.2314
 9641TIP3    H150338   4.774   3.553  14.957 -0.7183  0.1939 -0.9127
 9641TIP3    H250339   4.920   3.589  14.974 -0.8920  0.2015  0.7601
 9642TIP3   OH250340   5.735   6.094  12.319 -0.4569 -0.3748 -0.5587
 9642TIP3    H150341   5.730   6.161  12.251  2.4999 -1.3566 -1.9357
 9642TIP3    H250342   5.708   6.013  12.274  0.0635 -0.7894 -0.1378
 9643TIP3   OH250343   2.355   5.536   3.307 -0.6232 -0.2656  1.0717
 9643TIP3    H150344   2.418   5.469   3.284 -0.9213  0.3185 -1.8216
 9643TIP3    H250345   2.406   5.616   3.314 -0.7662 -0.1179  0.5205
 9644TIP3   OH250346   6.791   0.190  13.823  0.0840 -0.7349  0.3127
 9644TIP3    H150347   6.753   0.109  13.788 -2.2181  0.3999 -0.0331
 9644TIP3    H250348   6.715   0.245  13.844  1.5071  2.3594 -1.8375
 9645TIP3   OH250349   0.627   1.653  13.783 -0.3833 -0.1610  0.2993
 9645TIP3    H150350   0.593   1.649  13.693 -2.1440 -0.6777  0.9530
 9645TIP3    H250351   0.550   1.669  13.837  0.4881 -0.9047  1.8134
 9646TIP3   OH250352   5.864   5.927   5.359 -0.1771 -0.5814 -0.6075
 9646TIP3    H150353   5.887   5.859   5.422  0.1841 -0.2525 -0.3760
 9646TIP3    H250354   5.843   6.003   5.412  2.6124  0.4970 -0.8596
 9647TIP3   OH250355   4.685   2.710  12.108 -0.6555 -0.0054 -0.0091
 9647TIP3    H150356   4.598   2.690  12.075 -0.5827  0.6885 -0.6257
 9647TIP3    H250357   4.711   2.790  12.063  0.1555 -0.0048  0.4361
 9648TIP3   OH250358   0.609   3.465   4.199 -0.0236 -0.7715  0.0900
 9648TIP3    H150359   0.540   3.470   4.133 -0.9433 -3.6639  0.7075
 9648TIP3    H250360   0.608   3.551   4.241 -2.1993 -0.2260 -0.9329
 9649TIP3   OH250361   1.068   1.995   2.249 -0.3405  0.1985 -0.7236
 9649TIP3    H150362   1.130   2.068   2.248  0.6193 -0.5938 -0.8345
 9649TIP3    H250363   1.001   2.021   2.312  1.9360 -0.3543  2.1459
 9650TIP3   OH250364   0.442   2.661  14.225 -0.0479 -0.6747 -0.1435
 9650TIP3    H150365   0.473   2.645  14.314  1.5775  1.5373 -0.2203
 9650TIP3    H250366   0.479   2.590  14.173  0.3004 -1.1136  0.6852
 9651TIP3   OH250367   6.739   1.108   3.280 -0.1413 -0.2966 -0.0572
 9651TIP3    H150368   6.707   1.192   3.247  0.4742 -0.4192 -1.0221
 9651TIP3    H250369   6.755   1.056   3.201  0.5144 -0.9355  0.4755
 9652TIP3   OH250370   2.586   3.197   3.194  0.0936  0.3298  0.2011
 9652TIP3    H150371   2.641   3.271   3.168  0.7076 -0.7547 -1.8348
 9652TIP3    H250372   2.639   3.148   3.257  0.3525  0.7312  0.2986
 9653TIP3   OH250373   2.272   6.374   1.080 -0.4653 -0.0670 -0.0318
 9653TIP3    H150374   2.367   6.388   1.090 -0.4036  0.4240 -1.1518
 9653TIP3    H250375   2.261   6.349   0.988 -1.3924 -0.4723  0.1793
 9654TIP3   OH250376   0.285   6.368   4.335 -0.0009  0.0514  0.3446
 9654TIP3    H150377   0.347   6.298   4.355 -1.7803 -1.5486  0.5452
 9654TIP3    H250378   0.293   6.380   4.240  1.4238  0.7140  0.5255
 9655TIP3   OH250379   2.761   3.362  15.359 -0.3331 -0.1053 -0.4055
 9655TIP3    H150380   2.809   3.316  15.290 -0.1428  1.0216 -1.0419
 9655TIP3    H250381   2.828   3.413  15.405 -0.1465 -2.1183  1.7488
 9656TIP3   OH250382   3.540   1.498  11.345  0.1372 -0.3453  0.2464
 9656TIP3    H150383   3.613   1.473  11.402 -0.2216  0.5446  1.1283
 9656TIP3    H250384   3.555   1.449  11.264  1.3001 -0.7462  0.6797
 9657TIP3   OH250385   3.524   4.232   2.709  0.3423 -0.2283  0.5973
 9657TIP3    H150386   3.533   4.138   2.729 -2.0369 -0.5873  0.2339
 9657TIP3    H250387   3.489   4.270   2.790 -0.8358 -0.0804  0.0334
 9658TIP3   OH250388   4.507   4.670   4.715 -0.4047 -0.0904  0.4045
 9658TIP3    H150389   4.563   4.704   4.785 -0.6377 -0.6649  0.8741
 9658TIP3    H250390   4.542   4.583   4.697 -2.3062 -1.2660  2.0464
 9659TIP3   OH250391   4.179   5.583   2.970  0.3849 -0.0067 -0.2576
 9659TIP3    H150392   4.157   5.493   2.993  2.7933 -0.7037 -0.4358
 9659TIP3    H250393   4.219   5.619   3.049 -0.3136  0.8566 -0.2734
 9660TIP3   OH250394   1.460   4.744   0.759 -0.4545 -0.1021  0.2326
 9660TIP3    H150395   1.517   4.685   0.808  0.7045  0.9974  0.2670
 9660TIP3    H250396   1.520   4.807   0.718 -1.5799  0.4943 -0.5655
 9661TIP3   OH250397   0.680   1.645   1.441  0.1279 -0.2822 -0.2439
 9661TIP3    H150398   0.641   1.562   1.469 -0.6469 -0.3174 -1.3935
 9661TIP3    H250399   0.737   1.670   1.514 -2.0928 -0.1598  1.5682
 9662TIP3   OH250400   0.369   0.604   0.339  0.4556  0.3126 -0.4420
 9662TIP3    H150401   0.314   0.621   0.262  1.3129  0.5424 -1.0168
 9662TIP3    H250402   0.361   0.510   0.354  0.3163  0.2602 -0.8434
 9663TIP3   OH250403   0.476   2.212  11.032 -0.5059 -0.0465 -0.2032
 9663TIP3    H150404   0.441   2.196  10.944 -0.3428  0.6543 -0.4024
 9663TIP3    H250405   0.570   2.205  11.022 -0.5580 -1.9236  0.3333
 9664TIP3   OH250406   2.390   4.710  12.535 -0.6124 -0.4862  0.6459
 9664TIP3    H150407   2.452   4.638  12.525 -0.4484 -0.2953  0.2820
 9664TIP3    H250408   2.411   4.770  12.464 -0.4210  0.1670  1.2519
 9665TIP3   OH250409   4.117   5.976  16.161 -0.3224  0.1953 -0.2685
 9665TIP3    H150410   4.140   5.909  16.097  0.5566  0.4237 -0.2049
 9665TIP3    H250411   4.122   6.058  16.113 -3.3916  0.1340 -0.9046
 9666TIP3   OH250412   0.552   1.369  16.884 -0.1339  0.5197 -0.1776
 9666TIP3    H150413   0.560   1.294  16.942  1.3137  0.5366 -0.3263
 9666TIP3    H250414   0.570   1.445  16.939  1.1671  0.5403 -0.5962
 9667TIP3   OH250415   0.863   6.149  14.738 -0.4880 -0.0249  0.4240
 9667TIP3    H150416   0.799   6.216  14.762 -0.4578  0.1207  0.1010
 9667TIP3    H250417   0.819   6.098  14.670 -0.8731 -0.9096  1.2935
 9668TIP3   OH250418   1.252   3.797  16.230  0.4047 -0.0164  0.4208
 9668TIP3    H150419   1.237   3.890  16.209 -0.5990 -0.4778 -1.0614
 9668TIP3    H250420   1.248   3.793  16.325 -3.2684  0.9233  0.4591
 9669TIP3   OH250421   5.784   4.086   0.133  0.3365  0.0294 -0.1312
 9669TIP3    H150422   5.829   4.064   0.051 -0.1072 -1.1842 -0.0596
 9669TIP3    H250423   5.761   4.178   0.123  0.5866 -0.0134 -1.2310
 9670TIP3   OH250424   4.826   6.652   1.794  0.0228  0.2938 -0.1042
 9670TIP3    H150425   4.744   6.642   1.842 -0.1219 -1.4127 -0.6422
 9670TIP3    H250426   4.813   6.730   1.740 -1.2237  0.0799 -0.1370
 9671TIP3   OH250427   2.905   4.285  13.392  0.0450 -0.7922 -0.0108
 9671TIP3    H150428   2.904   4.376  13.361 -1.8586 -0.6977  0.1930
 9671TIP3    H250429   2.865   4.235  13.321 -1.1576 -1.0875  0.8401
 9672TIP3   OH250430   3.200   0.654   0.101  0.0656  0.2166  0.5716
 9672TIP3    H150431   3.284   0.673   0.144  0.0966  1.9888 -0.2017
 9672TIP3    H250432   3.136   0.706   0.149 -0.0828  1.2794 -0.7200
 9673TIP3   OH250433   5.474   3.847   1.357 -0.5657 -0.4519 -0.2914
 9673TIP3    H150434   5.378   3.843   1.357 -0.6805  1.4117  0.4077
 9673TIP3    H250435   5.498   3.851   1.450  0.2314 -1.2521 -0.4462
 9674TIP3   OH250436   1.799   4.024  14.026 -0.2195  0.2742  0.2166
 9674TIP3    H150437   1.738   3.960  13.991 -0.2962 -0.0792  0.9624
 9674TIP3    H250438   1.854   3.974  14.087 -0.4294  0.9515  0.9868
 9675TIP3   OH250439   0.833   4.612  14.489  0.2896  0.2423  0.0725
 9675TIP3    H150440   0.909   4.561  14.463  2.0028  1.6322  2.0653
 9675TIP3    H250441   0.786   4.556  14.550  1.1836  0.3462  0.8749
 9676TIP3   OH250442   6.449   2.045  13.186  0.6252 -0.0986  0.6647
 9676TIP3    H150443   6.412   2.121  13.141  0.6554 -0.1447  0.5617
 9676TIP3    H250444   6.415   2.051  13.275  0.6043  0.0201  0.6493
 9677TIP3   OH250445   6.372   0.810  14.288 -0.0773  0.6983 -0.0737
 9677TIP3    H150446   6.387   0.864  14.366  0.1866  2.5346 -1.3444
 9677TIP3    H250447   6.363   0.721  14.323  0.3665  1.4020  2.0145
 9678TIP3   OH250448   1.545   0.866  14.881 -0.3979  0.3714 -0.3278
 9678TIP3    H150449   1.625   0.865  14.932 -0.0324  2.4884 -0.7657
 9678TIP3    H250450   1.548   0.949  14.832 -2.6315  0.3188 -0.6866
 9679TIP3   OH250451   0.199   2.503   0.437  0.0444  0.0386 -0.4603
 9679TIP3    H150452   0.249   2.577   0.404  1.0029  0.1446  1.1320
 9679TIP3    H250453   0.207   2.509   0.533 -1.4034 -1.0634 -0.2333
 9680TIP3   OH250454   6.473   0.677  10.851 -0.1683  0.2456  0.8457
 9680TIP3    H150455   6.481   0.770  10.834 -0.4748 -0.0082 -0.8912
 9680TIP3    H250456   6.379   0.659  10.842 -0.2919 -0.0254  2.4433
 9681TIP3   OH250457   1.379   4.030   3.801  0.5620 -0.2352 -0.3286
 9681TIP3    H150458   1.358   3.952   3.853 -1.1485 -0.3759 -1.1652
 9681TIP3    H250459   1.330   4.019   3.720  0.9487  1.3334 -0.8136
 9682TIP3   OH250460   5.817   1.883  12.146 -0.2432  0.3314  0.1147
 9682TIP3    H150461   5.800   1.821  12.076  1.3853  1.0655 -0.9913
 9682TIP3    H250462   5.835   1.966  12.101 -1.8462  1.5156  1.5158
 9683TIP3   OH250463   2.754   4.542   3.614 -0.6424 -0.3400 -0.0715
 9683TIP3    H150464   2.839   4.541   3.571 -0.6479 -0.1595 -0.0837
 9683TIP3    H250465   2.720   4.453   3.600 -0.4749 -0.4002 -0.1005
 9684TIP3   OH250466   3.284   1.950  11.359  0.1294  0.0432 -0.0429
 9684TIP3    H150467   3.334   1.889  11.305 -0.2546  0.4693 -0.8907
 9684TIP3    H250468   3.231   1.894  11.416  1.6530 -0.4216  0.9833
 9685TIP3   OH250469   3.498   4.399  14.317  0.2136 -0.0648 -0.1419
 9685TIP3    H150470   3.449   4.343  14.378 -1.4798  0.1786 -1.1995
 9685TIP3    H250471   3.472   4.368  14.230  1.2467  0.7105 -0.7517
 9686TIP3   OH250472   6.735   6.546   1.458 -0.1864 -0.2158  0.3827
 9686TIP3    H150473   6.697   6.539   1.546  1.4777 -0.9143  1.0936
 9686TIP3    H250474   6.674   6.497   1.402 -1.2591  0.2146  1.1289
 9687TIP3   OH250475   0.769   6.492  13.685 -0.2691  0.0846 -0.3331
 9687TIP3    H150476   0.808   6.544  13.756  0.0521  0.6969 -0.9453
 9687TIP3    H250477   0.717   6.556  13.636 -0.5410 -0.3538 -0.6109
 9688TIP3   OH250478   6.663   2.391  11.635  0.3575 -0.3756 -0.1208
 9688TIP3    H150479   6.714   2.344  11.569  0.9843 -0.4510  0.4097
 9688TIP3    H250480   6.639   2.323  11.699  1.4520  0.0477  0.7650
 9689TIP3   OH250481   4.915   6.286  12.582 -0.8754  0.3415  0.6673
 9689TIP3    H150482   4.987   6.234  12.545  0.2767  1.4550  1.2782
 9689TIP3    H250483   4.844   6.277  12.519  0.1152 -0.0327 -0.4288
 9690TIP3   OH250484   1.531   3.340  16.345  0.6604 -0.0235  0.3857
 9690TIP3    H150485   1.456   3.324  16.288  0.2599  0.8016  0.6544
 9690TIP3    H250486   1.563   3.427  16.319  0.0960  0.6441  1.7887
 9691TIP3   OH250487   4.376   5.471  12.711  0.1466 -0.5730  0.0089
 9691TIP3    H150488   4.421   5.422  12.641 -1.7639 -0.5756 -1.3094
 9691TIP3    H250489   4.306   5.518  12.665  0.4200  1.4976  1.6025
 9692TIP3   OH250490   3.825   4.501  12.206 -0.6216 -0.5062 -0.0886
 9692TIP3    H150491   3.825   4.455  12.290 -0.9550  0.5867  0.5226
 9692TIP3    H250492   3.733   4.520  12.189 -0.7017 -1.8274 -1.3441
 9693TIP3   OH250493   2.963   6.611  10.751  0.0086 -0.6011 -0.2359
 9693TIP3    H150494   2.987   6.519  10.760  0.0596 -0.4567  1.3710
 9693TIP3    H250495   3.046   6.658  10.756 -0.0115 -0.4424 -1.1059
 9694TIP3   OH250496   3.920   0.722  12.281 -0.3654 -0.0204 -0.2537
 9694TIP3    H150497   3.939   0.638  12.322  0.7700 -0.2500 -1.1925
 9694TIP3    H250498   3.939   0.787  12.349  0.8086 -0.4302 -0.1650
 9695TIP3   OH250499   4.875   6.737  11.079  0.1417  0.9959  0.4037
 9695TIP3    H150500   4.952   6.716  11.132  0.3946 -0.6304 -0.5486
 9695TIP3    H250501   4.801   6.707  11.132  0.3824 -0.4447 -0.0265
 9696TIP3   OH250502   3.145   3.461   1.760 -0.2904 -0.3714  0.4880
 9696TIP3    H150503   3.183   3.542   1.796  0.6597 -1.0575  1.0806
 9696TIP3    H250504   3.056   3.486   1.735 -0.6060  0.4500  2.2590
 9697TIP3   OH250505   1.547   1.121   6.218 -0.9063 -0.0022  0.4442
 9697TIP3    H150506   1.561   1.201   6.268  0.9732  0.2922 -0.4377
 9697TIP3    H250507   1.527   1.152   6.129  0.0029 -0.4676  0.0585
 9698TIP3   OH250508   3.691   3.392   0.794  0.3557 -0.1029 -0.4239
 9698TIP3    H150509   3.625   3.427   0.733 -3.1215 -3.4603  0.9681
 9698TIP3    H250510   3.663   3.424   0.879  0.5089 -1.5477  0.1934
 9699TIP3   OH250511   6.352   1.478  13.310 -0.1514 -0.3394  0.3274
 9699TIP3    H150512   6.430   1.465  13.257  0.6190 -0.5511  1.4857
 9699TIP3    H250513   6.324   1.567  13.290  0.2449 -0.3441 -0.2668
 9700TIP3   OH250514   1.552   5.998   1.008  0.1538 -0.2712  0.1147
 9700TIP3    H150515   1.560   5.957   0.922 -1.3704 -0.2877 -0.0440
 9700TIP3    H250516   1.599   6.081   1.000  1.7113 -1.1306 -0.1110
 9701TIP3   OH250517   2.177   5.152   6.250 -0.3290 -0.7556  0.2290
 9701TIP3    H150518   2.111   5.204   6.295 -2.1571 -2.2750 -0.5645
 9701TIP3    H250519   2.257   5.165   6.302 -1.7333 -0.4952  2.4645
 9702TIP3   OH250520   3.814   3.005  13.485  0.2027 -0.1655 -0.0487
 9702TIP3    H150521   3.792   3.044  13.569 -0.3539  0.2261 -0.3627
 9702TIP3    H250522   3.861   3.073  13.438 -0.8550  0.1854 -0.6362
 9703TIP3   OH250523   1.069   0.668  16.798  0.4472  0.2327  0.5147
 9703TIP3    H150524   0.978   0.657  16.828  1.1845 -3.2758  1.9590
 9703TIP3    H250525   1.061   0.682  16.704 -1.6064  0.2943  0.6432
 9704TIP3   OH250526   5.596   2.363  11.052 -0.0270  1.0290  0.1525
 9704TIP3    H150527   5.623   2.423  10.983 -0.1575  0.0232 -0.8157
 9704TIP3    H250528   5.624   2.405  11.133  0.9127  1.8402 -0.5613
 9705TIP3   OH250529   0.332   3.835   4.767 -0.2853  0.1779  0.5134
 9705TIP3    H150530   0.375   3.810   4.686  0.8524  1.9437  0.5280
 9705TIP3    H250531   0.257   3.776   4.773  0.4071 -0.9417 -1.0712
 9706TIP3   OH250532   1.148   3.121  14.728 -0.1723 -0.5107 -0.3630
 9706TIP3    H150533   1.136   3.124  14.633  0.3192 -1.0602 -0.4480
 9706TIP3    H250534   1.236   3.158  14.741 -0.2695 -0.3688 -0.1142
 9707TIP3   OH250535   2.782   4.269  11.537 -0.6468  0.2741 -0.1512
 9707TIP3    H150536   2.752   4.206  11.602 -0.6823  1.2936  0.8731
 9707TIP3    H250537   2.766   4.354  11.578 -0.4516  0.9463 -1.4171
 9708TIP3   OH250538   0.534   5.483   4.746  0.0183 -0.2087 -0.8436
 9708TIP3    H150539   0.439   5.476   4.757  0.2262 -2.3179  0.2857
 9708TIP3    H250540   0.552   5.432   4.667  0.4879 -3.6850  1.2424
 9709TIP3   OH250541   3.131   3.123   1.750 -0.5058 -0.1582 -0.5456
 9709TIP3    H150542   3.069   3.150   1.682  0.3977 -0.8733 -1.6817
 9709TIP3    H250543   3.077   3.073   1.812 -1.0100 -1.1982 -1.7801
 9710TIP3   OH250544   6.180   3.463   5.470  0.1607 -0.0766 -0.4527
 9710TIP3    H150545   6.158   3.393   5.531  1.1688  0.4678  0.5669
 9710TIP3    H250546   6.196   3.417   5.387 -0.0513 -0.9529 -0.0258
 9711TIP3   OH250547   6.101   2.113   1.459  0.0492 -0.3669 -0.1758
 9711TIP3    H150548   6.133   2.195   1.423 -0.9715  1.0087  1.8080
 9711TIP3    H250549   6.116   2.121   1.553 -1.5113 -1.7514  0.2421
 9712TIP3   OH250550   0.638   2.355   0.462 -0.5247 -0.3109 -0.7625
 9712TIP3    H150551   0.564   2.302   0.433  0.1960 -2.9122  1.7160
 9712TIP3    H250552   0.705   2.292   0.488  1.3507  1.8759  0.0902
 9713TIP3   OH250553   3.681   6.560   0.036 -0.0356 -0.0994 -0.1903
 9713TIP3    H150554   3.720   6.540  -0.049  1.3216  1.4500  0.0246
 9713TIP3    H250555   3.586   6.560   0.019  0.2256  1.3805 -2.0334
 9714TIP3   OH250556   4.517   3.374  16.519  0.0861 -0.0947 -0.5401
 9714TIP3    H150557   4.564   3.457  16.511 -0.4440  0.1718 -0.9220
 9714TIP3    H250558   4.505   3.362  16.613  1.1076 -0.2771 -0.4218
 9715TIP3   OH250559   1.889   4.462   1.330 -0.3149 -0.9797 -0.1006
 9715TIP3    H150560   1.828   4.476   1.258  0.3413 -0.0162 -0.4888
 9715TIP3    H250561   1.930   4.378   1.311  0.7459 -0.1863 -1.5563
 9716TIP3   OH250562   1.904   4.027  12.644 -0.3192  0.2635  0.6091
 9716TIP3    H150563   1.814   4.022  12.676 -0.8361 -0.8380 -0.8839
 9716TIP3    H250564   1.941   4.106  12.685 -2.0528  0.9011  0.9979
 9717TIP3   OH250565   1.055   1.073   0.116  0.3570 -0.4351 -0.3129
 9717TIP3    H150566   1.109   1.053   0.192  0.2189 -0.4427 -0.2149
 9717TIP3    H250567   0.970   1.033   0.135 -0.8998  2.5944  1.2305
 9718TIP3   OH250568   0.245   3.882  17.114 -0.8402  0.0677  0.1081
 9718TIP3    H150569   0.232   3.920  17.027  0.7610  0.6595  0.0991
 9718TIP3    H250570   0.228   3.954  17.175  0.6847  0.4260  0.1515
 9719TIP3   OH250571   0.259   4.101   0.563 -0.1906  0.4027  0.0504
 9719TIP3    H150572   0.212   4.160   0.622 -1.3397  0.5344 -0.9656
 9719TIP3    H250573   0.352   4.113   0.585 -0.4189  2.4106  0.0444
 9720TIP3   OH250574   4.153   4.119   5.103  0.2856  0.3951 -0.2795
 9720TIP3    H150575   4.191   4.205   5.123  1.2460 -0.0109 -0.2760
 9720TIP3    H250576   4.228   4.059   5.105 -0.4741 -0.5693  0.4720
 9721TIP3   OH250577   5.116   3.003   3.573  0.4540  0.6247  0.3503
 9721TIP3    H150578   5.136   3.093   3.547 -0.8827  0.4067 -1.6755
 9721TIP3    H250579   5.194   2.973   3.620  1.5238  2.3450 -0.2444
 9722TIP3   OH250580   5.135   3.780  16.789  0.4402 -0.0453  0.2562
 9722TIP3    H150581   5.227   3.805  16.802  0.4329 -0.0939  0.4001
 9722TIP3    H250582   5.108   3.744  16.873  0.3219 -0.1362  0.1788
 9723TIP3   OH250583   2.054   4.722  13.112  0.0372 -0.3305 -0.7663
 9723TIP3    H150584   2.087   4.653  13.055  1.3560 -0.4056  0.0440
 9723TIP3    H250585   2.049   4.799  13.056 -1.1105 -0.9760 -1.5900
 9724TIP3   OH250586   6.294   1.247   3.988  0.1121 -0.2432  0.1138
 9724TIP3    H150587   6.363   1.302   3.950  1.2980 -2.4257 -1.1115
 9724TIP3    H250588   6.217   1.303   3.990  1.2069  1.4240 -1.1570
 9725TIP3   OH250589   5.644   3.331  13.634  0.9570 -0.0286 -0.4106
 9725TIP3    H150590   5.736   3.339  13.607  1.1669  0.3932  0.4006
 9725TIP3    H250591   5.642   3.365  13.724 -0.1134  0.6216 -0.6566
 9726TIP3   OH250592   0.645   0.101  17.078  0.2767 -0.1360  0.1738
 9726TIP3    H150593   0.621   0.101  16.985 -1.9301  0.7951  0.6605
 9726TIP3    H250594   0.689   0.185  17.091  2.0438 -0.9467 -0.3072
 9727TIP3   OH250595   0.307   6.012  12.951  0.0295 -0.5308 -0.2311
 9727TIP3    H150596   0.393   6.051  12.938 -1.5449  2.9936 -1.3794
 9727TIP3    H250597   0.294   5.955  12.876  1.2565 -0.9753 -0.1217
 9728TIP3   OH250598   1.097   3.305  14.404 -0.1234  0.1361 -0.6097
 9728TIP3    H150599   1.142   3.223  14.425 -0.2514  0.7473  2.5823
 9728TIP3    H250600   1.154   3.373  14.438 -2.3190  1.0418  1.5938
 9729TIP3   OH250601   5.683   6.723  12.513 -0.0632 -0.1657 -0.2092
 9729TIP3    H150602   5.609   6.682  12.468  0.0195  0.1082 -0.5880
 9729TIP3    H250603   5.736   6.762  12.444  0.1463  0.1182  0.1086
 9730TIP3   OH250604   2.906   0.229  12.984 -0.7280  0.0961 -0.4035
 9730TIP3    H150605   2.823   0.185  13.002  0.3118 -0.6513  3.7245
 9730TIP3    H250606   2.972   0.160  12.987  0.4627  1.2050  1.3949
 9731TIP3   OH250607   6.685   3.400   3.173 -0.0778 -0.5891  0.0344
 9731TIP3    H150608   6.761   3.348   3.147 -0.3270 -1.3703  0.8077
 9731TIP3    H250609   6.722   3.481   3.208  0.4339 -1.1177  0.7554
 9732TIP3   OH250610   3.031   0.212  12.741 -0.0015  0.0879  0.0286
 9732TIP3    H150611   2.970   0.246  12.807  0.0588  1.9766 -0.8339
 9732TIP3    H250612   2.996   0.244  12.658 -0.0751 -2.2378 -0.9039
 9733TIP3   OH250613   1.180   2.323   1.601  0.0298 -0.5930  0.1101
 9733TIP3    H150614   1.205   2.377   1.526  0.4967 -1.0186 -0.0495
 9733TIP3    H250615   1.240   2.248   1.597  0.9027 -0.0122  1.6340
 9734TIP3   OH250616   2.401   1.479   2.582  0.1666  0.1837  0.4410
 9734TIP3    H150617   2.420   1.571   2.600  0.4066  0.4031 -0.8613
 9734TIP3    H250618   2.308   1.469   2.602 -0.4069  1.2672 -1.4479
 9735TIP3   OH250619   2.957   3.602   5.692 -0.1241 -0.3662  0.2991
 9735TIP3    H150620   2.965   3.533   5.627  0.5408  0.1052 -0.1286
 9735TIP3    H250621   3.046   3.634   5.704 -0.3159 -0.1151  1.0760
 9736TIP3   OH250622   4.496   1.005  12.980 -0.0790 -0.5134  0.1678
 9736TIP3    H150623   4.403   0.987  12.971 -0.5340  1.3042  0.7572
 9736TIP3    H250624   4.500   1.095  13.013  1.8871 -0.4896 -0.0018
 9737TIP3   OH250625   1.360   0.141   5.536  0.4698  0.0305 -0.3138
 9737TIP3    H150626   1.351   0.097   5.451  1.8615  0.6119 -0.7932
 9737TIP3    H250627   1.358   0.234   5.514 -1.1586  0.2301  0.5427
 9738TIP3   OH250628   4.591   4.198   5.278 -0.0582 -0.1703 -0.7168
 9738TIP3    H150629   4.509   4.232   5.314 -0.5936 -0.0168 -2.0324
 9738TIP3    H250630   4.575   4.104   5.266  0.5026 -0.4370  0.4179
 9739TIP3   OH250631   5.573   2.694  17.014 -0.0333 -0.4565  0.4993
 9739TIP3    H150632   5.646   2.691  16.953  0.1810 -1.5069  0.7786
 9739TIP3    H250633   5.614   2.691  17.101 -0.3135  1.3465  0.7394
 9740TIP3   OH250634   1.578   1.725  12.025  0.2872 -0.1109 -0.0577
 9740TIP3    H150635   1.513   1.660  11.998 -0.2541  0.2841  0.2772
 9740TIP3    H250636   1.614   1.691  12.107 -0.0384  0.0401  0.1483
 9741TIP3   OH250637   1.259   1.803   4.530  0.1253 -0.0348  0.2482
 9741TIP3    H150638   1.243   1.831   4.620  1.1051  0.5222  0.2651
 9741TIP3    H250639   1.196   1.852   4.478 -0.0434  0.0913  0.5687
 9742TIP3   OH250640   2.425   4.874  13.423  0.0339  0.2481 -0.3407
 9742TIP3    H150641   2.457   4.897  13.510  0.3439  0.0918 -0.4106
 9742TIP3    H250642   2.375   4.793  13.436  1.9107 -1.0300 -0.6225
 9743TIP3   OH250643   4.174   5.211  14.641 -0.2133  0.1740  0.2539
 9743TIP3    H150644   4.174   5.275  14.570  1.2482 -1.4286 -1.3071
 9743TIP3    H250645   4.090   5.167  14.634 -0.0524 -0.0200 -0.5647
 9744TIP3   OH250646   1.841   4.767  12.153  0.0282  0.8061  0.2450
 9744TIP3    H150647   1.799   4.685  12.129  0.2687  0.5222  0.7707
 9744TIP3    H250648   1.821   4.827  12.081  2.1592 -0.4628 -1.5221
 9745TIP3   OH250649   2.794   3.523   5.879  0.6612 -0.0588  0.4579
 9745TIP3    H150650   2.794   3.603   5.931 -1.7027  1.5682 -1.7910
 9745TIP3    H250651   2.859   3.538   5.811 -1.3037  1.0692 -1.3081
 9746TIP3   OH250652   3.190   2.866   5.791 -0.5627  0.1722 -0.2508
 9746TIP3    H150653   3.117   2.816   5.827  0.2731 -0.8466  0.0841
 9746TIP3    H250654   3.207   2.934   5.856 -1.5551  0.7693 -0.5968
 9747TIP3   OH250655   3.925   0.483   1.810 -0.5216 -0.1737 -0.0269
 9747TIP3    H150656   3.900   0.491   1.902 -2.8730  0.1638 -0.6302
 9747TIP3    H250657   3.843   0.467   1.764  0.5908 -0.3059 -2.0852
 9748TIP3   OH250658   6.756   3.951   3.206  0.2055  0.1092  0.0849
 9748TIP3    H150659   6.813   3.933   3.131  1.0330  3.0503 -0.1345
 9748TIP3    H250660   6.805   4.015   3.259 -0.8346 -1.0022  2.5658
 9749TIP3   OH250661   2.375   3.537  12.892 -0.2475 -0.7142  0.2924
 9749TIP3    H150662   2.337   3.617  12.858  0.1340 -1.3126 -1.6418
 9749TIP3    H250663   2.350   3.536  12.984 -0.2794  1.5924  0.3660
 9750TIP3   OH250664   5.507   2.195   6.678 -0.6242  0.0477 -0.3143
 9750TIP3    H150665   5.558   2.219   6.601  0.5651 -2.0425 -0.2740
 9750TIP3    H250666   5.416   2.203   6.651 -0.2511  1.2818 -1.2766
 9751TIP3   OH250667   6.438   5.046  15.439  0.7108 -0.1720 -0.2278
 9751TIP3    H150668   6.364   4.988  15.455  0.1525  0.5782 -0.0488
 9751TIP3    H250669   6.404   5.113  15.379  1.2708  0.1209 -0.2290
 9752TIP3   OH250670   1.243   6.484  12.046 -0.5385  0.1993 -0.2241
 9752TIP3    H150671   1.230   6.433  11.966  1.1985  1.5639 -1.4779
 9752TIP3    H250672   1.207   6.571  12.025 -0.4208  0.4561  0.6107
 9753TIP3   OH250673   5.605   3.506   3.177 -0.1676  0.2973  0.1338
 9753TIP3    H150674   5.688   3.502   3.224 -0.4673 -2.6859  0.5575
 9753TIP3    H250675   5.563   3.422   3.195 -2.3619  0.9007 -1.7670
 9754TIP3   OH250676   3.089   6.666  13.776 -0.0891 -0.5060 -0.1385
 9754TIP3    H150677   3.177   6.628  13.771  0.5535 -0.1076  4.1458
 9754TIP3    H250678   3.030   6.591  13.774  0.7853 -1.3423  2.0812
 9755TIP3   OH250679   2.825   6.408  15.095  0.1851  0.1803  0.6749
 9755TIP3    H150680   2.831   6.371  15.183  0.1714  1.4519  1.2394
 9755TIP3    H250681   2.916   6.414  15.065  0.4202  2.0272  1.6259
 9756TIP3   OH250682   5.325   3.435   3.487  0.6308  0.0485  0.2920
 9756TIP3    H150683   5.315   3.530   3.478  0.8312 -0.0986 -2.1623
 9756TIP3    H250684   5.240   3.400   3.462  1.4808 -0.4739 -2.2175
 9757TIP3   OH250685   2.104   4.787  14.374  0.3539  0.6511 -0.0117
 9757TIP3    H150686   2.128   4.771  14.283  0.5278  0.2999  0.0958
 9757TIP3    H250687   2.181   4.762  14.424  0.0002  0.1431  0.2864
 9758TIP3   OH250688   0.845   0.909  12.490 -0.0612 -0.0696 -0.0745
 9758TIP3    H150689   0.759   0.919  12.530  0.6492 -0.8946  1.8219
 9758TIP3    H250690   0.828   0.896  12.397 -1.8470  1.5669 -0.0317
 9759TIP3   OH250691   0.670   0.190  14.827  0.2254 -0.1878  0.1707
 9759TIP3    H150692   0.667   0.263  14.765  2.6004  0.1014  0.3185
 9759TIP3    H250693   0.719   0.122  14.781  1.3173 -0.2732  1.4190
 9760TIP3   OH250694   6.383   1.984   4.708 -0.0481  0.3113  0.3661
 9760TIP3    H150695   6.374   1.972   4.613 -0.6824  0.5698  0.3923
 9760TIP3    H250696   6.299   2.018   4.736 -0.4089 -1.2152  1.2698
 9761TIP3   OH250697   2.724   4.974   0.280 -0.0125  0.1375  0.6269
 9761TIP3    H150698   2.807   4.995   0.323 -0.1238  0.0368  0.8963
 9761TIP3    H250699   2.681   4.913   0.340 -0.2323  0.1032  0.4363
 9762TIP3   OH250700   5.987   4.445   0.067  0.2638  0.2835 -0.5789
 9762TIP3    H150701   6.028   4.439   0.153 -0.9537  1.4837  0.1185
 9762TIP3    H250702   6.008   4.362   0.025  0.5622 -0.4840  1.0108
 9763TIP3   OH250703   1.294   5.017  13.802  0.2614 -0.0418  0.5553
 9763TIP3    H150704   1.249   5.038  13.884 -0.6089  1.2334 -0.2176
 9763TIP3    H250705   1.225   4.991  13.742  0.7578  0.2330 -0.1482
 9764TIP3   OH250706   4.493   1.437   0.975  0.5411 -0.4818  0.2503
 9764TIP3    H150707   4.448   1.362   1.014  0.4486  0.6247  2.4424
 9764TIP3    H250708   4.570   1.399   0.933  0.0535 -1.8833  0.5458
 9765TIP3   OH250709   6.105   2.987   4.714  0.2280 -0.0327 -0.1833
 9765TIP3    H150710   6.041   3.056   4.699  0.0029  0.0367  0.9761
 9765TIP3    H250711   6.063   2.907   4.683  0.5599  0.3565 -1.6950
 9766TIP3   OH250712   2.036   1.669   4.285  0.0376  0.5331 -0.3882
 9766TIP3    H150713   2.102   1.645   4.350  1.9288  2.3616 -1.5056
 9766TIP3    H250714   2.012   1.759   4.306 -0.3985  0.6610 -1.3543
 9767TIP3   OH250715   3.709   4.768  16.484  0.2535  0.0492 -0.0103
 9767TIP3    H150716   3.749   4.843  16.529  0.5208  0.7311 -1.3053
 9767TIP3    H250717   3.733   4.692  16.537 -2.0924  1.0611  2.7418
 9768TIP3   OH250718   3.475   0.492  13.528 -0.0393  0.0641 -0.2235
 9768TIP3    H150719   3.445   0.407  13.560 -0.3856  0.7261  1.2846
 9768TIP3    H250720   3.544   0.517  13.589  0.1237  0.8202 -0.7154
 9769TIP3   OH250721   3.459   6.130  13.917 -0.1420  0.5341 -0.3900
 9769TIP3    H150722   3.475   6.083  13.835  0.7683  0.8402 -0.4051
 9769TIP3    H250723   3.546   6.145  13.953 -0.5570 -0.0319  0.8978
 9770TIP3   OH250724   0.787   5.632  14.390 -0.1109  0.4693  0.6053
 9770TIP3    H150725   0.807   5.574  14.316  1.4648  1.6397  0.0732
 9770TIP3    H250726   0.692   5.642  14.387 -0.3549 -1.4711  0.2713
 9771TIP3   OH250727   2.778   2.326  10.398 -0.0889 -0.2470 -0.6434
 9771TIP3    H150728   2.819   2.249  10.358  0.5448  0.6974 -1.9064
 9771TIP3    H250729   2.851   2.374  10.437 -0.4900 -0.3198  0.1995
 9772TIP3   OH250730   5.498   5.081  12.044 -0.4257  0.1918 -0.2912
 9772TIP3    H150731   5.551   5.158  12.022  0.3553 -0.4686 -0.7746
 9772TIP3    H250732   5.441   5.068  11.969 -0.8136  0.5098 -0.0538
 9773TIP3   OH250733   1.388   5.393   0.831 -0.1997 -0.1689  0.5588
 9773TIP3    H150734   1.381   5.301   0.808 -0.8468  0.0487 -0.1399
 9773TIP3    H250735   1.303   5.431   0.809 -0.1199  0.4934  1.3278
 9774TIP3   OH250736   3.642   0.199   5.208 -0.9625  0.1630 -0.3657
 9774TIP3    H150737   3.612   0.127   5.264  0.0627 -1.0303 -1.2791
 9774TIP3    H250738   3.698   0.251   5.265  0.3801 -1.2552 -0.3173
 9775TIP3   OH250739   3.176   4.551  13.420  0.0754  0.8369 -0.2110
 9775TIP3    H150740   3.235   4.626  13.413  3.5891 -1.8644 -3.5270
 9775TIP3    H250741   3.205   4.505  13.499 -0.2820  1.5228  0.3301
 9776TIP3   OH250742   6.105   5.564  15.329  0.0195  0.1924  0.3483
 9776TIP3    H150743   6.064   5.503  15.391  1.1434 -0.2856  0.6442
 9776TIP3    H250744   6.181   5.598  15.376  1.0127 -0.3281 -0.8191
 9777TIP3   OH250745   5.911   5.944   6.564 -0.0571  0.1266  0.4301
 9777TIP3    H150746   5.996   5.915   6.597 -0.2027 -0.5753  0.1965
 9777TIP3    H250747   5.933   6.005   6.493  0.2992 -1.8905 -1.2903
 9778TIP3   OH250748   5.975   5.689   5.506  0.1960 -0.4278 -0.4749
 9778TIP3    H150749   6.042   5.635   5.464  1.6408  2.1356 -1.7631
 9778TIP3    H250750   5.991   5.680   5.599  1.0645 -1.3932 -0.7065
 9779TIP3   OH250751   0.031   2.660  11.657 -0.1498 -0.3278 -0.2939
 9779TIP3    H150752   0.036   2.621  11.570 -0.6653  0.3158 -0.6234
 9779TIP3    H250753   0.057   2.751  11.644 -1.6247  0.1497 -0.0420
 9780TIP3   OH250754   1.493   3.403  12.282  0.7539  0.9070  0.1563
 9780TIP3    H150755   1.408   3.444  12.297  0.2337  0.4931 -1.4804
 9780TIP3    H250756   1.472   3.317  12.246  1.8409  1.3384 -1.6446
 9781TIP3   OH250757   4.352   5.435  14.817 -0.3798  0.6320  0.8025
 9781TIP3    H150758   4.364   5.352  14.770 -0.8977  1.2718 -0.4984
 9781TIP3    H250759   4.385   5.417  14.905  1.7273 -0.2732 -0.1012
 9782TIP3   OH250760   0.761   1.569  12.231 -0.1065  0.3149 -0.2036
 9782TIP3    H150761   0.678   1.548  12.275  0.2594 -1.5762 -0.3383
 9782TIP3    H250762   0.823   1.505  12.267  1.2777  1.6265 -0.1961
 9783TIP3   OH250763   5.848   1.428  15.144  0.4006  0.0332 -0.0385
 9783TIP3    H150764   5.790   1.377  15.201  2.5626 -0.2922  2.0227
 9783TIP3    H250765   5.920   1.369  15.124  0.5647  0.7382 -1.7417
 9784TIP3   OH250766   5.490   2.339   3.559  0.0983  0.1156 -0.1693
 9784TIP3    H150767   5.488   2.368   3.650 -1.2465 -0.9205  0.1681
 9784TIP3    H250768   5.398   2.320   3.538  0.5953 -1.3118 -1.1791
 9785TIP3   OH250769   2.970   3.582   5.403 -0.1377  0.1479  0.1773
 9785TIP3    H150770   3.021   3.660   5.382  1.4947 -0.4755  1.5997
 9785TIP3    H250771   2.879   3.611   5.401  0.4933  2.7235  2.9051
 9786TIP3   OH250772   1.105   4.513  14.487  0.0954 -0.2259 -0.1318
 9786TIP3    H150773   1.181   4.572  14.488  0.3268 -0.5271  0.3840
 9786TIP3    H250774   1.104   4.474  14.575 -1.1931  0.4588  0.1765
 9787TIP3   OH250775   4.433   4.119  14.332 -0.1549  0.5725 -0.3107
 9787TIP3    H150776   4.396   4.041  14.292  0.0985 -0.6223  1.6327
 9787TIP3    H250777   4.528   4.107  14.327 -0.1166  0.4872  0.4360
 9788TIP3   OH250778   2.070   5.290  12.049  0.9465 -0.0957 -0.0486
 9788TIP3    H150779   2.128   5.214  12.043  0.3518 -0.4433 -2.2285
 9788TIP3    H250780   1.986   5.253  12.078  0.0682 -0.7377 -3.0156
 9789TIP3   OH250781   5.778   1.390  12.743  0.6575 -0.2914 -0.0904
 9789TIP3    H150782   5.682   1.388  12.740  0.6422  0.8084 -1.1275
 9789TIP3    H250783   5.802   1.309  12.788 -0.7509 -0.7305 -0.0743
 9790TIP3   OH250784   5.293   4.544   3.884 -0.6703  0.5924 -0.1403
 9790TIP3    H150785   5.328   4.618   3.834 -0.4901  0.7568  0.2256
 9790TIP3    H250786   5.363   4.479   3.884 -0.8669  0.3809 -0.5475
 9791TIP3   OH250787   0.140   4.036   5.331 -0.3041 -0.3924 -0.4893
 9791TIP3    H150788   0.193   4.081   5.397 -0.1311  1.6153 -1.9196
 9791TIP3    H250789   0.053   4.031   5.371  0.0158 -0.0974  0.2834
 9792TIP3   OH250790   2.849   2.535  14.214 -0.4085 -0.1823 -0.7296
 9792TIP3    H150791   2.887   2.617  14.184 -0.6463  0.5321  0.8561
 9792TIP3    H250792   2.768   2.526  14.164 -0.3186  0.4800 -0.9975
 9793TIP3   OH250793   5.814   2.565  15.250  0.5458 -0.0794 -0.3247
 9793TIP3    H150794   5.857   2.521  15.323  1.4780 -0.3243 -0.9931
 9793TIP3    H250795   5.721   2.566  15.273  1.0644  2.3846  2.1800
 9794TIP3   OH250796   5.049   2.585   2.679  0.2855  0.2661  0.1696
 9794TIP3    H150797   5.022   2.673   2.703  1.5967  0.9776 -0.8295
 9794TIP3    H250798   4.967   2.538   2.662 -0.5350  0.6002  2.8649
 9795TIP3   OH250799   6.322   3.202  15.411 -0.2094  0.4180  0.0113
 9795TIP3    H150800   6.346   3.186  15.502 -0.5965  1.5531  0.3202
 9795TIP3    H250801   6.375   3.139  15.362 -0.3504 -0.5335  1.0415
 9796TIP3   OH250802   6.772   1.749  14.541  0.5505  0.4619 -0.5483
 9796TIP3    H150803   6.731   1.663  14.539  1.4322  0.0329 -1.1668
 9796TIP3    H250804   6.796   1.766  14.449  2.6052  0.2344 -0.1129
 9797TIP3   OH250805   4.341   0.343   1.106  0.0960 -0.4036  0.3303
 9797TIP3    H150806   4.388   0.374   1.028 -1.3648  0.9238 -0.0846
 9797TIP3    H250807   4.364   0.405   1.174 -0.5121 -0.1475  0.3043
 9798TIP3   OH250808   6.134   6.410  13.781 -0.1201 -0.1713 -0.3698
 9798TIP3    H150809   6.212   6.368  13.744  0.0338 -1.4842  1.3372
 9798TIP3    H250810   6.083   6.338  13.818 -0.0800  1.0358  2.2638
 9799TIP3   OH250811   0.859   5.375   2.966  0.1034  0.1465 -0.0301
 9799TIP3    H150812   0.813   5.349   3.046 -0.3723 -0.5450 -0.5164
 9799TIP3    H250813   0.810   5.451   2.935 -0.2633 -0.1342 -0.1450
 9800TIP3   OH250814   5.417   6.016   2.424 -0.3352  0.2652  0.7124
 9800TIP3    H150815   5.400   6.046   2.335 -2.5376 -1.5803  0.4234
 9800TIP3    H250816   5.358   6.067   2.479  0.8468  1.2284  1.1404
 9801TIP3   OH250817   2.250   3.891  14.076  0.0655  0.0603 -0.2529
 9801TIP3    H150818   2.191   3.892  14.151  0.9949  0.6601  0.4810
 9801TIP3    H250819   2.305   3.968  14.087  0.2041  0.1730 -1.5668
 9802TIP3   OH250820   2.071   3.297   0.175  0.0499  0.0356 -0.1112
 9802TIP3    H150821   2.066   3.205   0.151  0.9693  0.0112 -0.2269
 9802TIP3    H250822   2.006   3.307   0.244  0.2048 -0.7780  0.1573
 9803TIP3   OH250823   6.578   5.380  15.387 -0.0056 -0.4169  0.0712
 9803TIP3    H150824   6.528   5.325  15.326  1.6743  0.9455 -2.7071
 9803TIP3    H250825   6.668   5.350  15.379  0.9548  2.4546 -1.4337
 9804TIP3   OH250826   6.668   5.211   3.250 -0.1445  0.5733 -0.0117
 9804TIP3    H150827   6.582   5.253   3.252 -0.0006  0.8545  0.6756
 9804TIP3    H250828   6.725   5.274   3.207  0.4138  1.8018  2.3741
 9805TIP3   OH250829   6.566   5.533   2.982 -0.3628  0.0026 -0.0215
 9805TIP3    H150830   6.573   5.570   2.894 -2.2112 -0.9377 -0.6144
 9805TIP3    H250831   6.548   5.608   3.039 -0.8635  0.4117 -0.7104
 9806TIP3   OH250832   6.773   3.751   5.183  0.4438  0.1538 -0.6105
 9806TIP3    H150833   6.867   3.765   5.197  0.0671  1.9915  0.3796
 9806TIP3    H250834   6.743   3.707   5.263  0.6466 -1.6242 -1.4626
 9807TIP3   OH250835   3.523   5.789  10.766  0.1846  0.2871  0.1042
 9807TIP3    H150836   3.466   5.862  10.788  1.1141  1.0830 -0.0421
 9807TIP3    H250837   3.525   5.787  10.670 -0.6537 -0.6017  0.0904
 9808TIP3   OH250838   4.456   5.077   3.722 -0.4237  0.3220  0.0402
 9808TIP3    H150839   4.420   5.114   3.640  1.6140 -0.1215 -1.1108
 9808TIP3    H250840   4.521   5.141   3.750  1.0945 -0.9687 -0.4095
 9809TIP3   OH250841   2.842   0.159  12.514  0.1647  0.5079  0.4728
 9809TIP3    H150842   2.877   0.071  12.526  0.4287  0.4552 -0.5745
 9809TIP3    H250843   2.747   0.145  12.503  0.1558  0.3938  0.6906
 9810TIP3   OH250844   6.229   3.569  16.360  0.1711  0.5220  0.0115
 9810TIP3    H150845   6.223   3.622  16.439  0.8715  0.7532 -0.0882
 9810TIP3    H250846   6.195   3.625  16.290  0.5464  0.6978 -0.0292
 9811TIP3   OH250847   4.279   4.718   2.903 -0.8206  0.5467 -0.3169
 9811TIP3    H150848   4.233   4.801   2.916 -0.6087  0.7858 -1.0250
 9811TIP3    H250849   4.365   4.732   2.943 -0.7686  0.6842 -0.4761
 9812TIP3   OH250850   1.443   2.481  14.291 -0.0273 -0.1133 -0.0294
 9812TIP3    H150851   1.431   2.500  14.384  1.4476 -1.8060  0.5743
 9812TIP3    H250852   1.441   2.566  14.248  1.6044  0.9572  1.8481
 9813TIP3   OH250853   4.042   2.706  17.163 -0.0246 -0.4899 -0.2723
 9813TIP3    H150854   4.090   2.673  17.087 -0.8901 -0.3481 -0.8992
 9813TIP3    H250855   4.110   2.720  17.230  0.6026 -1.6705 -0.6336
 9814TIP3   OH250856   5.884   6.160  15.084  0.0124  0.6319  0.1404
 9814TIP3    H150857   5.801   6.204  15.065 -0.5043  0.4576  1.8269
 9814TIP3    H250858   5.866   6.108  15.162  0.4372 -3.0736 -2.0189
 9815TIP3   OH250859   4.327   1.256  14.630 -0.3035 -0.4637 -0.0280
 9815TIP3    H150860   4.375   1.338  14.645 -1.1016 -0.0813  0.5106
 9815TIP3    H250861   4.307   1.257  14.537 -0.1330 -0.1432 -0.0651
 9816TIP3   OH250862   3.904   5.349  14.815  0.4218 -0.6819  0.1304
 9816TIP3    H150863   3.855   5.349  14.897  1.1782 -2.0743  0.6206
 9816TIP3    H250864   3.950   5.433  14.813 -1.5919  0.4928 -0.1483
 9817TIP3   OH250865   0.553   3.010  12.334 -0.3660 -0.0682  0.2349
 9817TIP3    H150866   0.621   3.014  12.267 -0.6789 -0.4699 -0.1142
 9817TIP3    H250867   0.598   2.978  12.412  0.3661  1.9315  0.7176
 9818TIP3   OH250868   3.820   5.240   6.116  0.1613 -0.1095 -0.2710
 9818TIP3    H150869   3.790   5.315   6.167 -1.3769 -0.3551 -0.7674
 9818TIP3    H250870   3.899   5.211   6.161  0.6920  1.6689  0.0461
 9819TIP3   OH250871   3.868   0.933   0.560  0.0976  0.0498  0.1302
 9819TIP3    H150872   3.898   0.843   0.551  1.9552  0.7056 -0.9889
 9819TIP3    H250873   3.844   0.959   0.471  1.0707  1.0885  0.1425
 9820TIP3   OH250874   4.958   3.603  11.849  0.3311 -0.5595 -0.2375
 9820TIP3    H150875   4.917   3.525  11.812  3.0234 -2.0567 -0.2812
 9820TIP3    H250876   5.040   3.572  11.886  0.3966  1.8840  1.9329
 9821TIP3   OH250877   5.029   5.796  13.667 -1.1132  0.9188 -0.1703
 9821TIP3    H150878   4.983   5.754  13.594 -0.2343 -1.3370  0.4901
 9821TIP3    H250879   5.088   5.858  13.626 -0.3814 -0.5569 -1.4617
 9822TIP3   OH250880   1.278   4.813   6.664  0.0920 -0.1337 -0.5849
 9822TIP3    H150881   1.363   4.776   6.640 -0.0013  0.1540 -1.3742
 9822TIP3    H250882   1.280   4.902   6.630 -0.1083  0.2484  0.3555
 9823TIP3   OH250883   6.744   6.296   3.264 -0.6937 -0.5463 -0.0062
 9823TIP3    H150884   6.685   6.300   3.339 -0.0082 -0.0897  0.5306
 9823TIP3    H250885   6.728   6.378   3.217 -0.8266 -0.6399 -0.1224
 9824TIP3   OH250886   0.221   1.644  12.257 -0.0069  0.1877  0.0494
 9824TIP3    H150887   0.158   1.652  12.185 -0.9300  1.4882  0.9524
 9824TIP3    H250888   0.278   1.720  12.247  1.3852 -0.9259 -0.6947
 9825TIP3   OH250889   1.404   5.258   5.618  0.3096 -0.2190 -0.1948
 9825TIP3    H150890   1.500   5.251   5.616  0.3364 -0.6979  1.3975
 9825TIP3    H250891   1.376   5.184   5.671 -0.8358  0.7446  0.5879
 9826TIP3   OH250892   0.473   4.975   3.119  0.0117 -0.3742  0.1471
 9826TIP3    H150893   0.531   4.899   3.118 -0.3394 -0.6427  0.3332
 9826TIP3    H250894   0.445   4.983   3.211 -3.8653 -2.9903 -0.5815
 9827TIP3   OH250895   5.132   0.280   1.388 -0.0076  0.0328  0.1683
 9827TIP3    H150896   5.191   0.346   1.351  0.3297  0.0577  0.7330
 9827TIP3    H250897   5.074   0.256   1.316 -0.1544  0.9639 -0.0394
 9828TIP3   OH250898   2.249   0.728  16.574 -0.1552  0.4350  0.0635
 9828TIP3    H150899   2.329   0.737  16.625  0.8552 -2.3343 -0.8441
 9828TIP3    H250900   2.215   0.642  16.598 -2.7997  1.4536  0.2591
 9829TIP3   OH250901   4.112   3.596   4.738  0.0453 -0.2762  0.9819
 9829TIP3    H150902   4.110   3.614   4.832 -1.4963 -1.3166  1.1830
 9829TIP3    H250903   4.123   3.682   4.698  0.7275  0.1845  2.1121
 9830TIP3   OH250904   3.479   0.065  16.073  0.3010  0.1456  0.6493
 9830TIP3    H150905   3.496   0.148  16.117  0.8604 -0.2526  1.2009
 9830TIP3    H250906   3.490   0.085  15.980 -1.8881  1.2309  0.5619
 9831TIP3   OH250907   6.353   0.454  15.520 -0.1119  1.0220  0.3761
 9831TIP3    H150908   6.378   0.405  15.598  0.1711  1.2977  0.4591
 9831TIP3    H250909   6.312   0.389  15.463  2.8588  0.0090 -0.8061
 9832TIP3   OH250910   5.329   0.613   0.448  0.3233  0.5610 -0.1714
 9832TIP3    H150911   5.303   0.538   0.394  1.5353  0.0540 -0.0749
 9832TIP3    H250912   5.248   0.640   0.492 -0.2023 -0.4761 -0.4685
 9833TIP3   OH250913   0.200   2.606  16.513  0.4557 -0.3377  0.1453
 9833TIP3    H150914   0.238   2.693  16.524  2.2620 -0.9454 -0.8961
 9833TIP3    H250915   0.263   2.547  16.556 -0.2465 -1.2235 -0.0192
 9834TIP3   OH250916   1.826   0.463   3.115 -0.2473 -0.1676 -0.0808
 9834TIP3    H150917   1.806   0.538   3.170  0.8548  0.4678 -0.5132
 9834TIP3    H250918   1.922   0.461   3.112 -0.1297 -2.9218  1.7499
 9835TIP3   OH250919   1.223   0.922  13.060 -0.1485 -0.2859 -0.2208
 9835TIP3    H150920   1.141   0.895  13.020 -0.3217 -0.2330  0.0871
 9835TIP3    H250921   1.267   0.841  13.083  0.2889 -0.3294 -1.1697
 9836TIP3   OH250922   6.704   2.207  10.947  0.3377 -0.9477  0.4116
 9836TIP3    H150923   6.699   2.302  10.950 -0.3773 -0.9992  1.5521
 9836TIP3    H250924   6.664   2.184  10.863  2.6821 -0.1716 -1.0181
 9837TIP3   OH250925   1.137   0.819  15.351 -0.7773  0.1397  0.1968
 9837TIP3    H150926   1.163   0.730  15.377  1.8456 -0.1694 -2.7939
 9837TIP3    H250927   1.042   0.815  15.347 -0.7792 -2.4315  0.6262
 9838TIP3   OH250928   2.782   6.244   1.103 -0.4926 -0.3133 -0.6658
 9838TIP3    H150929   2.789   6.175   1.170  0.5343 -0.8907 -1.3517
 9838TIP3    H250930   2.736   6.202   1.030  1.8383 -0.9252 -1.8691
 9839TIP3   OH250931   0.492   0.840   5.157 -0.3419 -0.5992 -0.3767
 9839TIP3    H150932   0.587   0.855   5.148 -0.8114  1.7557 -2.5699
 9839TIP3    H250933   0.458   0.850   5.068 -2.8878  0.5617  0.6438
 9840TIP3   OH250934   3.038   1.409  13.944  0.2904  0.1359 -0.2489
 9840TIP3    H150935   3.075   1.434  14.028 -0.9421  0.5709  0.1760
 9840TIP3    H250936   3.042   1.313  13.944 -1.6449  0.0155  1.2363
 9841TIP3   OH250937   5.722   0.353   0.678 -0.0864  0.1742  0.4950
 9841TIP3    H150938   5.669   0.432   0.671  2.0061  1.9410  2.7072
 9841TIP3    H250939   5.754   0.337   0.589 -0.2224  2.0869  0.0632
 9842TIP3   OH250940   6.690   6.745  14.287  0.1814  0.3285 -0.4318
 9842TIP3    H150941   6.732   6.770  14.370 -0.4868 -2.6292  0.9327
 9842TIP3    H250942   6.755   6.690  14.243 -0.0691  0.5692 -1.1019
 9843TIP3   OH250943   6.533   4.942  12.187 -0.0803 -0.0370 -0.1505
 9843TIP3    H150944   6.540   4.975  12.277  0.0115 -0.3143 -0.0548
 9843TIP3    H250945   6.552   5.018  12.132 -0.4456  0.2072  0.0612
 9844TIP3   OH250946   1.956   1.205  10.764  0.5523  0.1609  0.4585
 9844TIP3    H150947   1.954   1.286  10.713  1.5232 -0.1644 -0.1172
 9844TIP3    H250948   1.896   1.221  10.836  0.5740  1.3232  0.2392
 9845TIP3   OH250949   5.684   6.547   4.805 -0.4215 -0.1530  0.1628
 9845TIP3    H150950   5.622   6.507   4.864 -0.1429  0.4169  0.8603
 9845TIP3    H250951   5.735   6.607   4.860  1.8934 -1.8233 -0.0060
 9846TIP3   OH250952   4.395   3.805   2.198  0.0793 -0.6588  0.2551
 9846TIP3    H150953   4.304   3.822   2.176 -0.0741 -1.3317  0.3568
 9846TIP3    H250954   4.443   3.878   2.158 -0.4589 -0.5099 -0.1330
 9847TIP3   OH250955   5.124   5.170  13.846 -0.2378  0.2679  0.1916
 9847TIP3    H150956   5.119   5.248  13.791 -0.5343  1.3796  1.7243
 9847TIP3    H250957   5.192   5.190  13.911  1.3006 -1.6582 -0.7011
 9848TIP3   OH250958   3.210   2.204   3.099  0.0495  0.0434 -0.8283
 9848TIP3    H150959   3.148   2.172   3.034  1.1306 -2.8616 -0.6022
 9848TIP3    H250960   3.239   2.125   3.145  1.5446  1.6525  1.1908
 9849TIP3   OH250961   0.444   0.191  15.007 -0.2996  0.1849 -0.0907
 9849TIP3    H150962   0.513   0.206  14.943  2.3757 -1.1571  2.2566
 9849TIP3    H250963   0.391   0.121  14.969  0.5750  0.1352 -1.2747
 9850TIP3   OH250964   5.124   2.966  13.088 -0.3634  0.1803 -0.1328
 9850TIP3    H150965   5.102   2.876  13.064  0.1020  0.6110 -2.3732
 9850TIP3    H250966   5.219   2.971  13.079 -0.2199  0.5846  1.2748
 9851TIP3   OH250967   3.320   0.645  11.534 -0.1663 -0.2264 -0.5676
 9851TIP3    H150968   3.333   0.564  11.583 -1.4820  0.5731  1.1864
 9851TIP3    H250969   3.396   0.699  11.555 -0.7116  0.1019  0.6092
 9852TIP3   OH250970   5.733   5.627   4.468  0.1308 -0.0253  0.0654
 9852TIP3    H150971   5.708   5.543   4.429 -0.8836  0.4663 -0.4101
 9852TIP3    H250972   5.670   5.689   4.430  0.1431  0.7457  1.2717
 9853TIP3   OH250973   0.124   1.907   3.925 -0.0626  0.3464  0.5058
 9853TIP3    H150974   0.174   1.913   3.844  1.9016 -0.5402  1.5822
 9853TIP3    H250975   0.120   1.997   3.958  1.1637  0.3986  0.5640
 9854TIP3   OH250976   0.504   3.625  14.652 -0.4835  0.4641 -0.0040
 9854TIP3    H150977   0.585   3.578  14.671 -1.0589 -0.0315  1.2620
 9854TIP3    H250978   0.469   3.581  14.575  1.1061  1.5488 -1.4368
 9855TIP3   OH250979   2.807   2.103   5.001  0.3826 -0.4673 -0.2475
 9855TIP3    H150980   2.727   2.133   4.959  0.6078 -1.7401 -1.6665
 9855TIP3    H250981   2.843   2.181   5.044 -0.9087  0.4109 -0.7179
 9856TIP3   OH250982   5.939   1.547  15.748 -0.0163 -0.0594 -0.0045
 9856TIP3    H150983   5.944   1.545  15.653  2.3486 -1.7207  0.0617
 9856TIP3    H250984   5.883   1.473  15.771 -0.1150 -0.0099 -0.0834
 9857TIP3   OH250985   0.944   4.534   0.533  0.1113  0.4737  0.4502
 9857TIP3    H150986   0.991   4.498   0.458 -1.5322 -0.8333 -0.0201
 9857TIP3    H250987   0.859   4.491   0.531 -0.8866  2.2346  1.6465
 9858TIP3   OH250988   6.753   2.366  10.534 -0.2756 -0.0419  0.2831
 9858TIP3    H150989   6.675   2.401  10.579  0.0928  2.6586 -1.0312
 9858TIP3    H250990   6.788   2.301  10.596 -1.6112  1.1694  2.4622
 9859TIP3   OH250991   4.170   3.581  13.468 -0.1770  0.1219  0.2664
 9859TIP3    H150992   4.207   3.663  13.501 -1.5736  0.5227  0.9188
 9859TIP3    H250993   4.150   3.530  13.547 -0.9667 -0.0768 -0.0465
 9860TIP3   OH250994   2.972   1.134  13.137  0.2843 -0.1228  0.0698
 9860TIP3    H150995   2.995   1.075  13.065  1.5391 -1.0179  1.1558
 9860TIP3    H250996   2.898   1.092  13.180 -1.0658  0.8689 -1.1881
 9861TIP3   OH250997   6.700   2.097  12.327  0.7378 -0.9156 -0.0024
 9861TIP3    H150998   6.648   2.025  12.290  1.9608 -1.1381 -1.3942
 9861TIP3    H250999   6.651   2.125  12.404 -1.6477 -0.8350 -1.4466
 9862TIP3   OH251000   3.047   2.323  12.879  0.2507 -0.1841  0.5335
 9862TIP3    H151001   3.045   2.349  12.971  2.1822  0.6064  0.3834
 9862TIP3    H251002   3.047   2.228  12.881  0.1589 -0.1747  1.3386
 9863TIP3   OH251003   1.651   2.759   3.372  0.0627  0.0371 -0.2716
 9863TIP3    H151004   1.565   2.773   3.331  1.0286  2.7336 -1.6677
 9863TIP3    H251005   1.710   2.816   3.323  2.5626 -1.2328  1.0639
 9864TIP3   OH251006   6.105   3.461   1.573 -0.2457  0.3215  0.3792
 9864TIP3    H151007   6.135   3.392   1.514  3.3388  1.5568  0.5145
 9864TIP3    H251008   6.053   3.519   1.518  1.5165  0.5049 -1.1929
 9865TIP3   OH251009   1.559   0.117  16.301  0.4770 -0.0499 -0.0141
 9865TIP3    H151010   1.574   0.166  16.220 -0.5498 -0.2770 -0.3602
 9865TIP3    H251011   1.569   0.183  16.370  3.8005 -0.3383 -0.0785
 9866TIP3   OH251012   2.963   2.809  14.178  0.0911  0.0291 -0.0424
 9866TIP3    H151013   3.046   2.837  14.139  0.4202  0.3937  0.8628
 9866TIP3    H251014   2.973   2.831  14.271 -1.3343  0.8257 -0.0504
 9867TIP3   OH251015   2.982   0.437   1.349  0.0055  0.0588  0.3472
 9867TIP3    H151016   2.988   0.353   1.304  0.6789  0.1681  0.2217
 9867TIP3    H251017   2.950   0.415   1.437  1.6424 -0.5319  0.8468
 9868TIP3   OH251018   5.605   2.815  15.469  0.0827  0.8181 -0.0985
 9868TIP3    H151019   5.670   2.869  15.425 -0.4511  0.6909 -1.0897
 9868TIP3    H251020   5.570   2.758  15.400 -1.4940  1.2952  0.2567
 9869TIP3   OH251021   1.999   0.861   3.012 -0.5523 -0.1381 -0.7204
 9869TIP3    H151022   1.954   0.889   3.091  1.7939  1.0444  0.2952
 9869TIP3    H251023   1.974   0.925   2.946  0.9005  1.5837  0.2957
 9870TIP3   OH251024   0.607   4.618  14.324  0.4444 -0.6078  0.4553
 9870TIP3    H151025   0.680   4.630  14.385  0.9866 -0.3036 -0.2418
 9870TIP3    H251026   0.534   4.589  14.379  0.3859  1.4282  1.5609
 9871TIP3   OH251027   2.029   4.589   5.823 -0.8168  0.0226  0.1248
 9871TIP3    H151028   1.989   4.533   5.757  0.6737 -0.6273 -0.2637
 9871TIP3    H251029   2.103   4.630   5.779 -0.6293  0.6643  1.0024
 9872TIP3   OH251030   4.567   2.610  10.883 -0.3836  0.0398 -0.3950
 9872TIP3    H151031   4.545   2.681  10.944 -0.2718  0.1871 -0.5250
 9872TIP3    H251032   4.565   2.652  10.797  2.7187  0.6739 -0.2760
 9873TIP3   OH251033   6.485   0.702  11.985  0.4440 -0.5129  0.6252
 9873TIP3    H151034   6.478   0.678  11.893 -1.1528  0.2516  0.5056
 9873TIP3    H251035   6.558   0.763  11.989  0.4725 -0.4918 -0.1447
 9874TIP3   OH251036   4.207   5.310  12.132  0.7116  0.3143  0.2476
 9874TIP3    H151037   4.266   5.365  12.184  0.0905  0.1856  1.1058
 9874TIP3    H251038   4.154   5.372  12.081  0.1432  0.5126  1.0688
 9875TIP3   OH251039   2.617   1.165  16.945  0.1706 -0.0948  0.4228
 9875TIP3    H151040   2.629   1.243  16.891  0.2443  0.1088  0.7288
 9875TIP3    H251041   2.553   1.192  17.011 -2.0500 -1.1438 -1.1710
 9876TIP3   OH251042   3.854   1.060  16.703  0.2312 -0.3238  0.3590
 9876TIP3    H151043   3.762   1.050  16.725 -0.0059 -1.7319 -1.0974
 9876TIP3    H251044   3.865   1.153  16.684  0.1559  0.7682  4.6663
 9877TIP3   OH251045   1.146   5.994   3.831  0.0600  0.0363 -0.5190
 9877TIP3    H151046   1.235   5.995   3.794 -0.1698 -0.6984 -1.1231
 9877TIP3    H251047   1.115   5.905   3.816 -0.3551 -0.0484  0.7498
 9878TIP3   OH251048   4.160   2.591   2.749  0.5428 -0.3529  0.0468
 9878TIP3    H151049   4.159   2.659   2.682  0.7603  0.9599  1.3262
 9878TIP3    H251050   4.249   2.556   2.747  0.3047 -0.9273 -0.9155
 9879TIP3   OH251051   4.848   5.637   3.975 -0.2898  0.0197 -0.5436
 9879TIP3    H151052   4.811   5.559   4.016 -1.0845  0.1467 -0.9891
 9879TIP3    H251053   4.818   5.709   4.030  1.7764 -0.0665  0.8131
 9880TIP3   OH251054   5.957   6.040  12.836 -0.1511 -0.5613  0.6448
 9880TIP3    H151055   5.955   6.134  12.816 -0.2154 -1.2056 -2.9387
 9880TIP3    H251056   5.916   6.033  12.922  0.0675  2.7026  1.1268
 9881TIP3   OH251057   2.620   2.255   3.994 -0.0179  0.1355 -0.0804
 9881TIP3    H151058   2.568   2.335   3.985 -1.8830 -1.1082 -0.9632
 9881TIP3    H251059   2.623   2.239   4.089  1.0144  1.5953  0.1745
 9882TIP3   OH251060   1.498   4.141   5.228 -0.7359 -0.2655 -0.3860
 9882TIP3    H151061   1.556   4.212   5.256 -2.4390  1.7584 -1.6351
 9882TIP3    H251062   1.421   4.150   5.285 -1.0826 -0.9739 -0.7277
 9883TIP3   OH251063   4.958   0.086  15.900  0.0378  0.1109 -0.5942
 9883TIP3    H151064   5.045   0.048  15.897  0.0900  0.2139 -0.3897
 9883TIP3    H251065   4.955   0.135  15.982 -1.0340 -1.8919  0.6614
 9884TIP3   OH251066   4.516   6.144   4.474 -0.1649  0.0108 -0.1897
 9884TIP3    H151067   4.496   6.238   4.472  0.2600  0.1271 -2.7036
 9884TIP3    H251068   4.579   6.132   4.403  0.1603 -2.1113  0.4087
 9885TIP3   OH251069   5.833   6.008  13.086  0.5905  0.3275 -0.5827
 9885TIP3    H151070   5.858   5.916  13.082  2.9423  0.7016  2.2060
 9885TIP3    H251071   5.739   6.007  13.105  0.2184 -1.4123 -2.3137
 9886TIP3   OH251072   5.442   6.623  10.733 -0.4967 -0.2728 -0.1132
 9886TIP3    H151073   5.431   6.533  10.701  1.1095 -0.0760 -1.3901
 9886TIP3    H251074   5.470   6.672  10.656  0.5962  0.8979  0.9858
 9887TIP3   OH251075   0.778   3.476  15.292  0.1080  0.3119 -1.1200
 9887TIP3    H151076   0.824   3.550  15.333  0.0103  0.2493 -0.8944
 9887TIP3    H251077   0.768   3.412  15.362 -0.3519  0.3367 -1.1570
 9888TIP3   OH251078   1.136   6.513   3.844 -0.0810 -0.9107 -0.3812
 9888TIP3    H151079   1.134   6.560   3.761 -1.7998  4.6562  2.3098
 9888TIP3    H251080   1.227   6.520   3.873 -0.3012  1.1464 -0.0143
 9889TIP3   OH251081   2.140   4.524   0.854 -0.0225 -0.7131 -0.2924
 9889TIP3    H151082   2.149   4.618   0.868 -0.1496 -0.6920 -0.3487
 9889TIP3    H251083   2.101   4.491   0.935  0.2307 -0.7511 -0.1856
 9890TIP3   OH251084   5.413   4.779  16.073  0.5387 -0.5598 -0.2728
 9890TIP3    H151085   5.479   4.710  16.068 -0.6006 -1.5649 -3.3394
 9890TIP3    H251086   5.336   4.736  16.112  1.4310  0.5646  3.1258
 9891TIP3   OH251087   6.004   0.768  13.122  0.1771  1.1340 -0.2231
 9891TIP3    H151088   6.069   0.702  13.098 -0.3930  0.3207  0.4277
 9891TIP3    H251089   6.026   0.792  13.212  0.0503  1.4259 -0.2699
 9892TIP3   OH251090   5.105   4.819  16.414 -0.3863 -0.1058 -0.4313
 9892TIP3    H151091   5.163   4.892  16.397 -0.7825 -0.0078 -1.4589
 9892TIP3    H251092   5.146   4.771  16.485  1.0975 -0.1961 -1.3102
 9893TIP3   OH251093   6.310   0.878   4.281  0.3824  0.3821  0.5806
 9893TIP3    H151094   6.397   0.893   4.316  0.2306  3.5932 -0.1497
 9893TIP3    H251095   6.267   0.963   4.285 -2.8633 -1.1232  1.1605
 9894TIP3   OH251096   1.678   3.890   4.388 -0.2082 -0.2563  0.2331
 9894TIP3    H151097   1.737   3.940   4.444 -1.4872  1.2436  0.2904
 9894TIP3    H251098   1.627   3.956   4.342  1.0439 -1.3716 -3.0781
 9895TIP3   OH251099   5.422   3.238  11.648  0.5307 -0.0031 -0.0151
 9895TIP3    H151100   5.493   3.248  11.584 -0.6611  1.5328 -1.1740
 9895TIP3    H251101   5.365   3.171  11.611 -1.1811  2.2163 -1.6602
 9896TIP3   OH251102   0.448   3.997   4.128 -0.0879 -0.4751  0.5690
 9896TIP3    H151103   0.394   3.992   4.206  0.9369  0.3034  1.3501
 9896TIP3    H251104   0.538   4.001   4.160  0.3216  0.6166 -0.6028
 9897TIP3   OH251105   0.025   3.957  14.536  0.4090  0.2724  0.2293
 9897TIP3    H151106   0.006   3.939  14.444 -1.7688  1.7220  0.3262
 9897TIP3    H251107  -0.005   3.878  14.582 -0.6025  0.4273 -0.1271
 9898TIP3   OH251108   1.244   1.624   2.496  0.9570  0.1274 -0.0718
 9898TIP3    H151109   1.290   1.699   2.458  1.2969  0.8351  1.6474
 9898TIP3    H251110   1.181   1.663   2.556 -1.1639 -0.8785 -1.5260
 9899TIP3   OH251111   1.275   1.839   1.643 -0.7184  0.1341 -0.0045
 9899TIP3    H151112   1.360   1.795   1.635  0.0044  0.9887  2.2076
 9899TIP3    H251113   1.222   1.803   1.572  1.2350 -1.0060 -0.9570
 9900TIP3   OH251114   6.489   4.633  14.980 -0.3956 -0.6815 -0.4415
 9900TIP3    H151115   6.397   4.643  15.004 -0.2241  0.1885 -0.1074
 9900TIP3    H251116   6.490   4.636  14.884 -0.6661 -0.1972 -0.4298
 9901TIP3   OH251117   0.805   2.954  11.546 -0.7375 -0.3491  0.5976
 9901TIP3    H151118   0.829   3.009  11.471  0.4121 -1.7963 -0.1420
 9901TIP3    H251119   0.786   3.017  11.616 -0.9521  1.0140 -0.6283
 9902TIP3   OH251120   4.399   1.460  14.116 -0.2326 -0.2043 -0.0376
 9902TIP3    H151121   4.409   1.381  14.063  2.4644  0.5255 -0.8051
 9902TIP3    H251122   4.483   1.506  14.107 -1.8350  3.0400 -0.0767
 9903TIP3   OH251123   1.885   3.789   1.044 -0.1845 -0.2537 -0.0456
 9903TIP3    H151124   1.891   3.823   1.133 -1.4359  0.1390 -0.0899
 9903TIP3    H251125   1.975   3.767   1.020  0.3837  1.1191  0.7284
 9904TIP3   OH251126   2.871   1.026  16.275 -0.2409 -0.7198 -0.0645
 9904TIP3    H151127   2.805   1.075  16.323  0.2208 -1.3298  1.2409
 9904TIP3    H251128   2.855   1.047  16.183 -0.1375  1.7940  0.4240
 9905TIP3   OH251129   5.843   3.915   0.537  0.0996  0.2342 -0.2854
 9905TIP3    H151130   5.919   3.971   0.554 -0.9184  1.2793  1.0695
 9905TIP3    H251131   5.849   3.896   0.443  2.8110 -0.9698  0.0483
 9906TIP3   OH251132   2.373   2.349  10.755  0.8815 -0.2445 -0.1799
 9906TIP3    H151133   2.308   2.418  10.767  1.3566  0.0929  0.4950
 9906TIP3    H251134   2.394   2.353  10.661  1.2018  0.8126 -0.0820
 9907TIP3   OH251135   2.559   6.007   5.228 -0.0459 -0.8337  0.3106
 9907TIP3    H151136   2.471   6.036   5.252 -0.8422 -2.0884 -0.9096
 9907TIP3    H251137   2.604   5.995   5.311 -1.3323 -1.0480  1.0004
 9908TIP3   OH251138   6.203   5.276  16.513 -0.7492  0.1369  0.2820
 9908TIP3    H151139   6.260   5.341  16.470 -0.6808 -0.9362 -1.3463
 9908TIP3    H251140   6.260   5.232  16.576 -0.0342 -0.2066 -0.5767
 9909TIP3   OH251141   2.404   6.594   6.129 -0.0487  0.8321  0.0719
 9909TIP3    H151142   2.346   6.527   6.166 -0.0063  1.2130  0.8488
 9909TIP3    H251143   2.470   6.609   6.196  0.8769  0.5136 -0.7481
 9910TIP3   OH251144   4.779   5.116   5.607  0.1409  0.0214  0.7051
 9910TIP3    H151145   4.863   5.093   5.647  0.5503 -1.6260 -0.9565
 9910TIP3    H251146   4.801   5.176   5.537 -0.1826  0.2969  0.8374
 9911TIP3   OH251147   2.812   3.110  15.000 -0.7043 -0.4741  0.1416
 9911TIP3    H151148   2.864   3.161  14.938 -0.0478  0.8275  1.7045
 9911TIP3    H251149   2.797   3.026  14.956  1.9077 -0.5522 -0.7500
 9912TIP3   OH251150   0.372   5.810   0.582  0.3312  0.2925  0.3803
 9912TIP3    H151151   0.456   5.768   0.597  0.2460 -0.1345 -0.2743
 9912TIP3    H251152   0.359   5.866   0.658 -0.4487 -2.3155  2.3145
 9913TIP3   OH251153   1.414   5.206  11.654 -0.3134 -0.4888  0.3654
 9913TIP3    H151154   1.464   5.204  11.735  0.2682 -1.9215 -0.0047
 9913TIP3    H251155   1.351   5.135  11.662 -0.2406 -0.6538 -0.4310
 9914TIP3   OH251156   6.607   1.101  13.866  0.4714 -0.9031 -0.2154
 9914TIP3    H151157   6.681   1.136  13.817 -0.5791  1.5653 -0.2046
 9914TIP3    H251158   6.535   1.102  13.804 -0.3219  0.0558  0.6800
 9915TIP3   OH251159   1.395   5.245  13.684 -1.0740 -0.6394  0.8085
 9915TIP3    H151160   1.311   5.208  13.713  0.8513 -4.1067  2.6657
 9915TIP3    H251161   1.447   5.168  13.659  2.1012  1.1829  1.2993
 9916TIP3   OH251162   3.833   1.339  16.695  0.2721 -0.1050  0.0572
 9916TIP3    H151163   3.769   1.346  16.624 -0.0848  0.3737  0.4211
 9916TIP3    H251164   3.903   1.398  16.669  0.3186 -0.2205 -0.0827
 9917TIP3   OH251165   3.473   0.793  13.173 -0.0495  0.1958 -0.3438
 9917TIP3    H151166   3.526   0.735  13.118  0.5243 -0.0463  0.4552
 9917TIP3    H251167   3.407   0.736  13.211  1.8080 -0.4604  2.1652
 9918TIP3   OH251168   6.048   3.327   4.565  0.3958 -0.3245 -0.1666
 9918TIP3    H151169   6.111   3.311   4.495 -0.6110 -0.8204 -0.9847
 9918TIP3    H251170   5.991   3.250   4.564  0.8876 -0.7802  1.8079
 9919TIP3   OH251171   4.660   0.414   3.815  0.3213  0.4000 -0.2757
 9919TIP3    H151172   4.674   0.321   3.832  0.0190  0.5886  1.1589
 9919TIP3    H251173   4.565   0.425   3.819  0.2861  0.6232 -1.3810
 9920TIP3   OH251174   3.967   1.452  13.307  0.6491  0.1684  0.0178
 9920TIP3    H151175   4.019   1.432  13.229 -0.3004  1.0827 -0.8927
 9920TIP3    H251176   4.032   1.473  13.374  1.4944 -0.8238 -0.4551
 9921TIP3   OH251177   1.232   6.601   3.413 -0.0222 -0.7656  0.0699
 9921TIP3    H151178   1.165   6.660   3.446  1.0889  1.5981 -1.5665
 9921TIP3    H251179   1.195   6.564   3.333 -1.0443 -3.0686  1.5301
 9922TIP3   OH251180   1.894   3.444   2.992  0.1368 -0.8921 -0.6201
 9922TIP3    H151181   1.862   3.494   2.917  0.4096 -0.8045 -0.6793
 9922TIP3    H251182   1.818   3.438   3.050  0.1176 -0.3481 -0.5806
 9923TIP3   OH251183   1.278   5.844   2.541 -0.3671 -0.1091 -0.0282
 9923TIP3    H151184   1.285   5.940   2.537  0.3500 -0.0878  1.2728
 9923TIP3    H251185   1.323   5.820   2.622 -0.3278 -1.5786 -0.4578
 9924TIP3   OH251186   0.646   6.567   0.385  0.3076  0.3755 -0.4277
 9924TIP3    H151187   0.701   6.537   0.458  1.0008  3.4773  0.4838
 9924TIP3    H251188   0.680   6.521   0.309  1.0741 -1.2792  0.8491
 9925TIP3   OH251189   3.993   1.399   2.902 -0.4387 -0.2497  0.0613
 9925TIP3    H151190   3.909   1.371   2.864  0.2687  0.0025 -1.8073
 9925TIP3    H251191   3.989   1.370   2.993 -1.6414 -2.2848 -0.5658
 9926TIP3   OH251192   1.486   1.555   1.868 -0.1258 -0.6456 -0.8690
 9926TIP3    H151193   1.456   1.466   1.884 -0.6511 -0.3827 -0.3116
 9926TIP3    H251194   1.467   1.602   1.950  1.0332 -0.2518 -0.8089
 9927TIP3   OH251195   5.225   4.127  14.864 -0.4200  0.6714 -0.2849
 9927TIP3    H151196   5.161   4.094  14.926 -0.6206  0.1906 -0.7385
 9927TIP3    H251197   5.216   4.070  14.787 -0.9638  1.9230 -1.1921
 9928TIP3   OH251198   4.746   2.806   3.981  0.4197  0.3395 -0.1148
 9928TIP3    H151199   4.693   2.731   3.956  1.1506 -0.6972  1.2619
 9928TIP3    H251200   4.827   2.797   3.931  0.8413 -0.2870  0.6531
 9929TIP3   OH251201   4.895   2.396   4.224  0.3106  0.7550 -0.1427
 9929TIP3    H151202   4.803   2.400   4.198  0.7873  1.2934 -1.8350
 9929TIP3    H251203   4.925   2.486   4.221  0.5592  0.7925  1.8450
 9930TIP3   OH251204   2.214   2.548   1.597  0.3602  0.0213 -0.1302
 9930TIP3    H151205   2.174   2.623   1.641  0.7042  1.6423 -2.4075
 9930TIP3    H251206   2.258   2.586   1.521  0.9460 -2.4551 -1.1057
 9931TIP3   OH251207   4.273   0.338  17.068 -0.5028 -0.0335  0.0044
 9931TIP3    H151208   4.318   0.300  16.993 -0.9408 -0.3365 -0.1039
 9931TIP3    H251209   4.256   0.429  17.043  1.3867  0.5470  0.6287
 9932TIP3   OH251210   0.105   5.480  17.206  0.0409  0.0213 -0.0742
 9932TIP3    H151211   0.033   5.419  17.224  1.8395 -1.4540  2.8428
 9932TIP3    H251212   0.147   5.446  17.127 -0.6714 -0.8478 -0.0903
 9933TIP3   OH251213   0.137   2.518  14.546 -0.2655  0.0205 -0.0731
 9933TIP3    H151214   0.042   2.530  14.554 -0.2371  1.4229 -1.4440
 9933TIP3    H251215   0.157   2.542  14.456  1.6394  1.4987  0.6689
 9934TIP3   OH251216   0.334   5.418   1.153 -0.0960 -0.5526  0.5500
 9934TIP3    H151217   0.374   5.396   1.237 -0.3135  0.3597  0.9092
 9934TIP3    H251218   0.280   5.495   1.172  0.5950  0.2557 -0.6055
 9935TIP3   OH251219   4.635   1.966  11.828  0.5962 -0.0392  0.0883
 9935TIP3    H151220   4.729   1.980  11.827  0.6589  0.1619  2.3326
 9935TIP3    H251221   4.605   2.013  11.906 -1.1304 -1.4053  0.3068
 9936TIP3   OH251222   1.151   1.265  14.397  0.5478  0.1042  0.1148
 9936TIP3    H151223   1.157   1.332  14.465 -0.0952  1.2460 -0.9149
 9936TIP3    H251224   1.172   1.311  14.316  0.1521 -0.9631 -0.6157
 9937TIP3   OH251225   2.581   0.061  12.544 -0.4682  0.2277 -0.5686
 9937TIP3    H151226   2.519  -0.002  12.506  1.5680 -1.9635 -0.5426
 9937TIP3    H251227   2.553   0.070  12.636 -1.1333 -0.1748 -0.7230
 9938TIP3   OH251228   6.160   2.292   4.712 -0.4043  0.1563  0.2570
 9938TIP3    H151229   6.207   2.311   4.631 -0.0745 -0.8843  0.1920
 9938TIP3    H251230   6.223   2.312   4.781 -0.0309 -0.7350  0.1860
 9939TIP3   OH251231   5.332   1.884   5.279  0.0656  0.4595 -0.3797
 9939TIP3    H151232   5.398   1.861   5.214 -0.6225 -1.0866 -0.5637
 9939TIP3    H251233   5.372   1.861   5.363 -0.3591 -0.8418 -0.5169
 9940TIP3   OH251234   3.695   3.117  17.028  0.0562  0.6923 -0.2644
 9940TIP3    H151235   3.651   3.050  16.975 -0.3947  0.1143  0.8111
 9940TIP3    H251236   3.678   3.199  16.982  0.5186  0.0978 -1.5428
 9941TIP3   OH251237   4.635   1.324   1.336 -0.2036 -0.2303 -0.3522
 9941TIP3    H151238   4.601   1.299   1.422 -0.0802 -1.9434 -0.7607
 9941TIP3    H251239   4.590   1.406   1.315 -0.0594  0.3504  1.4284
 9942TIP3   OH251240   2.557   6.478   0.126  1.0290 -0.3726 -1.0475
 9942TIP3    H151241   2.651   6.489   0.144  0.8402  1.6716 -1.0975
 9942TIP3    H251242   2.516   6.553   0.169 -0.1064  1.2571 -4.6383
 9943TIP3   OH251243   0.428   1.821   4.497 -0.5437 -0.2700 -0.5626
 9943TIP3    H151244   0.361   1.788   4.438 -1.4679 -1.0461  0.8475
 9943TIP3    H251245   0.416   1.770   4.578  1.6183 -0.2970 -0.1854
 9944TIP3   OH251246   3.564   5.061  13.603  0.4558 -0.0081 -0.0599
 9944TIP3    H151247   3.560   5.052  13.508  2.0420 -2.2219  0.0006
 9944TIP3    H251248   3.543   4.974  13.637  0.7656  0.5058  1.5685
 9945TIP3   OH251249   0.157   1.382  11.177 -0.4591  0.6714  0.3134
 9945TIP3    H151250   0.090   1.319  11.203  0.1098  0.5172  1.4698
 9945TIP3    H251251   0.128   1.414  11.091 -1.9804  0.5800  0.7672
 9946TIP3   OH251252   2.142   0.417   2.828  0.1938 -0.6433  0.3432
 9946TIP3    H151253   2.224   0.387   2.867  1.0317  1.5649  0.3766
 9946TIP3    H251254   2.101   0.471   2.896  1.5115  2.9982 -1.4904
 9947TIP3   OH251255   3.993   4.825   4.994 -0.0539 -0.1433  0.3656
 9947TIP3    H151256   4.024   4.891   4.932  1.6293  0.4502  1.7505
 9947TIP3    H251257   3.911   4.794   4.957  0.2496  1.0997 -1.4852
 9948TIP3   OH251258   6.530   0.038  13.498  0.3454 -0.1374 -0.0027
 9948TIP3    H151259   6.605   0.097  13.504  0.4490 -0.3595  1.2419
 9948TIP3    H251260   6.502   0.043  13.407  1.4896  0.4174 -0.3378
 9949TIP3   OH251261   4.065   5.735   3.599 -0.3076  0.2032  0.2907
 9949TIP3    H151262   4.103   5.720   3.686  2.5409  0.6600 -0.7492
 9949TIP3    H251263   4.048   5.647   3.564 -1.9178  0.0260  1.4346
 9950TIP3   OH251264   2.883   5.588   4.421 -0.2890 -0.5469  0.6420
 9950TIP3    H151265   2.977   5.583   4.403  0.2691  1.5996  2.5145
 9950TIP3    H251266   2.873   5.550   4.508 -1.3525 -1.5937  0.1022
 9951TIP3   OH251267   2.969   6.196  12.590 -1.1478  0.5981  0.1793
 9951TIP3    H151268   2.953   6.148  12.671 -1.1440  1.3572  0.6437
 9951TIP3    H251269   3.062   6.215  12.592 -1.1558  0.6531  0.0183
 9952TIP3   OH251270   3.777   6.408   0.435  0.2500 -0.7788 -0.1073
 9952TIP3    H151271   3.814   6.333   0.389  0.6565 -1.0326  0.6265
 9952TIP3    H251272   3.847   6.440   0.492  0.1323  0.2550 -0.5153
 9953TIP3   OH251273   4.668   0.961   3.916  0.2150 -0.3222 -0.0135
 9953TIP3    H151274   4.697   0.915   3.837 -0.5645 -1.3482  0.2717
 9953TIP3    H251275   4.665   1.053   3.890  1.2549 -0.4846 -0.7754
 9954TIP3   OH251276   1.687   3.059  12.254 -0.0853 -0.2002  0.4504
 9954TIP3    H151277   1.698   3.027  12.165 -0.3892  3.2116 -0.9743
 9954TIP3    H251278   1.773   3.092  12.279 -0.3912  0.4481  0.6883
 9955TIP3   OH251279   0.406   1.476  10.523 -0.2845 -0.0403  0.0345
 9955TIP3    H151280   0.415   1.539  10.451 -1.1493 -0.1690 -0.1938
 9955TIP3    H251281   0.386   1.393  10.480  2.3334 -0.8422  0.2377
 9956TIP3   OH251282   2.463   5.501  13.679  0.5027  0.3237  0.0759
 9956TIP3    H151283   2.511   5.419  13.684 -0.3650 -0.1031  2.5624
 9956TIP3    H251284   2.489   5.549  13.757 -1.4954  0.9801  0.3868
 9957TIP3   OH251285   5.258   6.746  17.137  0.1755 -0.5393  0.1874
 9957TIP3    H151286   5.216   6.760  17.052  0.9241 -1.4365 -0.3524
 9957TIP3    H251287   5.185   6.729  17.197 -0.2971 -1.1258 -0.5306
 9958TIP3   OH251288   1.488   6.558   3.970  0.8513  0.0497 -0.0872
 9958TIP3    H151289   1.471   6.466   3.988  0.3308 -0.1219 -1.3727
 9958TIP3    H251290   1.465   6.603   4.051  0.7165 -0.9077  0.4132
 9959TIP3   OH251291   3.483   2.711  10.859  0.4828  0.2496  0.0350
 9959TIP3    H151292   3.568   2.697  10.900 -0.9085 -1.4271  2.7037
 9959TIP3    H251293   3.472   2.636  10.800  1.2238  1.0137 -1.1085
 9960TIP3   OH251294   1.701   2.831   2.823 -0.3621  0.4346  0.4408
 9960TIP3    H151295   1.779   2.855   2.773  0.2314 -0.5936  0.8496
 9960TIP3    H251296   1.676   2.745   2.789 -1.1072  0.5872  0.5728
 9961TIP3   OH251297   5.665   1.623   0.176  0.2563  0.0320 -0.1440
 9961TIP3    H151298   5.630   1.570   0.248 -1.9773 -1.2948 -2.0834
 9961TIP3    H251299   5.712   1.560   0.121 -1.2041  0.2811 -1.7362
 9962TIP3   OH251300   6.156   3.136  16.340  1.3424 -0.7370 -0.0917
 9962TIP3    H151301   6.237   3.136  16.391  0.2696  0.6179  1.7241
 9962TIP3    H251302   6.114   3.219  16.362 -0.7726 -1.6084 -0.5951
 9963TIP3   OH251303   0.851   0.021  14.706 -0.2780 -0.5969 -0.4106
 9963TIP3    H151304   0.896  -0.037  14.644 -0.9988 -1.3892 -0.2004
 9963TIP3    H251305   0.913   0.032  14.778 -0.7212 -2.4234  0.3132
 9964TIP3   OH251306   0.597   4.147   1.154  0.4600  0.3167  0.1877
 9964TIP3    H151307   0.557   4.065   1.126 -1.5080  0.1838  2.9731
 9964TIP3    H251308   0.663   4.166   1.087  0.8005 -3.3432 -0.7289
 9965TIP3   OH251309   1.755   6.297  13.441  0.2304 -0.0167  0.0321
 9965TIP3    H151310   1.755   6.283  13.536  0.7431  0.7391  0.1483
 9965TIP3    H251311   1.846   6.316  13.420  0.5190 -2.1683 -0.9280
 9966TIP3   OH251312   4.898   3.310  16.796 -0.5447  0.1278 -1.0655
 9966TIP3    H151313   4.938   3.324  16.881 -0.9813  2.7361 -1.2237
 9966TIP3    H251314   4.970   3.323  16.733 -0.3056 -1.4315 -1.1649
 9967TIP3   OH251315   2.833   0.305   0.934 -0.1014 -0.8185 -0.9786
 9967TIP3    H151316   2.845   0.260   1.017  0.6252  1.0547 -0.0075
 9967TIP3    H251317   2.855   0.240   0.868  0.8761 -1.8881  0.3466
 9968TIP3   OH251318   1.398   3.555   0.301  0.1114  0.1710  0.2674
 9968TIP3    H151319   1.485   3.516   0.311  0.0762  0.1522  0.4929
 9968TIP3    H251320   1.407   3.616   0.227 -0.0333 -0.8325 -0.5920
 9969TIP3   OH251321   1.244   6.742   5.902  0.1305 -0.0146 -0.2092
 9969TIP3    H151322   1.206   6.696   5.977  0.1900  0.4415  0.1014
 9969TIP3    H251323   1.238   6.679   5.830 -0.0988 -0.3861  0.1316
 9970TIP3   OH251324   0.018   4.029  15.281 -0.1624 -0.0747  0.5457
 9970TIP3    H151325   0.106   4.065  15.287  0.1082 -0.6884  0.2623
 9970TIP3    H251326  -0.018   4.039  15.370 -0.5960  2.1354  0.1655
 9971TIP3   OH251327   6.322   0.385   1.898 -0.2618 -0.1647 -0.2296
 9971TIP3    H151328   6.381   0.455   1.871 -0.0403 -0.1211  0.3609
 9971TIP3    H251329   6.340   0.373   1.991 -1.1063 -0.2304 -0.0743
 9972TIP3   OH251330   4.348   3.512  12.346  0.3538  0.1979 -0.2058
 9972TIP3    H151331   4.293   3.461  12.406 -0.0130  0.4641 -0.3074
 9972TIP3    H251332   4.428   3.530  12.395 -0.5215  1.6584  0.7632
 9973TIP3   OH251333   1.684   5.067   3.708 -0.3668  0.2653  0.1416
 9973TIP3    H151334   1.751   5.061   3.640  0.1128 -0.1276  0.6536
 9973TIP3    H251335   1.668   5.161   3.718 -0.2539  0.3360 -0.3262
 9974TIP3   OH251336   3.975   5.445   5.933 -0.3600 -0.5135  0.3270
 9974TIP3    H151337   3.977   5.513   6.000 -0.2561 -0.2690  0.0747
 9974TIP3    H251338   3.929   5.372   5.974 -0.5835 -0.2450  0.5524
 9975TIP3   OH251339   6.053   6.643  15.046  0.0751 -0.7838 -0.2081
 9975TIP3    H151340   6.075   6.551  15.054  0.0460 -0.9187 -1.4493
 9975TIP3    H251341   6.085   6.683  15.127 -0.1764 -1.9195  0.4657
 9976TIP3   OH251342   4.176   1.626   2.263  0.2496  0.1872 -0.9971
 9976TIP3    H151343   4.116   1.574   2.316 -0.1068  1.7239  0.1444
 9976TIP3    H251344   4.146   1.613   2.173  0.4610 -1.9192 -0.8289
 9977TIP3   OH251345   0.714   1.095   4.652  0.2931 -0.2757 -0.0417
 9977TIP3    H151346   0.756   1.077   4.736 -0.4523 -0.1221  0.3724
 9977TIP3    H251347   0.749   1.028   4.593  1.2234 -0.0573  0.2472
 9978TIP3   OH251348   2.399   2.996   1.472 -0.1860  0.0736 -0.1638
 9978TIP3    H151349   2.481   2.959   1.438  1.1121  2.4496  0.1533
 9978TIP3    H251350   2.396   3.085   1.435 -2.9565 -0.1342 -0.6361
 9979TIP3   OH251351   4.650   2.883   6.336  0.0386 -0.0513  0.1000
 9979TIP3    H151352   4.627   2.849   6.423  0.8878 -0.8952  0.0133
 9979TIP3    H251353   4.742   2.860   6.325  1.0025  3.2235  0.4468
 9980TIP3   OH251354   4.668   3.756   4.168 -0.3430 -0.5507 -0.3597
 9980TIP3    H151355   4.717   3.696   4.223 -0.1821 -1.7967 -1.8029
 9980TIP3    H251356   4.584   3.712   4.154 -1.4714  1.0102  1.0958
 9981TIP3   OH251357   3.962   2.232  16.327  0.0548  0.2623  0.3933
 9981TIP3    H151358   3.978   2.283  16.247 -0.2841  1.4025  1.0264
 9981TIP3    H251359   4.031   2.166  16.327  0.7939  0.9971 -0.2424
 9982TIP3   OH251360   1.029   4.764  13.875  0.1260  0.2915  0.1932
 9982TIP3    H151361   1.035   4.704  13.801 -0.5053 -0.7277  0.9470
 9982TIP3    H251362   1.000   4.847  13.837 -0.4661 -0.2999 -0.6567
 9983TIP3   OH251363   0.493   2.358  17.144 -0.5844  0.2208  0.0875
 9983TIP3    H151364   0.530   2.432  17.192  0.2612  0.4741 -0.9162
 9983TIP3    H251365   0.424   2.324  17.201  1.1061 -0.1955  1.9616
 9984TIP3   OH251366   3.085   6.442   5.090  0.2573  0.1242 -0.8748
 9984TIP3    H151367   3.069   6.370   5.150 -0.7882  0.9519 -0.1114
 9984TIP3    H251368   3.174   6.472   5.110 -0.2525  0.7130  0.6605
 9985TIP3   OH251369   1.888   2.116   4.880  0.2423 -0.1150 -0.7940
 9985TIP3    H151370   1.877   2.037   4.933  1.0839  0.7746  0.8044
 9985TIP3    H251371   1.801   2.156   4.880 -0.1401 -0.9150 -1.4396
 9986TIP3   OH251372   6.355   0.489  11.585  0.6495  0.0373  0.0412
 9986TIP3    H151373   6.269   0.449  11.573  0.6227  0.2567 -0.5579
 9986TIP3    H251374   6.365   0.547  11.509  0.8343  0.8912  0.6981
 9987TIP3   OH251375   0.991   2.625   1.624 -0.1740  0.4119 -0.5080
 9987TIP3    H151376   0.958   2.581   1.546 -0.2328  2.1162 -1.4844
 9987TIP3    H251377   0.927   2.693   1.642  0.7930  1.2336 -0.0849
 9988TIP3   OH251378   6.198   0.205   0.694  0.2075 -0.6070  0.3617
 9988TIP3    H151379   6.260   0.254   0.748  1.1171 -0.7957 -0.4833
 9988TIP3    H251380   6.246   0.126   0.668 -0.1174 -0.3963 -0.9335
 9989TIP3   OH251381   4.243   3.948   1.939 -0.5167  0.3506  0.0745
 9989TIP3    H151382   4.244   3.856   1.913  0.2346 -0.2294  1.9445
 9989TIP3    H251383   4.331   3.979   1.917 -0.0823  0.0251  1.2835
 9990TIP3   OH251384   4.276   0.183  12.295 -0.5181 -0.8341 -0.2297
 9990TIP3    H151385   4.351   0.234  12.326  0.1093 -0.5217 -2.1831
 9990TIP3    H251386   4.203   0.245  12.295 -1.0571 -1.3087  2.3647
 9991TIP3   OH251387   3.170   4.262   2.148 -0.6993 -0.3022  0.2320
 9991TIP3    H151388   3.230   4.212   2.093 -1.7290  0.1596 -1.3962
 9991TIP3    H251389   3.084   4.224   2.130 -0.9877 -0.7380  2.2688
 9992TIP3   OH251390   2.158   2.520   4.303 -0.8223  0.8801  0.0730
 9992TIP3    H151391   2.069   2.515   4.340  0.3326 -0.0643  2.9955
 9992TIP3    H251392   2.171   2.435   4.261 -0.3554 -0.1711  2.2023
 9993TIP3   OH251393   1.381   3.425  13.294  0.3481  0.4517 -0.4512
 9993TIP3    H151394   1.324   3.392  13.363  0.2642  0.6954 -0.4004
 9993TIP3    H251395   1.374   3.361  13.224  0.1182  0.4089 -0.3908
 9994TIP3   OH251396   4.291   5.081   0.103  0.4260  0.0768  0.2727
 9994TIP3    H151397   4.340   5.070   0.184  0.3105 -1.1171  0.1963
 9994TIP3    H251398   4.342   5.145   0.053  1.6631 -0.7948  0.3919
 9995TIP3   OH251399   2.834   2.382  15.330 -0.0780  0.1098 -0.2252
 9995TIP3    H151400   2.756   2.436  15.341 -0.4323  0.1554 -2.4864
 9995TIP3    H251401   2.806   2.295  15.359 -0.0727  0.6699  1.6285
 9996TIP3   OH251402   4.447   5.130   4.524  0.3598  0.0384  0.5592
 9996TIP3    H151403   4.415   5.115   4.613 -2.0197 -1.0775 -0.3823
 9996TIP3    H251404   4.373   5.170   4.479  0.9229 -0.9013 -1.3129
 9997TIP3   OH251405   3.289   4.274  11.348  0.3390  0.1123 -0.2000
 9997TIP3    H151406   3.383   4.267  11.358  0.1090 -1.6062  1.3020
 9997TIP3    H251407   3.276   4.345  11.285  2.6466 -0.3683 -1.3004
 9998TIP3   OH251408   5.281   4.025  12.319 -0.3614 -0.6045  1.0581
 9998TIP3    H151409   5.252   3.941  12.356  1.2813 -1.0019  1.5172
 9998TIP3    H251410   5.318   4.072  12.394 -1.0665  0.4566  0.7601
 9999TIP3   OH251411   1.599   5.171   2.886  0.6752  0.0438 -0.0924
 9999TIP3    H151412   1.588   5.217   2.969  1.3159 -0.9052  0.5497
 9999TIP3    H251413   1.644   5.233   2.829  1.1038  0.3671  0.5929
10000TIP3   OH251414   4.516   3.511  13.078  0.1119 -0.0078 -0.1048
10000TIP3    H151415   4.606   3.538  13.096  0.3063 -0.4624 -0.3552
10000TIP3    H251416   4.470   3.522  13.161  0.3688  0.3431 -0.0058
10001TIP3   OH251417   3.224   0.479   1.645 -0.2503  0.1055 -0.2438
10001TIP3    H151418   3.301   0.440   1.605 -0.0442  1.9956 -1.8472
10001TIP3    H251419   3.182   0.529   1.575 -1.2317  1.6086  1.2983
10002TIP3   OH251420   2.125   0.412  12.908 -0.2437 -0.1955 -0.1086
10002TIP3    H151421   2.090   0.419  12.997 -0.2880  2.0183 -0.2270
10002TIP3    H251422   2.050   0.387  12.854 -1.0859  1.7912  0.0417
10003TIP3   OH251423   0.959   3.331   6.497  0.1887  0.0557 -0.0002
10003TIP3    H151424   1.053   3.334   6.481  0.8599 -1.2152  2.9505
10003TIP3    H251425   0.933   3.241   6.476 -0.0206 -0.0374  0.6208
10004TIP3   OH251426   3.925   6.077   3.901  0.1984  0.0678 -0.2728
10004TIP3    H151427   3.978   6.143   3.947 -1.2614  2.6338 -1.9981
10004TIP3    H251428   3.839   6.082   3.943  0.3376 -1.5893  0.2728
10005TIP3   OH251429   4.773   2.189   5.871 -0.1171  0.3694 -0.3269
10005TIP3    H151430   4.696   2.232   5.907 -2.2287 -0.9103 -2.9530
10005TIP3    H251431   4.828   2.261   5.838 -2.1018  1.2535 -1.8964
10006TIP3   OH251432   2.565   4.147  15.126  0.1137  0.3529  0.3142
10006TIP3    H151433   2.551   4.212  15.195 -1.6018  0.6322 -0.2341
10006TIP3    H251434   2.501   4.170  15.058  2.6021  0.9006 -2.0100
10007TIP3   OH251435   2.921   4.633  12.418 -0.4929  0.3698  0.1854
10007TIP3    H151436   2.986   4.588  12.473  0.7854  2.0104  0.0918
10007TIP3    H251437   2.872   4.562  12.378 -0.7062 -0.9145  2.5057
10008TIP3   OH251438   2.069   1.033  11.485  0.0010  0.3023  0.1521
10008TIP3    H151439   2.146   1.001  11.438 -0.4784  1.6981 -1.7055
10008TIP3    H251440   2.102   1.055  11.572  1.7452  0.9859 -0.6282
10009TIP3   OH251441   5.508   1.934   2.009  0.0020 -0.4016  0.2136
10009TIP3    H151442   5.507   1.986   2.090  0.8568 -0.0089 -0.0074
10009TIP3    H251443   5.565   1.984   1.950 -0.1913 -0.9524 -0.4472
10010TIP3   OH251444   1.569   1.066   3.060  0.4067 -0.7650  0.1058
10010TIP3    H151445   1.630   1.132   3.092  1.5791 -0.6939 -2.1006
10010TIP3    H251446   1.493   1.115   3.030  0.6875 -0.5388 -0.2395
10011TIP3   OH251447   5.822   4.540   2.667 -0.3385 -0.1804 -0.4934
10011TIP3    H151448   5.811   4.485   2.745  2.1812 -0.1648 -0.0538
10011TIP3    H251449   5.836   4.478   2.595  2.1617 -0.2307 -0.0539
10012TIP3   OH251450   6.329   6.417   1.600 -0.5110  0.3182 -0.0471
10012TIP3    H151451   6.257   6.477   1.585  0.1164  0.6766 -1.8051
10012TIP3    H251452   6.357   6.435   1.690 -1.5763  1.2883  0.1060
10013TIP3   OH251453   0.190   3.865  13.663 -0.5959 -0.0574  0.2544
10013TIP3    H151454   0.176   3.824  13.748 -2.5475  0.2599  0.1202
10013TIP3    H251455   0.282   3.893  13.665 -0.4624 -0.5245  2.0374
10014TIP3   OH251456   3.085   1.316  16.350 -0.3294 -0.8372  0.6103
10014TIP3    H151457   3.092   1.221  16.362 -0.9081 -0.9114  0.3634
10014TIP3    H251458   3.062   1.327  16.258 -1.3495 -0.5101  0.8907
10015TIP3   OH251459   1.887   4.946  14.296  0.4928  0.0483 -0.6925
10015TIP3    H151460   1.950   4.877  14.275  0.3091  0.1141 -1.5043
10015TIP3    H251461   1.931   5.027  14.270  1.0494  0.3394  1.0492
10016TIP3   OH251462   5.364   2.303   1.375  0.3938  0.0749  0.3940
10016TIP3    H151463   5.295   2.261   1.324 -0.1168 -0.7112  1.6916
10016TIP3    H251464   5.357   2.396   1.354 -0.0983 -0.1687 -0.5895
10017TIP3   OH251465   0.308   1.563  15.634 -0.0489 -0.0623  0.0103
10017TIP3    H151466   0.379   1.616  15.671 -0.7411 -1.0433  2.9596
10017TIP3    H251467   0.233   1.622  15.633 -0.2141 -0.2337  0.9904
10018TIP3   OH251468   1.530   2.931   2.412  0.8214 -0.1770 -0.3270
10018TIP3    H151469   1.525   2.952   2.505  1.8592 -0.7439 -0.1316
10018TIP3    H251470   1.469   2.992   2.370  1.4185  1.0575  0.5600
10019TIP3   OH251471   4.065   3.858  11.614 -0.3288  0.6829  0.1686
10019TIP3    H151472   4.065   3.836  11.707  3.5658  1.6490  0.5455
10019TIP3    H251473   4.088   3.777  11.570 -0.1854  0.6823  0.2429
10020TIP3   OH251474   2.556   4.677   2.741  0.1418  0.1320 -0.3777
10020TIP3    H151475   2.479   4.679   2.683  0.0791 -1.0320 -0.3483
10020TIP3    H251476   2.547   4.756   2.794 -2.1869 -1.0097  1.0906
10021TIP3   OH251477   5.217   4.376  15.169  0.0523  0.7874  0.4051
10021TIP3    H151478   5.126   4.373  15.198 -0.2197  1.3803 -0.3780
10021TIP3    H251479   5.240   4.469  15.171  0.3573  0.7302 -0.2558
10022TIP3   OH251480   0.014   6.242   5.830  0.2719  0.4053 -0.3032
10022TIP3    H151481   0.005   6.275   5.920  1.5255 -0.1896  0.0711
10022TIP3    H251482   0.100   6.199   5.830 -0.2606 -0.6859 -1.4458
10023TIP3   OH251483   0.442   1.471   0.502 -0.1677  0.0886  0.0007
10023TIP3    H151484   0.528   1.433   0.486 -0.0827  0.9362 -1.8307
10023TIP3    H251485   0.382   1.397   0.503  0.3852 -0.3688 -0.4168
10024TIP3   OH251486   6.229   1.952   1.765  0.4941  0.7998  0.5562
10024TIP3    H151487   6.233   1.933   1.672  1.7883  2.2220  0.2749
10024TIP3    H251488   6.317   1.932   1.798 -0.1931 -0.5511  1.6785
10025TIP3   OH251489   5.537   0.687   2.690  0.6254 -0.8537 -0.2246
10025TIP3    H151490   5.485   0.719   2.763 -0.2236  0.3819 -1.3305
10025TIP3    H251491   5.480   0.623   2.646 -0.7240  1.6262 -2.3571
10026TIP3   OH251492   0.122   1.605   5.786  0.1526  0.5169  0.4487
10026TIP3    H151493   0.062   1.628   5.856 -2.5015  0.9446 -1.7730
10026TIP3    H251494   0.122   1.509   5.785 -0.1051  0.5129  0.7726
10027TIP3   OH251495   6.112   2.421  14.954  0.2488 -0.1260  0.2527
10027TIP3    H151496   6.148   2.346  15.002 -1.1900 -0.7057  0.4672
10027TIP3    H251497   6.124   2.495  15.012  0.9398 -0.3273  0.3790
10028TIP3   OH251498   4.704   1.835  13.056 -0.4198 -0.1085  0.5103
10028TIP3    H151499   4.616   1.858  13.027  0.2559  1.7707 -0.1938
10028TIP3    H251500   4.692   1.806  13.147 -1.4562  2.8649  1.4355
10029TIP3   OH251501   1.949   0.002   2.038  0.2417 -0.8843  0.3334
10029TIP3    H151502   1.948  -0.086   2.002  0.5391 -0.8309  0.1873
10029TIP3    H251503   1.859   0.018   2.067 -0.5154 -0.2041 -2.1832
10030TIP3   OH251504   3.481   6.532  11.145  0.3326 -0.2845  0.2380
10030TIP3    H151505   3.431   6.549  11.225  0.0435 -1.1635  0.2542
10030TIP3    H251506   3.438   6.585  11.078 -0.6292 -0.9970  0.2611
10031TIP3   OH251507   1.003   3.763  13.383 -0.0870  0.0029 -0.3729
10031TIP3    H151508   0.913   3.770  13.351  1.0346  0.7890 -3.7152
10031TIP3    H251509   1.045   3.844  13.355  2.4281 -1.6433 -1.7143
10032TIP3   OH251510   3.154   2.143   0.995  0.1867  0.1290  0.0932
10032TIP3    H151511   3.072   2.138   0.947 -0.4612 -2.5063  1.2950
10032TIP3    H251512   3.128   2.158   1.086  0.8920 -1.9536  0.6882
10033TIP3   OH251513   6.661   5.742  12.503  0.5666 -0.4037  0.3174
10033TIP3    H151514   6.693   5.653  12.518 -0.1382 -0.5837  0.8045
10033TIP3    H251515   6.613   5.736  12.420 -0.1723 -0.6736  0.7551
10034TIP3   OH251516   2.436   5.779  11.589  0.3209 -0.0091 -0.7071
10034TIP3    H151517   2.427   5.860  11.539 -0.4727 -0.0891 -0.7144
10034TIP3    H251518   2.527   5.752  11.576  0.7069  1.0779 -0.3887
10035TIP3   OH251519   2.881   6.573   5.286  0.6516 -0.2425  0.1052
10035TIP3    H151520   2.961   6.562   5.234  0.5421 -1.2188  0.1146
10035TIP3    H251521   2.850   6.661   5.265  0.3082 -0.7922 -1.9627
10036TIP3   OH251522   3.555   2.228  15.091 -0.2843  0.2050 -0.1407
10036TIP3    H151523   3.611   2.305  15.082  0.7423 -0.3946  0.8193
10036TIP3    H251524   3.580   2.190  15.175 -0.8151 -1.1314 -0.5590
10037TIP3   OH251525   5.843   3.000  13.966  0.0949 -0.5068  0.8953
10037TIP3    H151526   5.928   2.963  13.993 -0.2154 -1.6600  0.3707
10037TIP3    H251527   5.844   2.994  13.871 -0.1601  0.4635  0.8185
10038TIP3   OH251528   6.455   5.294  14.077 -0.1829  0.2320 -0.4055
10038TIP3    H151529   6.495   5.262  14.158 -0.2404  0.3568 -0.3283
10038TIP3    H251530   6.472   5.388  14.078 -1.3837  0.4522  0.1326
10039TIP3   OH251531   2.498   1.801  16.994 -0.0205 -0.2735 -0.4475
10039TIP3    H151532   2.561   1.859  17.038 -1.0523  0.7380 -0.2512
10039TIP3    H251533   2.509   1.821  16.901 -0.3106  0.1899 -0.3876
10040TIP3   OH251534   0.127   6.574  16.385  0.1293 -0.6590  0.0766
10040TIP3    H151535   0.161   6.533  16.306 -0.1890  0.6336 -0.7695
10040TIP3    H251536   0.114   6.502  16.447  2.5840 -1.4435 -0.2077
10041TIP3   OH251537   3.260   0.852   4.613 -0.1234 -0.5148  0.5481
10041TIP3    H151538   3.267   0.801   4.533  1.5442 -1.3718  1.1825
10041TIP3    H251539   3.171   0.887   4.612  0.1705  0.3710 -2.1631
10042TIP3   OH251540   1.027   4.390  13.832 -0.6959  0.4412  0.4297
10042TIP3    H151541   0.956   4.418  13.889  0.2983 -0.3397  2.1418
10042TIP3    H251542   1.107   4.417  13.878  0.1393  0.2326 -0.8410
10043TIP3   OH251543   3.306   6.526  14.903 -0.1404 -0.9920 -0.6054
10043TIP3    H151544   3.383   6.570  14.938 -0.7147  0.2080 -0.7914
10043TIP3    H251545   3.339   6.472  14.831  0.8201 -2.2349  0.7112
10044TIP3   OH251546   2.505   1.516   1.235 -0.1843  0.3613  0.5453
10044TIP3    H151547   2.493   1.591   1.177  0.0883  0.2913  0.3973
10044TIP3    H251548   2.418   1.499   1.271 -0.4986 -0.0173 -0.3635
10045TIP3   OH251549   0.890   0.289   3.362  0.2018  0.3224 -0.0709
10045TIP3    H151550   0.933   0.352   3.304  1.4746 -0.2555  0.2128
10045TIP3    H251551   0.835   0.342   3.419  1.8948  1.2750  0.7229
10046TIP3   OH251552   4.668   2.830   5.901  0.5444 -0.4071  0.4768
10046TIP3    H151553   4.699   2.878   5.824  0.3784 -2.4977 -0.9706
10046TIP3    H251554   4.680   2.738   5.879 -0.6923 -1.1177  2.4655
10047TIP3   OH251555   3.574   6.476  10.677  0.0123  0.1198 -0.5288
10047TIP3    H151556   3.519   6.523  10.614 -1.0312  2.1649  1.7547
10047TIP3    H251557   3.660   6.472  10.636 -0.9317  0.0717 -2.6526
10048TIP3   OH251558   3.847   1.516   5.852  0.0154 -0.5335 -0.8663
10048TIP3    H151559   3.848   1.430   5.893 -1.2961  0.0917  0.6239
10048TIP3    H251560   3.766   1.517   5.800 -1.2836  0.5583  1.0517
10049TIP3   OH251561   4.338   1.756  11.230 -0.1212 -0.3340  0.2480
10049TIP3    H151562   4.297   1.726  11.148  0.6183  0.5619 -0.4710
10049TIP3    H251563   4.410   1.695  11.244  0.4087  0.1414 -0.3555
10050TIP3   OH251564   2.296   2.549   2.767 -0.0321  0.0980  0.1389
10050TIP3    H151565   2.371   2.606   2.748  1.8011 -1.8606  1.1003
10050TIP3    H251566   2.283   2.499   2.686  0.2433 -0.1374  0.2387
10051TIP3   OH251567   3.953   4.495   2.519 -0.3611  0.3064 -0.2666
10051TIP3    H151568   3.964   4.563   2.452 -0.2317 -0.0428 -0.5960
10051TIP3    H251569   3.858   4.490   2.532 -0.4510 -0.2768 -1.0920
10052TIP3   OH251570   3.113   6.717   2.492 -0.4901 -0.3638 -0.1017
10052TIP3    H151571   3.073   6.754   2.414  0.3430 -0.1605 -0.4410
10052TIP3    H251572   3.105   6.786   2.558 -4.4284 -1.7142  1.1894
10053TIP3   OH251573   0.163   5.206  12.020 -0.1260 -0.0818  0.0778
10053TIP3    H151574   0.073   5.229  12.040 -0.1366  0.9974 -1.0843
10053TIP3    H251575   0.179   5.126  12.070 -1.5160  0.0550  0.7856
10054TIP3   OH251576   3.752   0.976  14.757 -0.2469 -0.3532  0.5394
10054TIP3    H151577   3.749   1.064  14.721 -0.2928 -0.8486 -0.7140
10054TIP3    H251578   3.671   0.969  14.808 -1.4454 -0.4286 -1.2646
10055TIP3   OH251579   2.954   0.727  13.509  0.3454 -0.0412 -0.2578
10055TIP3    H151580   2.910   0.708  13.427  0.4843  0.3276 -0.4193
10055TIP3    H251581   2.911   0.806  13.542  1.2204  0.6322 -0.6765
10056TIP3   OH251582   5.815   0.836  12.358 -0.6303 -0.3116  0.5912
10056TIP3    H151583   5.721   0.842  12.373 -1.0585 -2.1271 -0.9601
10056TIP3    H251584   5.823   0.801  12.269  1.3691 -3.5670  1.8585
10057TIP3   OH251585   2.394   3.068   4.293 -0.1913 -0.3979 -0.1868
10057TIP3    H151586   2.444   2.991   4.320 -0.0183 -1.6123 -3.5521
10057TIP3    H251587   2.460   3.136   4.277 -0.2191 -0.0101  1.1629
10058TIP3   OH251588   2.902   0.502  17.094  0.0369  0.7584  0.4505
10058TIP3    H151589   2.997   0.496  17.102 -0.0597 -1.0777  0.7661
10058TIP3    H251590   2.887   0.560  17.020  1.3806  1.6325  0.8355
10059TIP3   OH251591   6.465   0.969   2.044 -0.0127 -0.0248 -0.0735
10059TIP3    H151592   6.390   0.958   1.986  0.3159 -0.9508 -0.3465
10059TIP3    H251593   6.462   0.893   2.102 -0.4521  0.9905  1.2693
10060TIP3   OH251594   0.408   1.010  15.128 -0.1523 -0.1946  0.2047
10060TIP3    H151595   0.461   0.930  15.124  0.3634  0.1934 -1.0747
10060TIP3    H251596   0.406   1.042  15.038  0.1164  1.5411  0.7849
10061TIP3   OH251597   0.548   5.778  12.464 -0.0862 -0.2014 -0.2199
10061TIP3    H151598   0.453   5.776  12.453 -0.0954 -0.1333 -0.1503
10061TIP3    H251599   0.582   5.792  12.375 -0.1304 -0.5062 -0.2890
10062TIP3   OH251600   5.911   1.191   3.878  0.1862 -0.0675 -0.3988
10062TIP3    H151601   5.913   1.196   3.973 -1.4462  0.2243 -0.3461
10062TIP3    H251602   5.909   1.098   3.859 -0.9130 -0.1347 -0.0579
10063TIP3   OH251603   6.404   6.368   0.087  0.1833  0.4878 -0.2165
10063TIP3    H151604   6.446   6.454   0.095  0.0971  0.5478 -0.3823
10063TIP3    H251605   6.459   6.309   0.137 -0.2300  0.8065  0.6262
10064TIP3   OH251606   3.794   2.617   1.466  0.2729 -0.1581 -0.2401
10064TIP3    H151607   3.883   2.583   1.458  0.2095 -0.5061  0.4565
10064TIP3    H251608   3.781   2.629   1.560 -0.3969 -0.0717 -0.3382
10065TIP3   OH251609   0.103   5.184   5.217 -0.2443  0.0600  0.9095
10065TIP3    H151610   0.077   5.274   5.195  0.2447  0.2678  1.1381
10065TIP3    H251611   0.022   5.134   5.217 -0.4114  0.3155 -0.0946
10066TIP3   OH251612   6.532   3.439  13.559  0.2346  0.4440  0.0820
10066TIP3    H151613   6.474   3.514  13.549 -1.1329 -0.7937 -1.8705
10066TIP3    H251614   6.585   3.438  13.479  0.3101 -0.5911  0.1305
10067TIP3   OH251615   0.724   0.253  12.433  0.0104  0.0587 -0.1529
10067TIP3    H151616   0.811   0.217  12.414 -0.2974 -0.1513 -1.2094
10067TIP3    H251617   0.684   0.265  12.348 -1.3488 -0.6991  0.3486
10068TIP3   OH251618   1.854   3.476  12.857 -0.0233  0.0959 -0.1968
10068TIP3    H151619   1.946   3.459  12.838  0.2913  0.7785  0.6765
10068TIP3    H251620   1.843   3.570  12.841 -0.5866  0.0098 -0.3470
10069TIP3   OH251621   1.723   6.729  11.446 -0.9042 -0.9413 -0.2427
10069TIP3    H151622   1.629   6.734  11.465 -0.8318 -2.1157  0.5717
10069TIP3    H251623   1.755   6.818  11.460 -2.0444 -0.3033 -1.4783
10070TIP3   OH251624   3.248   0.353   2.146  0.4258  0.0884 -0.6130
10070TIP3    H151625   3.246   0.260   2.124  1.2066 -0.2729  0.6864
10070TIP3    H251626   3.316   0.359   2.213 -0.0157  1.5101 -0.2719
10071TIP3   OH251627   0.453   0.952  16.554 -0.9036 -1.0114 -0.1390
10071TIP3    H151628   0.411   0.938  16.639 -1.8400 -0.3694 -0.4850
10071TIP3    H251629   0.489   1.040  16.560  0.2869 -1.4917  0.0963
10072TIP3   OH251630   3.255   2.424  14.175 -0.1289 -0.2985  0.0102
10072TIP3    H151631   3.174   2.447  14.221 -0.1474  3.0497 -1.3867
10072TIP3    H251632   3.324   2.471  14.223  0.2398  0.8490 -1.5343
10073TIP3   OH251633   2.877   3.555   1.205  0.3511 -0.4561 -0.0838
10073TIP3    H151634   2.799   3.513   1.241  0.2112  0.7856  1.1533
10073TIP3    H251635   2.868   3.547   1.110 -1.0312 -0.7627  0.0565
10074TIP3   OH251636   2.420   0.142   2.272 -0.4411 -0.3665  0.7388
10074TIP3    H151637   2.375   0.205   2.328 -0.8372  0.4181 -0.4269
10074TIP3    H251638   2.435   0.066   2.329 -0.0785  0.7031  2.1250
10075TIP3   OH251639   5.559   5.219   5.655  0.0900  0.0058 -0.2991
10075TIP3    H151640   5.497   5.150   5.633 -1.6423  1.6384 -0.7550
10075TIP3    H251641   5.581   5.260   5.571  1.4591 -0.2543 -0.0910
10076TIP3   OH251642   1.754   1.783  17.113  0.0725 -0.4773  0.1561
10076TIP3    H151643   1.705   1.701  17.108 -1.2889  0.2533  0.8132
10076TIP3    H251644   1.686   1.851  17.112  1.0605  0.5778  1.3967
10077TIP3   OH251645   3.259   6.144  14.640  0.2736  0.5835 -0.0881
10077TIP3    H151646   3.307   6.061  14.653 -0.9171 -0.1458 -0.2371
10077TIP3    H251647   3.211   6.156  14.721  0.9032  1.4647  0.1670
10078TIP3   OH251648   4.451   4.834   3.592 -0.0399 -0.0332 -0.0480
10078TIP3    H151649   4.482   4.903   3.651 -1.2009 -1.4853  2.4395
10078TIP3    H251650   4.365   4.863   3.564 -0.5153 -0.4134  0.9729
10079TIP3   OH251651   0.984   6.082   2.354  0.1818  0.3695  0.1127
10079TIP3    H151652   1.014   6.170   2.334  2.0616 -0.4240 -0.7884
10079TIP3    H251653   1.035   6.055   2.430  0.1553 -0.2105 -0.0685
10080TIP3   OH251654   5.204   6.775   4.372 -0.1294  0.1593 -0.6765
10080TIP3    H151655   5.197   6.702   4.310 -0.1195  0.2459 -0.7795
10080TIP3    H251656   5.117   6.780   4.413  0.3417 -0.9840  0.5445
10081TIP3   OH251657   4.771   1.331  13.281  0.1199 -0.2262  0.0550
10081TIP3    H151658   4.826   1.272  13.229  0.5469 -0.4258  0.7243
10081TIP3    H251659   4.755   1.284  13.363  1.8483  1.2141  1.3109
10082TIP3   OH251660   4.451   2.149   0.506 -0.7582  0.3958 -0.2888
10082TIP3    H151661   4.401   2.069   0.490  0.5265 -0.5559  0.2508
10082TIP3    H251662   4.509   2.157   0.430 -1.1089  0.9969 -0.4944
10083TIP3   OH251663   3.297   4.010   4.389  0.2882  0.1480 -0.6766
10083TIP3    H151664   3.205   3.988   4.375 -0.1316 -0.8919  2.8433
10083TIP3    H251665   3.341   3.926   4.397  1.4986  0.6454 -1.7566
10084TIP3   OH251666   5.629   1.872  13.893  0.6835  0.1271  0.6792
10084TIP3    H151667   5.576   1.943  13.932  0.6242  0.6328 -0.2961
10084TIP3    H251668   5.565   1.810  13.859  0.5925  1.5229 -1.9701
10085TIP3   OH251669   1.931   1.678  16.711 -0.4514 -0.2013 -0.3173
10085TIP3    H151670   1.952   1.586  16.727  1.2797  0.2321  0.1442
10085TIP3    H251671   1.838   1.678  16.691 -0.6604 -1.9550  0.4426
10086TIP3   OH251672   2.773   0.789   0.676 -0.2702 -0.1888 -0.0383
10086TIP3    H151673   2.847   0.850   0.671  0.7803 -1.3812  0.5486
10086TIP3    H251674   2.699   0.844   0.702  0.7096  0.8039  0.7565
10087TIP3   OH251675   6.239   1.849   2.343 -0.4837 -0.3819 -0.1400
10087TIP3    H151676   6.161   1.794   2.338  0.0937 -1.0731 -2.4598
10087TIP3    H251677   6.308   1.791   2.377 -0.1445 -0.8269 -1.5293
10088TIP3   OH251678   5.024   5.429  15.962 -0.1060  0.5304 -0.0741
10088TIP3    H151679   5.019   5.513  15.917 -0.9643 -0.0018 -1.0137
10088TIP3    H251680   4.939   5.419  16.005  0.3811  0.6199  0.9591
10089TIP3   OH251681   0.690   0.196   1.786 -0.4294  0.1504  0.0068
10089TIP3    H151682   0.711   0.285   1.813 -0.8412  0.3483 -0.3169
10089TIP3    H251683   0.628   0.164   1.851 -0.0628 -0.0009  0.2819
10090TIP3   OH251684   3.605   4.535  16.828  0.0569  0.2293 -0.2335
10090TIP3    H151685   3.698   4.535  16.847  0.0652  0.7154 -0.2513
10090TIP3    H251686   3.575   4.623  16.853 -0.1360  0.5381 -1.4574
10091TIP3   OH251687   2.399   2.492  12.603  0.0077  0.5390  0.4271
10091TIP3    H151688   2.399   2.551  12.527  3.5404  1.2179  0.7982
10091TIP3    H251689   2.336   2.424  12.580  1.2306  0.4558 -3.3858
10092TIP3   OH251690   0.080   4.006   4.056 -0.0567 -0.0112 -0.3037
10092TIP3    H151691  -0.013   3.986   4.049 -0.0565 -0.1025 -0.0610
10092TIP3    H251692   0.103   3.981   4.145  0.4411 -0.9898 -0.6889
10093TIP3   OH251693   4.049   0.166  16.748  0.4321  0.0103 -0.0111
10093TIP3    H151694   3.997   0.104  16.697  0.0953  0.6870 -0.5215
10093TIP3    H251695   4.112   0.112  16.795  2.1783 -0.5837 -2.7489
10094TIP3   OH251696   2.895   4.106  15.036 -0.1202  0.4513  1.3146
10094TIP3    H151697   2.959   4.127  14.969  0.0879  0.9608  1.6626
10094TIP3    H251698   2.815   4.086  14.988  0.3332 -0.3422  0.8709
10095TIP3   OH251699   0.392   2.659  10.295 -0.2880  0.2819  0.0498
10095TIP3    H151700   0.372   2.636  10.386  0.2822  1.6083  0.5406
10095TIP3    H251701   0.310   2.695  10.261 -1.2071 -2.3282 -0.7438
10096TIP3   OH251702   1.101   3.905  11.897 -0.3579  0.5567  0.8298
10096TIP3    H151703   1.177   3.943  11.942  0.0924 -0.1250  0.6740
10096TIP3    H251704   1.068   3.840  11.959  0.7247 -0.9250 -0.0785
10097TIP3   OH251705   5.661   0.221  16.307  0.1251  0.0023  0.0180
10097TIP3    H151706   5.589   0.267  16.350  0.6383  0.2811  0.5977
10097TIP3    H251707   5.716   0.190  16.378  0.6755 -0.0507 -0.4207
10098TIP3   OH251708   2.812   3.688  16.060  0.1668 -0.0868  0.1742
10098TIP3    H151709   2.784   3.760  16.004  1.1129 -1.2888 -1.9928
10098TIP3    H251710   2.906   3.703  16.074 -0.3304  1.0619  2.9146
10099TIP3   OH251711   3.958   1.468  15.397 -0.3735  0.2166  0.5464
10099TIP3    H151712   3.981   1.559  15.417  0.4044 -0.0189  0.7814
10099TIP3    H251713   3.974   1.460  15.303  1.3187 -0.1495  0.8356
10100TIP3   OH251714   6.021   1.000  12.412  0.2936  0.4442  0.1077
10100TIP3    H151715   5.950   0.937  12.408  0.1378  0.3414  2.8389
10100TIP3    H251716   5.997   1.068  12.348 -1.3972 -0.4115 -0.2122
10101TIP3   OH251717   5.799   2.571   0.756  0.0527 -0.2217  0.1573
10101TIP3    H151718   5.827   2.487   0.791 -0.4507 -0.0734  0.9365
10101TIP3    H251719   5.793   2.628   0.833 -2.1177 -0.1842  0.0012
10102TIP3   OH251720   0.510   4.350   5.041  0.3810 -0.0111  0.2443
10102TIP3    H151721   0.465   4.394   5.114 -1.3312 -0.0925 -0.7059
10102TIP3    H251722   0.465   4.383   4.963 -0.3035 -2.6513 -0.5791
10103TIP3   OH251723   6.157   5.046  15.706  0.2863  0.3382 -0.4197
10103TIP3    H151724   6.063   5.036  15.723  0.1960  1.6693 -0.0249
10103TIP3    H251725   6.195   5.064  15.792  0.5525  2.1356 -0.8667
10104TIP3   OH251726   3.135   4.774   2.358  0.3271 -0.2516  0.0726
10104TIP3    H151727   3.096   4.854   2.393 -1.4314 -0.8388 -0.4320
10104TIP3    H251728   3.221   4.801   2.328 -0.2617  1.4891 -0.1751
10105TIP3   OH251729   1.414   4.584   4.859  0.0518  0.4114  0.4241
10105TIP3    H151730   1.467   4.659   4.886  1.5731 -0.8746  1.1290
10105TIP3    H251731   1.383   4.606   4.771 -0.0448  2.1061  0.8451
10106TIP3   OH251732   2.987   4.650  14.777  0.1340  0.0162 -0.0850
10106TIP3    H151733   3.057   4.597  14.740 -1.8625 -2.4662 -0.5814
10106TIP3    H251734   2.971   4.612  14.863 -0.8648  0.2406 -0.1594
10107TIP3   OH251735   3.301   2.692  11.138 -0.3143 -0.1634 -0.2543
10107TIP3    H151736   3.293   2.741  11.219  0.4025 -0.0124 -0.2624
10107TIP3    H251737   3.381   2.726  11.097 -1.2655  0.5865 -1.5956
10108TIP3   OH251738   6.674   5.964  11.494 -0.4344 -0.0839 -1.1293
10108TIP3    H151739   6.755   5.950  11.542 -0.1102 -1.3958 -2.0104
10108TIP3    H251740   6.657   6.058  11.502  0.9823  0.1463 -0.6344
10109TIP3   OH251741   4.306   2.685  17.040 -0.2439 -0.1307  0.6995
10109TIP3    H151742   4.388   2.666  17.084 -0.9733 -0.8130  1.8139
10109TIP3    H251743   4.296   2.780  17.049  0.6192  0.0264  0.1575
10110TIP3   OH251744   1.830   3.792  12.234 -0.1769 -0.0477 -0.0302
10110TIP3    H151745   1.919   3.827  12.230 -1.2706  3.3056  1.3383
10110TIP3    H251746   1.841   3.697  12.239  3.1545  0.0176 -2.8982
10111TIP3   OH251747   1.187   0.657   0.162  0.1038 -0.0632  0.5746
10111TIP3    H151748   1.203   0.731   0.220 -0.1561  1.0186 -0.6639
10111TIP3    H251749   1.242   0.586   0.196  1.3777  1.1088  1.0260
10112TIP3   OH251750   2.579   0.067   1.268  0.4933 -0.7161 -0.4102
10112TIP3    H151751   2.610  -0.024   1.273  2.1019 -0.1432  1.4658
10112TIP3    H251752   2.600   0.095   1.179 -0.6614 -2.3533 -1.2546
10113TIP3   OH251753   5.762   4.214   1.615 -0.0427  0.0195  0.7442
10113TIP3    H151754   5.687   4.269   1.592  1.0369  1.4210  0.4519
10113TIP3    H251755   5.833   4.245   1.558  0.5063 -1.9441  0.3049
10114TIP3   OH251756   4.070   2.093   3.451 -0.2118  0.2187  0.5916
10114TIP3    H151757   4.092   2.047   3.370 -0.7638 -0.2618  0.7030
10114TIP3    H251758   4.019   2.169   3.422 -1.0374 -0.3454  0.5189
10115TIP3   OH251759   0.701   3.164  10.653 -0.5400 -0.0153 -0.6934
10115TIP3    H151760   0.628   3.187  10.711 -1.0713 -0.7426 -1.0605
10115TIP3    H251761   0.732   3.248  10.621  0.6239  0.5375  1.6341
10116TIP3   OH251762   6.254   5.379   1.437  0.2519 -0.2128  0.3389
10116TIP3    H151763   6.282   5.466   1.408 -2.4509  0.1388 -1.7179
10116TIP3    H251764   6.278   5.375   1.529  1.6363  2.1784  0.1702
10117TIP3   OH251765   4.087   3.808   3.024  0.1771  0.4643 -0.7621
10117TIP3    H151766   4.104   3.891   2.980 -1.0969  0.4008 -1.4220
10117TIP3    H251767   4.061   3.833   3.113 -0.6012  0.8094 -1.0762
10118TIP3   OH251768   2.724   4.421  12.739  0.5560 -0.6912  0.3822
10118TIP3    H151769   2.644   4.429  12.791 -0.7993  0.7863 -1.7668
10118TIP3    H251770   2.708   4.476  12.663  3.2692 -1.1384 -0.5978
10119TIP3   OH251771   2.541   0.851  14.329 -0.6934  0.2574  0.2559
10119TIP3    H151772   2.512   0.836  14.419 -0.2942 -0.9991  0.1972
10119TIP3    H251773   2.602   0.924  14.335  2.2807 -2.1142  1.6875
10120TIP3   OH251774   1.941   1.755  12.210 -0.6767  0.2583 -0.2941
10120TIP3    H151775   1.973   1.801  12.133 -0.4595 -0.1656 -0.4634
10120TIP3    H251776   1.930   1.664  12.181 -3.0835  0.5727 -0.5395
10121TIP3   OH251777   1.749   3.355  13.156  0.3044  0.6288 -0.0449
10121TIP3    H151778   1.682   3.315  13.102  1.4134 -1.8024  0.2452
10121TIP3    H251779   1.765   3.440  13.115 -2.0949  0.7993 -0.7688
10122TIP3   OH251780   5.506   0.820  13.217 -0.3598  0.3328 -0.2890
10122TIP3    H151781   5.478   0.843  13.129  0.8461 -0.1599 -0.8265
10122TIP3    H251782   5.489   0.726  13.225 -2.9744  0.8343  1.0122
10123TIP3   OH251783   4.259   3.066  11.891  0.2153 -0.1467 -0.1738
10123TIP3    H151784   4.323   3.018  11.838 -0.3293 -1.1558  0.0580
10123TIP3    H251785   4.287   3.053  11.981 -0.5842 -1.0271 -0.0371
10124TIP3   OH251786   5.973   1.189   5.277 -0.0788  0.1517 -0.4568
10124TIP3    H151787   5.905   1.219   5.337 -1.2212  0.6061 -1.9131
10124TIP3    H251788   6.003   1.268   5.232  1.0939 -0.1118 -0.1690
10125TIP3   OH251789   6.213   3.571  12.446  0.1304 -0.0007  0.8769
10125TIP3    H151790   6.279   3.542  12.382 -1.2598  0.9218 -1.0971
10125TIP3    H251791   6.166   3.491  12.469  1.2731 -0.5053  1.5449
10126TIP3   OH251792   2.404   3.903  12.320 -0.2080  0.3632 -0.2761
10126TIP3    H151793   2.393   3.985  12.271 -1.2942  0.8271  0.6949
10126TIP3    H251794   2.318   3.887  12.358  0.2978 -0.6447  0.4650
10127TIP3   OH251795   4.198   6.394   4.943 -0.3857 -0.2956 -0.1167
10127TIP3    H151796   4.266   6.345   4.897  0.7701  0.9489  0.2146
10127TIP3    H251797   4.175   6.465   4.883 -0.5869 -0.0501  0.2461
10128TIP3   OH251798   6.239   1.367  16.316 -0.8953  0.0492  0.0286
10128TIP3    H151799   6.164   1.388  16.372 -1.1832 -0.5849 -0.1086
10128TIP3    H251800   6.280   1.452  16.297 -2.8561  0.6751 -1.7275
10129TIP3   OH251801   0.069   1.100  13.697  0.2155 -0.4330 -0.3400
10129TIP3    H151802   0.119   1.019  13.705 -2.5715 -2.1963  1.0783
10129TIP3    H251803   0.090   1.149  13.777  0.3103 -0.7636 -0.1610
10130TIP3   OH251804   4.472   0.073  14.275 -0.0373  0.3998 -0.5731
10130TIP3    H151805   4.553   0.095  14.228  1.6328  0.1967  2.0346
10130TIP3    H251806   4.440   0.157  14.308 -1.4846  0.6114 -2.3161
10131TIP3   OH251807   5.618   6.523   5.129 -0.4768 -0.2729  0.0009
10131TIP3    H151808   5.676   6.597   5.115 -0.1502 -0.5087  0.1122
10131TIP3    H251809   5.639   6.490   5.216 -1.1356 -0.0403  0.2577
10132TIP3   OH251810   5.538   6.309  15.681  0.0104  0.0745 -0.2009
10132TIP3    H151811   5.490   6.231  15.708 -1.3567  0.5815 -1.0855
10132TIP3    H251812   5.572   6.347  15.763 -1.6565  0.0657  0.5216
10133TIP3   OH251813   1.056   0.997  16.187  0.1116  0.7329 -0.3434
10133TIP3    H151814   1.002   1.004  16.108  1.0108 -2.2199 -1.3329
10133TIP3    H251815   1.071   0.904  16.198  3.1098  1.2821  1.2399
10134TIP3   OH251816   1.033   6.220  15.421 -0.3812 -0.2638 -0.3731
10134TIP3    H151817   1.063   6.269  15.497 -1.1679  0.1474 -0.3210
10134TIP3    H251818   1.076   6.262  15.346  1.7482 -1.7134 -0.0606
10135TIP3   OH251819   0.881   0.160   0.314  0.6024 -0.2172 -0.1088
10135TIP3    H151820   0.889   0.175   0.220 -1.9066  1.5433 -0.1378
10135TIP3    H251821   0.916   0.072   0.327 -0.4216 -1.1651 -2.9505
10136TIP3   OH251822   6.146   0.590   3.994 -0.2137  0.6020  0.0043
10136TIP3    H151823   6.202   0.663   4.019  0.7606 -0.0818 -0.0955
10136TIP3    H251824   6.059   0.628   3.983  0.0920  1.5701  0.8326
10137TIP3   OH251825   4.458   2.997   4.462 -0.0120 -0.5012  0.4783
10137TIP3    H151826   4.522   2.930   4.482  0.7915  0.0402 -0.2276
10137TIP3    H251827   4.434   3.034   4.548  1.9724  0.5147  0.6402
10138TIP3   OH251828   4.425   0.087  14.934 -0.2209 -0.6030 -0.0794
10138TIP3    H151829   4.513   0.105  14.966 -0.8757  1.3822  0.8163
10138TIP3    H251830   4.411   0.153  14.866 -1.7798  0.6913  1.3882
10139TIP3   OH251831   5.975   5.931   3.454 -0.2702  0.3617  0.8371
10139TIP3    H151832   6.010   5.976   3.376  0.1089 -0.5339  0.4752
10139TIP3    H251833   5.881   5.924   3.437 -0.0286 -0.9606 -0.1647
10140TIP3   OH251834   4.008   0.371   1.554  0.5118 -0.1405 -0.3130
10140TIP3    H151835   4.015   0.420   1.636 -0.2596  2.2628 -1.6174
10140TIP3    H251836   3.963   0.290   1.579 -1.5631  1.4227  1.3076
10141TIP3   OH251837   5.079   1.010  12.352 -0.3209 -0.0160  0.0781
10141TIP3    H151838   5.037   0.974  12.274 -0.8877  0.0322  0.3521
10141TIP3    H251839   5.006   1.047  12.403 -0.0102 -0.4582  0.8489
10142TIP3   OH251840   3.123   0.948   3.802 -0.2652 -0.4053 -0.0489
10142TIP3    H151841   3.183   0.968   3.874  1.3038  0.5364 -1.5519
10142TIP3    H251842   3.153   0.863   3.768 -2.1940 -1.8126  1.5231
10143TIP3   OH251843   3.575   1.295   0.024  0.0094 -0.6248 -0.1871
10143TIP3    H151844   3.496   1.260   0.064 -0.3354 -0.3962 -0.6663
10143TIP3    H251845   3.643   1.281   0.090 -0.7447  0.6819  0.9135
10144TIP3   OH251846   4.244   4.398   0.463 -0.2523  0.1245  0.1203
10144TIP3    H151847   4.251   4.377   0.556 -0.7780  2.2341  0.6951
10144TIP3    H251848   4.270   4.317   0.418 -2.5791 -1.8324  2.0396
10145TIP3   OH251849   2.973   4.302   0.306  0.2222  0.0963 -0.1815
10145TIP3    H151850   2.980   4.323   0.213 -0.5741  1.2906  0.0150
10145TIP3    H251851   2.991   4.384   0.351 -2.0951  0.2226  0.6336
10146TIP3   OH251852   4.634   4.376   5.053  0.0130  0.2121  0.0332
10146TIP3    H151853   4.712   4.425   5.076 -0.7862  0.8006  1.6631
10146TIP3    H251854   4.610   4.329   5.133 -1.9287  0.9667 -0.0381
10147TIP3   OH251855   4.192   4.335   4.162  0.8543 -0.1585  0.1341
10147TIP3    H151856   4.187   4.395   4.088  0.4227 -2.1236 -1.5080
10147TIP3    H251857   4.258   4.270   4.136 -2.2989 -3.3965 -0.5815
10148TIP3   OH251858   4.615   4.123  11.383 -0.1456 -0.3704 -0.1063
10148TIP3    H151859   4.665   4.092  11.307 -0.9116 -2.8802  0.3270
10148TIP3    H251860   4.557   4.190  11.348  0.4121 -0.5685 -1.4740
10149TIP3   OH251861   1.507   4.887  14.835  0.5183  0.8548 -0.6715
10149TIP3    H151862   1.541   4.831  14.766  0.2743 -0.0765 -0.0471
10149TIP3    H251863   1.417   4.905  14.809 -0.1665 -0.9928  0.2837
10150TIP3   OH251864   6.616   5.071   4.225  0.4425  0.2736 -0.1647
10150TIP3    H151865   6.648   5.089   4.313 -0.2423 -0.9477  0.3717
10150TIP3    H251866   6.657   4.987   4.202 -0.1733  0.0867 -0.5913
10151TIP3   OH251867   6.077   3.752  16.226  0.3888 -0.4970 -0.1905
10151TIP3    H151868   5.997   3.802  16.242  0.0978 -0.9838 -0.0893
10151TIP3    H251869   6.145   3.818  16.215 -0.0107 -0.0791 -0.1823
10152TIP3   OH251870   0.766   1.484  14.425  0.1173  0.4189  0.7873
10152TIP3    H151871   0.778   1.482  14.520  1.0343 -0.2198  0.6664
10152TIP3    H251872   0.855   1.480  14.389 -0.2747 -0.5193 -0.1206
10153TIP3   OH251873   5.677   3.790   3.280  0.2968  0.3237  0.8833
10153TIP3    H151874   5.627   3.863   3.316 -0.8287 -0.1409  0.3111
10153TIP3    H251875   5.650   3.715   3.333 -1.6383 -0.4437 -1.0046
10154TIP3   OH251876   0.873   1.688   6.321  0.1766  0.2503  0.3327
10154TIP3    H151877   0.871   1.781   6.341 -2.8476  0.7948 -1.8745
10154TIP3    H251878   0.924   1.681   6.240  1.5875 -0.2774  1.2174
10155TIP3   OH251879   0.478   3.708  15.163  0.0046  0.0627  0.7702
10155TIP3    H151880   0.510   3.768  15.229  0.5189 -0.3084  0.8593
10155TIP3    H251881   0.395   3.674  15.198 -0.1410  0.4957  0.8444
10156TIP3   OH251882   1.400   5.584  16.611  0.4125  0.0488 -0.2768
10156TIP3    H151883   1.409   5.570  16.517  0.7897  0.1969 -0.2635
10156TIP3    H251884   1.490   5.584  16.644  0.2305 -2.7521  0.4900
10157TIP3   OH251885   1.231   3.529  14.435 -0.0168  0.1635  0.4438
10157TIP3    H151886   1.223   3.567  14.348  0.8074 -2.2026 -0.7412
10157TIP3    H251887   1.296   3.584  14.479  0.2600  0.8482 -0.7701
10158TIP3   OH251888   0.945   2.277  15.894 -0.5838  0.1631 -0.0775
10158TIP3    H151889   1.014   2.216  15.868 -0.3567 -0.2632  1.4179
10158TIP3    H251890   0.989   2.362  15.901 -0.2712 -0.0481  0.5651
10159TIP3   OH251891   3.588   0.322  14.033  0.6311 -0.1668 -0.3401
10159TIP3    H151892   3.619   0.335  13.944  0.9543  0.1046 -0.1874
10159TIP3    H251893   3.495   0.343  14.029  0.8691  0.9250 -0.3760
10160TIP3   OH251894   3.692   2.359   3.219 -0.0840  0.5222  0.4013
10160TIP3    H151895   3.682   2.296   3.290 -0.0152 -0.6997 -0.6389
10160TIP3    H251896   3.786   2.359   3.200  0.1914  2.2611  1.5296
10161TIP3   OH251897   4.101   5.703  15.277 -0.0671  0.0589 -0.1267
10161TIP3    H151898   4.154   5.688  15.198  0.8534 -2.9146  0.8987
10161TIP3    H251899   4.011   5.693  15.247  0.2496 -0.6556 -0.9098
10162TIP3   OH251900   4.755   3.721   5.850 -0.5706 -0.1609 -0.3000
10162TIP3    H151901   4.822   3.721   5.919 -0.6446  0.8147 -0.2168
10162TIP3    H251902   4.794   3.774   5.780 -0.9978 -0.1129 -0.5013
10163TIP3   OH251903   4.206   5.346  17.131 -0.5621  0.6279  0.0438
10163TIP3    H151904   4.235   5.411  17.067 -0.1810 -0.0418 -0.4787
10163TIP3    H251905   4.200   5.265  17.081 -1.8466  0.4182  0.4885
10164TIP3   OH251906   4.601   6.440   1.124 -0.5821 -0.0484  0.0592
10164TIP3    H151907   4.677   6.483   1.164 -0.1965  0.3913 -1.1004
10164TIP3    H251908   4.536   6.510   1.117 -1.5719 -0.6712  2.0877
10165TIP3   OH251909   5.369   4.785   4.406  0.3624  0.1449 -0.3789
10165TIP3    H151910   5.276   4.801   4.424  0.2935  1.0150 -1.4293
10165TIP3    H251911   5.414   4.819   4.483 -0.0750  1.6692 -0.7586
10166TIP3   OH251912   1.549   0.338   5.711 -0.3037 -0.3917  0.0255
10166TIP3    H151913   1.552   0.425   5.672 -0.3566  0.0335  0.9626
10166TIP3    H251914   1.531   0.353   5.804  1.3239 -1.3086  0.5200
10167TIP3   OH251915   6.693   0.256  12.552 -0.0455  0.2804  0.1879
10167TIP3    H151916   6.647   0.314  12.491 -1.6643 -1.7656 -0.6810
10167TIP3    H251917   6.785   0.261  12.525  0.0328  3.0004  0.6903
10168TIP3   OH251918   4.259   2.796  13.442 -0.0488  0.0948 -0.1778
10168TIP3    H151919   4.345   2.755  13.436  0.1030  0.3515  0.2236
10168TIP3    H251920   4.199   2.732  13.404  0.2009 -0.4585  0.3441
10169TIP3   OH251921   5.680   2.634   6.084  0.0997  0.4156 -0.1290
10169TIP3    H151922   5.768   2.621   6.118 -0.2331 -0.0046  0.6027
10169TIP3    H251923   5.649   2.546   6.063  0.0800  0.6168 -0.9878
10170TIP3   OH251924   0.896   1.127  17.058 -0.0507  0.1977  0.3003
10170TIP3    H151925   0.901   1.070  16.982  1.4055  1.5326 -0.6749
10170TIP3    H251926   0.938   1.077  17.128 -0.4794 -0.6452 -0.0344
10171TIP3   OH251927   4.244   2.334  11.874  0.3452 -0.3572 -0.4626
10171TIP3    H151928   4.180   2.371  11.813 -0.1316 -1.0297 -0.3879
10171TIP3    H251929   4.300   2.279  11.820 -0.0161 -0.8748 -0.3215
10172TIP3   OH251930   0.061   0.244   4.386 -0.6060  0.4118 -0.5989
10172TIP3    H151931   0.102   0.187   4.320 -0.3816 -0.0117 -0.1045
10172TIP3    H251932   0.063   0.192   4.467 -1.5787  0.6230 -0.4269
10173TIP3   OH251933   2.489   6.166  12.903 -0.0914 -0.7702  0.0548
10173TIP3    H151934   2.556   6.232  12.915 -1.0870  0.3780 -0.5018
10173TIP3    H251935   2.469   6.135  12.991 -0.8972  1.0118  0.5441
10174TIP3   OH251936   3.367   1.201   3.376  0.4916 -0.0415 -0.2319
10174TIP3    H151937   3.272   1.193   3.369  0.5705 -0.5452 -0.8120
10174TIP3    H251938   3.397   1.112   3.396  0.8222  0.1617  0.1848
10175TIP3   OH251939   6.291   4.324   0.741  0.5763  0.2862  0.9683
10175TIP3    H151940   6.261   4.414   0.758  0.4753  1.1146 -2.7327
10175TIP3    H251941   6.375   4.318   0.786  0.7701  2.3999  1.0143
10176TIP3   OH251942   1.582   1.374  14.535  0.2773  0.0506 -0.0402
10176TIP3    H151943   1.625   1.312  14.594 -1.1642  0.3194  1.3635
10176TIP3    H251944   1.653   1.429  14.501  1.2666 -0.8177  0.5690
10177TIP3   OH251945   1.406   3.166  12.132  0.6837 -0.9530  0.0558
10177TIP3    H151946   1.464   3.142  12.060  2.0812 -0.4839  0.9920
10177TIP3    H251947   1.319   3.138  12.103  1.1009 -0.1719 -2.0863
10178TIP3   OH251948   0.137   0.689   4.463 -0.5429 -0.1342 -0.1913
10178TIP3    H151949   0.142   0.628   4.390 -0.3620 -0.2825 -0.0555
10178TIP3    H251950   0.226   0.690   4.500 -0.6700 -0.1724  0.1166
10179TIP3   OH251951   6.242   0.080   5.663 -0.7790 -0.0182 -0.8706
10179TIP3    H151952   6.217   0.104   5.753 -3.6316 -1.1396 -1.2714
10179TIP3    H251953   6.247   0.164   5.617  0.2268  0.5351  0.1772
10180TIP3   OH251954   2.462   3.140  15.125  0.0965  0.5185 -0.2804
10180TIP3    H151955   2.505   3.125  15.209 -0.6492  0.2464  0.0616
10180TIP3    H251956   2.428   3.054  15.099  4.1656 -0.5003 -3.1040
10181TIP3   OH251957   6.477   2.682   0.616  0.6453  0.2711 -0.3728
10181TIP3    H151958   6.544   2.649   0.676  0.2303 -0.5617 -0.3507
10181TIP3    H251959   6.507   2.654   0.529  0.3519 -0.0589 -0.3683
10182TIP3   OH251960   3.434   0.364   4.380 -0.1733 -0.7982 -0.1870
10182TIP3    H151961   3.369   0.353   4.449 -0.3986  1.0321 -0.0433
10182TIP3    H251962   3.508   0.407   4.422  0.1323 -0.6483 -0.8579
10183TIP3   OH251963   3.758   1.286   2.832 -0.0355  0.1390 -0.5358
10183TIP3    H151964   3.705   1.364   2.850  1.3313  0.8396  0.6691
10183TIP3    H251965   3.743   1.229   2.908  0.9736  0.3890 -0.1316
10184TIP3   OH251966   1.139   5.373   1.472 -0.3091  0.3212  0.3343
10184TIP3    H151967   1.076   5.305   1.497 -0.1098 -0.2209 -0.6052
10184TIP3    H251968   1.205   5.370   1.541  0.5506 -1.5709 -0.5026
10185TIP3   OH251969   4.688   0.240   2.870  0.3959  0.1724  0.3388
10185TIP3    H151970   4.731   0.159   2.898  1.1030  0.5899  0.5021
10185TIP3    H251971   4.751   0.309   2.893 -0.9329  0.9560  1.8638
10186TIP3   OH251972   0.420   4.116   4.612  0.1626 -0.6942 -0.0205
10186TIP3    H151973   0.414   4.099   4.706 -1.2485  0.4633  0.1353
10186TIP3    H251974   0.511   4.098   4.590  0.9287  0.5419  1.8945
10187TIP3   OH251975   4.010   0.793  16.539  0.1451 -0.1853 -0.2580
10187TIP3    H151976   4.081   0.821  16.596 -0.2994  0.6077 -0.0708
10187TIP3    H251977   3.964   0.726  16.589 -1.5901  2.0415  1.3566
10188TIP3   OH251978   6.443   5.033  13.122  0.7952  0.3670  0.1189
10188TIP3    H151979   6.480   5.025  13.210  2.3916 -0.0589 -0.5434
10188TIP3    H251980   6.408   5.122  13.118 -1.4551 -0.3537  1.9268
10189TIP3   OH251981   5.014   3.568   0.394 -0.0584  0.6136 -0.3500
10189TIP3    H151982   5.030   3.501   0.328 -0.9549 -0.3502  0.3755
10189TIP3    H251983   4.925   3.599   0.377 -0.7301 -0.4385  1.0436
10190TIP3   OH251984   0.094   3.426  17.123  0.0471  0.7437 -0.3827
10190TIP3    H151985   0.161   3.416  17.056  1.3230  0.6694  0.8366
10190TIP3    H251986   0.133   3.385  17.201 -0.8477  1.9054  0.7141
10191TIP3   OH251987   0.091   5.160   4.539 -0.4345  0.0524 -0.4635
10191TIP3    H151988   0.136   5.210   4.471  0.6724 -1.0628 -0.6019
10191TIP3    H251989   0.000   5.189   4.535 -0.2333  0.5455 -1.9131
10192TIP3   OH251990   3.174   4.132   5.311  0.1744 -0.3693  0.2239
10192TIP3    H151991   3.124   4.136   5.229  1.0213 -0.6886 -0.3324
10192TIP3    H251992   3.255   4.180   5.291 -0.4993  1.4229  1.5587
10193TIP3   OH251993   3.416   5.242  12.426  0.4392 -0.1580  0.6800
10193TIP3    H151994   3.455   5.158  12.451 -1.6926 -2.2405 -2.2515
10193TIP3    H251995   3.485   5.288  12.379  1.7441  0.0164  2.6260
10194TIP3   OH251996   6.073   0.636   5.806  0.3521 -0.1606  0.0909
10194TIP3    H151997   6.125   0.665   5.731  0.0568  1.5164  0.4914
10194TIP3    H251998   5.983   0.653   5.780  0.1419 -0.9624  0.2705
10195TIP3   OH251999   3.254   0.775   4.883  0.1265  0.7454  0.7308
10195TIP3    H152000   3.301   0.825   4.816 -0.2357  0.4069  0.2140
10195TIP3    H252001   3.257   0.684   4.852 -1.2089  0.7749  0.4797
10196TIP3   OH252002   5.317   0.754   5.774 -0.4631 -0.6597  0.5161
10196TIP3    H152003   5.347   0.671   5.736 -1.5317 -1.2669  0.9350
10196TIP3    H252004   5.386   0.817   5.753  0.4374 -1.6853  0.3064
10197TIP3   OH252005   1.148   0.888  16.601 -0.2740  0.2909  0.2568
10197TIP3    H152006   1.146   0.821  16.533  0.5615  1.2119 -0.7120
10197TIP3    H252007   1.067   0.937  16.589 -1.7818 -1.5805  2.1158
10198TIP3   OH252008   5.544   1.763  13.503 -0.0863 -0.1239 -0.2945
10198TIP3    H152009   5.522   1.798  13.417 -0.4450 -0.1323 -0.2072
10198TIP3    H252010   5.639   1.777  13.511 -0.1663  0.5087 -0.4076
10199TIP3   OH252011   2.071   4.239   5.728  0.1145  0.0262  0.1554
10199TIP3    H152012   2.156   4.275   5.702 -0.7309  1.8834 -0.2180
10199TIP3    H252013   2.088   4.146   5.743  2.3639  0.4801  0.8206
10200TIP3   OH252014   3.494   3.145  10.642  0.4741  0.3831 -1.0262
10200TIP3    H152015   3.523   3.189  10.562  2.0869  0.5059 -0.4275
10200TIP3    H252016   3.555   3.177  10.709 -0.7898  0.2221  0.2317
10201TIP3   OH252017   0.463   5.414  10.930  0.0397  0.4772 -0.1437
10201TIP3    H152018   0.529   5.368  10.982 -0.7131  0.5566  0.9195
10201TIP3    H252019   0.478   5.384  10.840  0.1025 -1.1896  0.3936
10202TIP3   OH252020   3.331   0.545   0.420  0.2756  0.4404  0.3010
10202TIP3    H152021   3.246   0.547   0.463 -0.5353  0.5354 -1.2570
10202TIP3    H252022   3.314   0.511   0.333  2.1264 -1.3262  0.5494
10203TIP3   OH252023   5.712   1.540   5.995 -0.0149  0.1287  0.2612
10203TIP3    H152024   5.754   1.455   6.006  0.0544  0.3819  2.3280
10203TIP3    H252025   5.695   1.571   6.084  0.9162  2.7624 -0.3632
10204TIP3   OH252026   1.840   3.134   0.856  0.4181 -0.4236 -0.0598
10204TIP3    H152027   1.923   3.182   0.857 -0.0455  0.4209 -0.9542
10204TIP3    H252028   1.862   3.050   0.814  0.7188 -0.0058 -0.7495
10205TIP3   OH252029   6.691   3.652  13.690 -0.1436  0.1335  0.0927
10205TIP3    H152030   6.665   3.566  13.658  0.0015 -0.1347  0.6814
10205TIP3    H252031   6.763   3.679  13.633  0.3261 -0.4741  0.3930
10206TIP3   OH252032   0.910   3.044   2.889 -0.4405  0.3543  0.3962
10206TIP3    H152033   0.828   3.025   2.933 -0.6076 -0.3370 -0.1917
10206TIP3    H252034   0.976   3.039   2.958 -0.7679 -0.1222  0.6835
10207TIP3   OH252035   6.375   5.430  11.281 -0.4049  0.8553 -0.1769
10207TIP3    H152036   6.455   5.399  11.324 -0.9528  1.1705  1.0989
10207TIP3    H252037   6.394   5.421  11.187  1.0474  0.7420  0.1018
10208TIP3   OH252038   6.100   5.186  13.025 -0.0881 -0.4968 -0.1658
10208TIP3    H152039   6.104   5.121  13.096 -2.0543 -1.2539 -0.6854
10208TIP3    H252040   6.108   5.270  13.070  0.9116 -1.0181  0.6960
10209TIP3   OH252041   6.212   0.088  15.927 -0.4322 -0.2769  0.0483
10209TIP3    H152042   6.297   0.113  15.963  0.4648  0.1744 -2.2117
10209TIP3    H252043   6.185   0.164  15.875 -1.2963 -1.1597 -0.8223
10210TIP3   OH252044   0.562   2.245  14.905 -0.0361  0.2474  0.2696
10210TIP3    H152045   0.475   2.236  14.942  0.8550 -0.9719  2.2675
10210TIP3    H252046   0.559   2.196  14.823 -1.3123  0.5485  0.1294
10211TIP3   OH252047   1.720   1.031   4.001 -0.0839 -0.5382 -0.1505
10211TIP3    H152048   1.629   1.025   4.032  0.6607 -1.4166  2.0612
10211TIP3    H252049   1.748   0.940   3.993  0.7427 -0.2689 -0.3943
10212TIP3   OH252050   4.221   3.588  12.617 -0.0136  0.6019 -0.0438
10212TIP3    H152051   4.286   3.585  12.688  0.0955  1.1163 -0.1129
10212TIP3    H252052   4.181   3.674  12.626 -0.1312  0.5958 -0.4940
10213TIP3   OH252053   3.220   4.604   4.019 -0.8906 -0.0190  0.7634
10213TIP3    H152054   3.280   4.603   3.944  0.0662 -0.4240  1.5126
10213TIP3    H252055   3.213   4.512   4.045 -1.2636  0.1123  1.1350
10214TIP3   OH252056   0.449   0.682  11.586  0.3135  0.2476 -0.1224
10214TIP3    H152057   0.428   0.775  11.588 -0.7068  0.0193  1.0614
10214TIP3    H252058   0.379   0.640  11.636  1.0642 -1.0973 -0.1355
10215TIP3   OH252059   0.445   5.621   2.608 -0.2576 -0.3498  0.3742
10215TIP3    H152060   0.538   5.644   2.607 -0.3279  0.4188  3.1860
10215TIP3    H252061   0.443   5.527   2.592  0.8743 -0.1980 -0.8427
10216TIP3   OH252062   6.377   0.151   3.246 -0.2347  0.1439  0.2453
10216TIP3    H152063   6.347   0.073   3.201  2.3260 -1.0127  0.4006
10216TIP3    H252064   6.391   0.216   3.177  1.7310 -0.9632 -0.4526
10217TIP3   OH252065   2.040   1.977   2.905  0.3542 -0.4805  0.1897
10217TIP3    H152066   1.981   1.908   2.876  0.9630 -1.1582  0.5321
10217TIP3    H252067   2.118   1.931   2.934  1.6828  0.4682 -1.6631
10218TIP3   OH252068   2.768   1.281  13.550 -0.5111 -0.5372 -0.0198
10218TIP3    H152069   2.832   1.345  13.579 -1.6101  0.7162 -0.2373
10218TIP3    H252070   2.755   1.300  13.457 -0.9335 -0.9932 -0.0615
10219TIP3   OH252071   0.945   3.712  16.373 -0.1906  0.6386 -0.5948
10219TIP3    H152072   1.001   3.774  16.421 -0.8167  0.4252  0.4550
10219TIP3    H252073   0.928   3.642  16.436 -1.3594  0.5398 -0.9992
10220TIP3   OH252074   5.992   6.659   1.376  0.7683  0.4504 -0.5931
10220TIP3    H152075   5.910   6.708   1.381  1.5889  1.9073 -0.9354
10220TIP3    H252076   6.016   6.644   1.467 -0.8360 -1.7335 -0.4482
10221TIP3   OH252077   6.353   3.726   3.393 -0.7571 -0.4324  0.4906
10221TIP3    H152078   6.279   3.689   3.441  0.2977 -1.2107  1.5494
10221TIP3    H252079   6.419   3.744   3.460 -0.1225  0.6432 -0.3806
10222TIP3   OH252080   0.822   5.668   5.506 -0.0679  0.1475  0.0222
10222TIP3    H152081   0.840   5.592   5.561  1.4864 -0.4794 -1.2452
10222TIP3    H252082   0.810   5.631   5.418  1.0621  1.3498 -0.6793
10223TIP3   OH252083   4.986   6.716   6.031  0.2497  0.3966 -0.3561
10223TIP3    H152084   4.912   6.699   6.090  0.7760  0.5492  0.3600
10223TIP3    H252085   5.026   6.631   6.018  1.5268  0.6705  1.4078
10224TIP3   OH252086   6.622   1.975   1.693  0.2191  0.3273  0.5019
10224TIP3    H152087   6.636   2.065   1.723  1.0266 -0.3468  2.2897
10224TIP3    H252088   6.572   1.934   1.764 -2.2285 -0.0632 -1.3081
10225TIP3   OH252089   0.480   2.937  11.913 -0.5948 -0.1443 -0.2924
10225TIP3    H152090   0.553   2.904  11.965 -1.2674 -1.7016 -0.2778
10225TIP3    H252091   0.508   2.926  11.822 -1.1193 -1.5532 -0.3025
10226TIP3   OH252092   3.006   6.745  13.011 -0.5422  0.5137 -0.5155
10226TIP3    H152093   3.002   6.704  12.925 -0.0126 -1.0856  0.1762
10226TIP3    H252094   2.924   6.721  13.053  0.6872 -1.9176  0.7216
10227TIP3   OH252095   4.616   0.088   5.652  0.0023  0.6288 -0.3381
10227TIP3    H152096   4.652   0.150   5.716 -0.7551 -1.1068  1.9096
10227TIP3    H252097   4.573   0.143   5.587 -1.2978  2.5132  1.9384
10228TIP3   OH252098   3.496   5.190   5.391 -0.0033  0.4838  0.5723
10228TIP3    H152099   3.500   5.213   5.484  1.5514  0.3711  0.5626
10228TIP3    H252100   3.552   5.113   5.384 -0.4826  0.2175 -0.3858
10229TIP3   OH252101   0.050   3.053  15.073  0.1090  0.6564  0.0964
10229TIP3    H152102   0.128   3.078  15.023 -0.2907  1.5680 -0.0952
10229TIP3    H252103   0.079   3.052  15.164  0.1392  1.8499  0.1073
10230TIP3   OH252104   3.617   4.610   4.666 -0.1639 -0.4310  0.2075
10230TIP3    H152105   3.687   4.612   4.601  0.1479 -0.7438  0.5231
10230TIP3    H252106   3.552   4.550   4.629  0.4563 -1.3864  0.6078
10231TIP3   OH252107   2.548   0.453  14.742  0.3265 -0.2042 -0.1608
10231TIP3    H152108   2.575   0.371  14.784  0.4410 -1.2792 -2.2014
10231TIP3    H252109   2.622   0.512  14.756  0.3798 -0.5384  1.0586
10232TIP3   OH252110   1.945   3.505  15.974 -0.3719  0.0218 -0.6025
10232TIP3    H152111   1.883   3.475  16.040 -0.8827  0.7603 -0.7429
10232TIP3    H252112   1.902   3.486  15.890 -0.2119  0.1182 -0.7060
10233TIP3   OH252113   5.394   3.207   5.638  0.1975 -0.4139  0.6340
10233TIP3    H152114   5.370   3.262   5.564 -0.5628 -1.1979  0.2760
10233TIP3    H252115   5.313   3.195   5.687  0.2736 -1.4277  0.5430
10234TIP3   OH252116   4.031   5.130   0.267 -0.4016  0.0694 -0.6650
10234TIP3    H152117   4.112   5.177   0.248  0.6337 -0.7260  1.4650
10234TIP3    H252118   4.037   5.050   0.216 -0.0120  0.1833 -0.8024
10235TIP3   OH252119   4.899   6.492   5.771 -0.3089 -0.4062  0.3298
10235TIP3    H152120   4.986   6.495   5.809 -0.8974  0.6472  1.6825
10235TIP3    H252121   4.842   6.530   5.837 -1.8271 -1.1462 -0.4802
10236TIP3   OH252122   0.087   4.900  14.717 -0.1865  0.1125  0.4492
10236TIP3    H152123   0.075   4.832  14.651 -0.0505  0.3695  0.1530
10236TIP3    H252124   0.182   4.916  14.718 -0.0816 -0.5604  1.3957
10237TIP3   OH252125   2.928   2.821  13.249  0.5951 -0.0929 -0.1638
10237TIP3    H152126   2.846   2.852  13.210  0.3687  0.9196  1.0758
10237TIP3    H252127   2.938   2.732  13.215 -0.3531  0.2212 -1.3371
10238TIP3   OH252128   6.754   0.059  11.512 -0.1755 -0.4683 -0.2626
10238TIP3    H152129   6.667   0.098  11.511 -0.7346 -1.6863 -0.8487
10238TIP3    H252130   6.767   0.024  11.424  0.5390 -1.0728  0.0620
10239TIP3   OH252131   1.396   2.725  16.038  0.2489  0.6271  0.4006
10239TIP3    H152132   1.337   2.748  15.967  0.1799  0.2886  0.3468
10239TIP3    H252133   1.340   2.683  16.104  0.5900 -0.7627 -0.1485
10240TIP3   OH252134   6.610   6.233   1.985  0.4673  0.2251  0.0918
10240TIP3    H152135   6.515   6.230   1.996  0.3304  0.2055 -1.0365
10240TIP3    H252136   6.641   6.153   2.029 -0.1404 -0.3107 -0.4254
10241TIP3   OH252137   1.319   6.457  15.607  0.0695 -0.1199  0.1216
10241TIP3    H152138   1.226   6.442  15.588 -0.1388  1.7316 -0.4689
10241TIP3    H252139   1.364   6.436  15.525 -0.0420  0.8132 -0.1843
10242TIP3   OH252140   1.173   2.431   2.082 -0.2184  0.2432 -0.1511
10242TIP3    H152141   1.102   2.480   2.124 -1.2802  0.2702 -1.8653
10242TIP3    H252142   1.151   2.434   1.989  2.5026  1.0060 -0.8474
10243TIP3   OH252143   1.647   5.425  11.786  0.4935 -1.2330  0.1841
10243TIP3    H152144   1.561   5.395  11.816 -0.5326  2.2951  1.1870
10243TIP3    H252145   1.629   5.504  11.735  3.1477 -0.5178  0.2107
10244TIP3   OH252146   0.470   4.032  14.456  0.2230  0.5294 -0.2043
10244TIP3    H152147   0.525   3.979  14.399 -0.4184 -0.2846 -0.0757
10244TIP3    H252148   0.447   3.974  14.529  1.1602  1.5976  0.9869
10245TIP3   OH252149   6.220   0.320   0.216  0.2763  0.0511  0.1639
10245TIP3    H152150   6.126   0.318   0.196  0.9860 -0.9610 -3.9233
10245TIP3    H252151   6.238   0.234   0.254 -0.1645 -0.4997 -0.8403
10246TIP3   OH252152   2.747   6.622  15.385 -0.2654  0.3559  0.2758
10246TIP3    H152153   2.754   6.697  15.444 -0.1515  0.1927  0.4697
10246TIP3    H252154   2.838   6.599  15.365 -0.2857  1.4697 -1.3148
10247TIP3   OH252155   5.070   2.312   1.629  0.1138 -0.0858  0.0993
10247TIP3    H152156   5.140   2.246   1.622  0.0331 -0.2830  0.9913
10247TIP3    H252157   5.070   2.336   1.721 -1.2725 -0.3793  0.1862
10248TIP3   OH252158   5.147   5.161   0.702 -0.0232  0.2992  0.0201
10248TIP3    H152159   5.052   5.169   0.697 -0.0015  0.4854 -0.0882
10248TIP3    H252160   5.175   5.146   0.612  0.1087  0.8940 -0.0423
10249TIP3   OH252161   0.737   5.841   6.208  0.1551 -0.3230 -0.0000
10249TIP3    H152162   0.773   5.885   6.130 -1.3054 -0.8672 -1.0203
10249TIP3    H252163   0.750   5.748   6.191  0.2514 -0.4259  0.6342
10250TIP3   OH252164   1.685   3.359  13.422 -0.5060  0.0041  0.1880
10250TIP3    H152165   1.700   3.338  13.330 -0.9963 -0.8945  0.2950
10250TIP3    H252166   1.750   3.308  13.469 -0.3574  0.3412  0.3483
10251TIP3   OH252167   5.223   4.419  14.825  0.3453  0.9518 -0.1996
10251TIP3    H152168   5.165   4.417  14.748  0.5435 -0.7164 -0.3392
10251TIP3    H252169   5.234   4.327  14.849 -2.4954  1.3944  3.9522
10252TIP3   OH252170   4.186   2.042   6.206 -0.1874  0.0029  0.2650
10252TIP3    H152171   4.183   1.986   6.284 -1.8816 -1.2626 -0.6540
10252TIP3    H252172   4.099   2.080   6.201  0.5029  1.6601  0.0483
10253TIP3   OH252173   5.326   4.848   0.862 -0.0973  0.0225  0.6717
10253TIP3    H152174   5.292   4.767   0.822 -1.2639  0.4508  0.7377
10253TIP3    H252175   5.324   4.912   0.792  1.1046 -0.0587  0.5450
10254TIP3   OH252176   2.496   0.218   1.503  0.1278 -0.1127  0.0940
10254TIP3    H152177   2.495   0.242   1.410 -0.5561  0.8037  0.3308
10254TIP3    H252178   2.517   0.299   1.549  1.4922 -0.7680  0.7092
10255TIP3   OH252179   4.319   4.864   5.856  0.0955 -0.9668  0.8480
10255TIP3    H152180   4.382   4.935   5.867 -0.5960 -0.4034  1.2610
10255TIP3    H252181   4.321   4.844   5.763 -1.0737  0.8959  0.3728
10256TIP3   OH252182   2.366   5.769   5.898 -0.0096 -0.3224  0.1619
10256TIP3    H152183   2.307   5.842   5.912 -1.6018 -1.3960 -0.6762
10256TIP3    H252184   2.376   5.728   5.984 -1.1317 -0.5788  0.1796
10257TIP3   OH252185   1.814   2.072   2.161 -0.1124 -0.2535 -0.5662
10257TIP3    H152186   1.870   1.995   2.147  0.0564 -0.8450  2.6415
10257TIP3    H252187   1.786   2.065   2.252 -1.2225  2.7987 -0.5655
10258TIP3   OH252188   5.088   0.482  15.359 -0.5475 -0.2687 -0.2899
10258TIP3    H152189   5.117   0.471  15.450  1.4744  3.5122 -0.3036
10258TIP3    H252190   5.146   0.426  15.308  1.0616  0.6325  0.4708
10259TIP3   OH252191   1.122   2.528  10.827  0.0845 -0.1896  0.2554
10259TIP3    H152192   1.182   2.501  10.757 -0.9915 -0.1581 -0.7046
10259TIP3    H252193   1.172   2.515  10.907  1.1973 -0.6518 -0.4840
10260TIP3   OH252194   5.345   3.194  16.741 -0.5874 -0.1074  0.1166
10260TIP3    H152195   5.373   3.162  16.655 -0.0266 -0.6955  0.5051
10260TIP3    H252196   5.413   3.164  16.801 -1.1240  0.0357  0.8127
10261TIP3   OH252197   2.836   6.538   3.619 -0.2499 -0.6656 -0.0689
10261TIP3    H152198   2.741   6.536   3.624 -0.2976  0.1769 -0.4690
10261TIP3    H252199   2.863   6.602   3.684 -0.2020  1.8178 -2.3756
10262TIP3   OH252200   0.860   2.616   3.959 -0.0612  0.5765  0.5643
10262TIP3    H152201   0.917   2.552   3.916 -0.9513  0.5207 -0.6042
10262TIP3    H252202   0.796   2.564   4.006 -1.6676  0.5018 -1.5576
10263TIP3   OH252203   1.456   6.729  13.611 -0.3376  0.0382  0.5061
10263TIP3    H152204   1.429   6.651  13.660 -0.7164  0.3624  0.8229
10263TIP3    H252205   1.442   6.801  13.672  1.3976  0.2158  0.7463
10264TIP3   OH252206   1.530   5.416  13.470  0.4902  0.0516 -0.0814
10264TIP3    H152207   1.477   5.369  13.535  0.6495  0.5840  0.4501
10264TIP3    H252208   1.524   5.508  13.497  0.3158  0.3239 -1.0046
10265TIP3   OH252209   2.130   4.452  14.813 -0.2204  0.2613 -0.1144
10265TIP3    H152210   2.175   4.453  14.898 -0.0943 -2.0026 -0.1127
10265TIP3    H252211   2.071   4.527  14.818  0.1876  0.5300  1.7534
10266TIP3   OH252212   3.149   0.509  16.732 -0.3360 -0.3676 -0.1935
10266TIP3    H152213   3.164   0.431  16.784  1.1689 -0.7883 -1.1964
10266TIP3    H252214   3.236   0.548  16.721 -1.1044  1.7599  0.7345
10267TIP3   OH252215   3.924   4.269   2.814 -0.7964 -0.1009  0.4194
10267TIP3    H152216   3.850   4.228   2.857 -0.5641 -1.0360 -0.0525
10267TIP3    H252217   3.976   4.306   2.886  0.5980 -3.2783  1.2143
10268TIP3   OH252218   2.581   0.442  14.457  0.6797 -0.0937 -0.1161
10268TIP3    H152219   2.621   0.367  14.412  0.7017  0.5378 -1.1869
10268TIP3    H252220   2.597   0.425  14.550 -1.3342 -2.5830 -0.1115
10269TIP3   OH252221   4.589   0.593   5.108 -0.0926 -0.1278  0.3383
10269TIP3    H152222   4.637   0.639   5.039  0.5959  1.2246  1.6612
10269TIP3    H252223   4.625   0.628   5.190 -2.9478  0.6000  1.4165
10270TIP3   OH252224   3.696   1.652   0.374  0.2551 -0.0704 -1.0583
10270TIP3    H152225   3.659   1.735   0.344 -0.9087  0.9615  2.6996
10270TIP3    H252226   3.620   1.595   0.387  0.1649  0.6067  2.5500
10271TIP3   OH252227   5.260   4.023   3.033  0.0001 -0.4551  0.2563
10271TIP3    H152228   5.228   4.093   3.091 -1.0003 -0.7449  0.0662
10271TIP3    H252229   5.288   3.954   3.093  2.3554  0.6278  0.5095
10272TIP3   OH252230   1.953   1.759   2.454 -0.5175 -0.2676  0.0019
10272TIP3    H152231   1.948   1.724   2.543 -0.5640  2.0337  0.9802
10272TIP3    H252232   1.900   1.839   2.457  0.4545  0.5042 -1.7693
10273TIP3   OH252233   1.872   0.231  15.814  0.2176  0.4237  0.1298
10273TIP3    H152234   1.805   0.162  15.816  1.3208 -0.7500 -1.0489
10273TIP3    H252235   1.823   0.312  15.826 -1.1005 -0.5632  1.8679
10274TIP3   OH252236   3.002   2.630  14.519 -0.0172 -0.2414  0.2054
10274TIP3    H152237   3.038   2.544  14.542 -0.9494 -0.6497  0.1712
10274TIP3    H252238   2.969   2.619  14.430  0.6166  0.4063 -0.1209
10275TIP3   OH252239   3.987   2.538   0.915 -0.6625  0.1153 -0.2168
10275TIP3    H152240   3.935   2.614   0.942 -1.0920 -0.3054  0.1651
10275TIP3    H252241   4.037   2.514   0.993  1.4329  1.5276 -1.0217
10276TIP3   OH252242   2.146   4.878   4.952 -0.1354 -0.2803 -0.4098
10276TIP3    H152243   2.144   4.896   5.046 -0.2781 -0.6255 -0.3484
10276TIP3    H252244   2.134   4.964   4.911  0.1543 -0.0980 -0.1143
10277TIP3   OH252245   3.161   3.860   6.402 -0.1131  0.0690 -0.2458
10277TIP3    H152246   3.221   3.927   6.370 -0.0859  0.8942  1.3958
10277TIP3    H252247   3.218   3.795   6.444 -0.2967  0.4980  0.6964
10278TIP3   OH252248   5.746   3.264   0.753  0.2441  0.3518  0.1979
10278TIP3    H152249   5.814   3.329   0.765 -0.3183  0.7914  1.1805
10278TIP3    H252250   5.677   3.290   0.814 -1.3275  0.6038 -1.5826
10279TIP3   OH252251   5.528   0.758   0.310  0.4317 -0.5173 -0.7404
10279TIP3    H152252   5.461   0.709   0.357 -0.0175  1.0708  0.3540
10279TIP3    H252253   5.530   0.719   0.222 -0.4949 -1.8835 -0.1780
10280TIP3   OH252254   2.144   6.149   2.715 -0.1453 -0.4598 -0.7275
10280TIP3    H152255   2.076   6.149   2.783 -2.0142  0.0396 -2.4845
10280TIP3    H252256   2.110   6.091   2.647  0.5118  0.8481 -2.2502
10281TIP3   OH252257   0.224   1.728  16.102  0.4655  0.1720 -0.2124
10281TIP3    H152258   0.313   1.701  16.125  0.7367  0.3445 -1.0241
10281TIP3    H252259   0.186   1.758  16.185  0.7402 -1.0373  0.3880
10282TIP3   OH252260   4.987   4.242   0.355  0.1466  0.0507  0.0543
10282TIP3    H152261   4.911   4.245   0.412  0.6834  0.6997  0.7538
10282TIP3    H252262   5.056   4.288   0.404  0.9791 -0.5038 -0.5676
10283TIP3   OH252263   1.501   6.647   3.282  0.8269 -0.2976  0.1083
10283TIP3    H152264   1.433   6.593   3.322 -0.4994  0.9728 -0.3602
10283TIP3    H252265   1.477   6.737   3.304  1.0667  0.3247 -1.9638
10284TIP3   OH252266   6.378   1.434  17.088  0.3936  0.1573 -0.3252
10284TIP3    H152267   6.371   1.484  17.169 -0.8276  1.3400 -1.1186
10284TIP3    H252268   6.305   1.372  17.092  1.1576 -0.7376  0.0839
10285TIP3   OH252269   5.067   1.955   4.359 -0.2999 -0.5500  0.8726
10285TIP3    H152270   5.084   2.040   4.318  0.5773  0.0007  2.3156
10285TIP3    H252271   5.115   1.893   4.305 -1.0193 -0.1723 -0.2506
10286TIP3   OH252272   0.290   1.874  13.779  0.4805  0.4998  0.4189
10286TIP3    H152273   0.311   1.945  13.718 -3.5419  2.5057  1.0530
10286TIP3    H252274   0.277   1.798  13.722  1.6359  1.0533 -0.6510
10287TIP3   OH252275   6.539   4.072  13.727 -0.1145 -0.6016  0.4904
10287TIP3    H152276   6.617   4.084  13.781  0.5657 -0.1257 -0.5646
10287TIP3    H252277   6.559   3.996  13.672  0.0069  0.0869 -0.4435
10288TIP3   OH252278   0.252   5.087  15.377  0.6235  0.5533  0.4488
10288TIP3    H152279   0.337   5.093  15.423  1.5447 -2.4171 -0.6339
10288TIP3    H252280   0.274   5.049  15.292 -1.3246  3.8726 -1.7311
10289TIP3   OH252281   6.681   0.539  13.474 -0.1621 -0.5443 -0.0376
10289TIP3    H152282   6.649   0.515  13.388  0.7718 -0.5349 -0.3964
10289TIP3    H252283   6.752   0.601  13.457 -0.4088 -0.0320  0.7580
10290TIP3   OH252284   6.629   3.369   5.770 -0.2236  0.4958  0.1347
10290TIP3    H152285   6.546   3.325   5.754 -1.0217  2.5806 -1.9316
10290TIP3    H252286   6.690   3.328   5.707  0.1556 -0.4612  1.0870
10291TIP3   OH252287   0.023   2.945  16.517 -0.4045  0.1067 -0.5833
10291TIP3    H152288   0.110   2.975  16.542 -0.2585 -0.1661 -0.7512
10291TIP3    H252289  -0.024   3.024  16.494 -0.8277  0.4739  1.3732
10292TIP3   OH252290   6.566   2.954   1.886  0.5899 -0.6397  0.0550
10292TIP3    H152291   6.551   2.860   1.892  1.0618 -0.8133 -1.1648
10292TIP3    H252292   6.649   2.962   1.838  0.1115  0.4096 -0.6332
10293TIP3   OH252293   5.437   3.109   0.951 -0.3563 -0.2045  0.5371
10293TIP3    H152294   5.511   3.111   1.011 -1.1051  0.9864  1.4757
10293TIP3    H252295   5.381   3.039   0.985  0.8295 -1.8873 -0.8431
10294TIP3   OH252296   4.223   5.674   4.003 -0.1832 -0.1877 -0.1536
10294TIP3    H152297   4.175   5.684   4.085  0.0037  2.1544 -0.2621
10294TIP3    H252298   4.173   5.726   3.940  2.4044  2.4115 -0.2536
10295TIP3   OH252299   0.019   6.422   4.369 -0.0125 -0.0515  0.7172
10295TIP3    H152300   0.024   6.494   4.306 -1.1857 -0.7193 -0.1958
10295TIP3    H252301   0.110   6.404   4.392  0.2843  3.6544  3.3145
10296TIP3   OH252302   5.535   6.023  14.893 -0.0238  0.2829 -0.6917
10296TIP3    H152303   5.560   6.111  14.924  1.2812 -0.7828  1.5444
10296TIP3    H252304   5.462   5.998  14.948 -1.2922  0.4172 -2.2282
10297TIP3   OH252305   3.029   5.717   3.546 -0.4294  0.3650 -0.1625
10297TIP3    H152306   2.972   5.787   3.579 -2.0272 -0.9002 -0.0733
10297TIP3    H252307   3.098   5.710   3.612 -0.0426  2.0512 -0.3470
10298TIP3   OH252308   3.149   0.161  14.175  0.1755 -0.1480  0.1349
10298TIP3    H152309   3.224   0.143  14.231  2.0089 -0.3416 -2.2216
10298TIP3    H252310   3.166   0.247  14.138 -1.5732  0.4860  0.6669
10299TIP3   OH252311   1.077   5.839  16.688 -0.4716  0.1267  0.1721
10299TIP3    H152312   1.160   5.852  16.735 -0.3658  1.9465 -0.4372
10299TIP3    H252313   1.030   5.921  16.700 -0.5753  0.5726 -2.6195
10300TIP3   OH252314   3.073   0.823  13.720  0.5316 -0.2529  0.6764
10300TIP3    H152315   2.990   0.821  13.767  0.5216  0.1690  0.6789
10300TIP3    H252316   3.054   0.784  13.635  0.6231 -1.3462  1.1280
10301TIP3   OH252317   0.926   6.505  15.873 -0.0420 -0.2612 -0.1918
10301TIP3    H152318   0.912   6.411  15.858  1.1818 -0.7147  1.2766
10301TIP3    H252319   0.857   6.530  15.934  1.2558 -0.9030  1.6269
10302TIP3   OH252320   6.514   0.065   4.113 -0.2305 -0.1795  0.3375
10302TIP3    H152321   6.438   0.078   4.057  1.2740 -2.0860 -2.3757
10302TIP3    H252322   6.579   0.129   4.082  0.3877 -0.7937  0.3252
10303TIP3   OH252323   2.090   6.192  13.949  0.7109 -0.2140  0.1868
10303TIP3    H152324   2.050   6.124  14.003 -3.6461  0.3714 -1.8244
10303TIP3    H252325   2.114   6.147  13.868  1.4305 -0.0104  0.2825
10304TIP3   OH252326   4.831   2.737   2.301  0.4704 -0.1579 -0.1654
10304TIP3    H152327   4.747   2.774   2.329  0.2216 -1.9071  1.6188
10304TIP3    H252328   4.808   2.666   2.242  0.9577  2.3929 -3.7985
10305TIP3   OH252329   0.916   4.595  15.429  0.1844 -0.7541 -0.2065
10305TIP3    H152330   0.982   4.663  15.425 -0.0332 -0.4039  1.4632
10305TIP3    H252331   0.875   4.595  15.342 -0.2907  1.7421 -0.0470
10306TIP3   OH252332   3.761   4.468  16.452 -0.1885  0.3304 -0.1711
10306TIP3    H152333   3.851   4.486  16.478 -0.2095  2.6301 -1.4274
10306TIP3    H252334   3.769   4.427  16.365 -0.3489  0.6966 -0.3599
10307TIP3   OH252335   1.808   5.769   1.463 -0.5214 -0.0932  0.0027
10307TIP3    H152336   1.766   5.819   1.392  0.6383  1.7831  0.5793
10307TIP3    H252337   1.895   5.748   1.429 -0.4419 -0.3551  0.3656
10308TIP3   OH252338   2.672   3.637  15.209  0.0382  0.4207 -0.6116
10308TIP3    H152339   2.656   3.547  15.182  1.5369  0.1918 -0.7846
10308TIP3    H252340   2.652   3.638  15.303  0.2364 -0.1425 -0.5642
10309TIP3   OH252341   1.268   2.796  15.551 -0.3014  0.1163  0.1416
10309TIP3    H152342   1.212   2.845  15.491 -0.8542  0.7646  1.1520
10309TIP3    H252343   1.333   2.753  15.495 -2.6291 -1.8405 -1.2146
10310TIP3   OH252344   5.843   0.634  15.062 -0.7227  0.6373  0.2882
10310TIP3    H152345   5.792   0.564  15.021 -0.2750  2.4469 -3.9746
10310TIP3    H252346   5.778   0.700  15.087 -0.8446  1.0830 -1.1076
10311TIP3   OH252347   2.317   6.354   0.235 -0.1405 -0.2721 -0.1211
10311TIP3    H152348   2.276   6.393   0.158  1.0095 -0.8557 -1.0628
10311TIP3    H252349   2.408   6.384   0.232 -0.4552  1.1097  2.0070
10312TIP3   OH252350   5.568   5.848   6.744  0.3026  0.1462  0.3813
10312TIP3    H152351   5.616   5.930   6.750  1.1047 -0.2921  0.0840
10312TIP3    H252352   5.635   5.780   6.753 -0.2800 -0.4763  0.1147
10313TIP3   OH252353   2.412   4.731   1.483  0.0259 -0.9344  0.6846
10313TIP3    H152354   2.364   4.659   1.443  1.7244 -1.1107 -1.1865
10313TIP3    H252355   2.503   4.715   1.461  0.5961  1.1644  1.2445
10314TIP3   OH252356   4.101   1.824  17.051 -0.8615  0.1542  0.0930
10314TIP3    H152357   4.158   1.764  17.003  2.1568  1.6887  1.5183
10314TIP3    H252358   4.046   1.864  16.983  1.6692  0.5924 -1.8425
10315TIP3   OH252359   0.628   2.390  16.871 -0.4475  0.3731 -0.8292
10315TIP3    H152360   0.719   2.386  16.840 -0.1659 -0.5201  0.0209
10315TIP3    H252361   0.618   2.310  16.924 -0.8528  1.8064  1.3679
10316TIP3   OH252362   0.083   1.436  14.134  0.0804 -0.2545  0.5337
10316TIP3    H152363   0.097   1.447  14.228  0.8508 -0.1702  0.4229
10316TIP3    H252364   0.020   1.365  14.127  1.4730 -1.6140  1.0978
10317TIP3   OH252365   0.303   1.878  12.175  0.3406 -0.3258  0.2884
10317TIP3    H152366   0.291   1.958  12.226  0.8095 -1.2569  1.9751
10317TIP3    H252367   0.220   1.865  12.129 -0.6135 -0.1217  1.8788
10318TIP3   OH252368   6.632   5.453  14.326  1.0504 -0.5800  0.0748
10318TIP3    H152369   6.682   5.450  14.244  0.3453 -0.6047 -0.3711
10318TIP3    H252370   6.563   5.517  14.309  1.0626 -0.3850  0.7528
10319TIP3   OH252371   6.793   0.602   0.927  0.1293  0.6999  0.4810
10319TIP3    H152372   6.827   0.689   0.949  0.4130  0.3670  1.4020
10319TIP3    H252373   6.789   0.556   1.011  1.3738 -0.6759 -0.1730
10320TIP3   OH252374   1.791   2.242  11.979 -0.1381 -0.4097  0.4522
10320TIP3    H152375   1.745   2.162  12.007  1.3987 -0.9320  1.6446
10320TIP3    H252376   1.740   2.313  12.019 -1.2879 -0.7860 -0.2789
10321TIP3   OH252377   5.491   2.960  12.222 -0.1553 -0.4413 -0.3676
10321TIP3    H152378   5.430   3.023  12.185 -0.0205  0.1707  0.4201
10321TIP3    H252379   5.440   2.879  12.229 -2.0388  0.8261  3.3288
10322TIP3   OH252380   4.278   4.515   3.585  0.3140 -0.6606  0.0562
10322TIP3    H152381   4.204   4.469   3.624  0.4695 -0.9715 -0.0090
10322TIP3    H252382   4.298   4.586   3.647  1.0137 -1.5785  0.9235
10323TIP3   OH252383   6.230   2.878   5.930 -0.3538 -0.5566  0.3148
10323TIP3    H152384   6.286   2.800   5.938 -0.8905 -1.0526 -0.5502
10323TIP3    H252385   6.167   2.855   5.862  1.1951  1.6369 -2.0949
10324TIP3   OH252386   6.500   3.474   0.140  0.9576  0.7051 -0.0445
10324TIP3    H152387   6.551   3.445   0.064  2.2009  0.3262  0.8957
10324TIP3    H252388   6.564   3.516   0.198  0.5911 -1.1998  1.9091
10325TIP3   OH252389   5.154   1.741  14.888  0.9463 -0.0804  0.4911
10325TIP3    H152390   5.208   1.799  14.943  1.1657  0.1245  0.0673
10325TIP3    H252391   5.130   1.796  14.813  1.4213 -0.6341 -0.0736
10326TIP3   OH252392   0.648   5.197  14.168 -0.6589 -0.0467  0.2589
10326TIP3    H152393   0.726   5.221  14.218  0.4032  1.0697 -1.7814
10326TIP3    H252394   0.637   5.103  14.184  1.1598 -0.2424  0.5448
10327TIP3   OH252395   3.445   2.631   3.737  0.0764 -0.0113 -0.3988
10327TIP3    H152396   3.380   2.611   3.804  0.7913  0.5416  0.4846
10327TIP3    H252397   3.400   2.615   3.654 -0.7146 -1.0589  0.2048
10328TIP3   OH252398   1.310   4.614   2.613 -0.4454 -0.2078 -0.4694
10328TIP3    H152399   1.265   4.530   2.627 -1.8203  0.5480 -0.1646
10328TIP3    H252400   1.276   4.671   2.681  0.4228  0.6303 -0.7189
10329TIP3   OH252401   4.851   4.270  15.719 -0.9164  0.6728 -0.0678
10329TIP3    H152402   4.766   4.313  15.717 -1.4747 -0.4124 -2.0068
10329TIP3    H252403   4.897   4.303  15.642 -0.8285 -1.0571 -0.8064
10330TIP3   OH252404   1.395   4.232   1.690 -0.1906 -0.3098 -0.5740
10330TIP3    H152405   1.434   4.185   1.764 -0.9183  1.2319  0.8748
10330TIP3    H252406   1.302   4.210   1.694  0.0719 -2.2081 -2.6537
10331TIP3   OH252407   5.960   5.447  14.404 -0.6016 -0.2443 -0.5982
10331TIP3    H152408   5.915   5.391  14.467  0.0163 -0.4030 -0.2883
10331TIP3    H252409   6.044   5.403  14.389 -0.6151 -0.0441 -1.2953
10332TIP3   OH252410   1.604   6.198   1.329  0.0414  0.6877 -0.3409
10332TIP3    H152411   1.536   6.131   1.333 -0.0493  0.8322  0.8871
10332TIP3    H252412   1.679   6.154   1.288 -0.6894  0.4491 -1.4418
10333TIP3   OH252413   1.713   6.754  13.238 -0.7944  1.0663 -0.2212
10333TIP3    H152414   1.686   6.662  13.231  3.4893 -0.5086  1.2118
10333TIP3    H252415   1.731   6.780  13.148 -1.2556  0.2710 -0.5606
10334TIP3   OH252416   0.646   3.094  16.827  0.0666 -0.5367 -0.1613
10334TIP3    H152417   0.657   3.171  16.772  1.1535 -0.8276 -0.3889
10334TIP3    H252418   0.575   3.116  16.887  1.2355  1.1774  0.6669
10335TIP3   OH252419   1.515   4.504   1.294 -0.3110 -0.1959  0.6110
10335TIP3    H152420   1.465   4.586   1.296  1.1971  0.7497  1.3348
10335TIP3    H252421   1.587   4.522   1.233 -1.1844 -1.7708 -0.9738
10336TIP3   OH252422   0.637   1.026   6.177  0.7580  0.0003  0.2119
10336TIP3    H152423   0.667   1.041   6.266 -0.4867  1.9211  0.3649
10336TIP3    H252424   0.583   0.947   6.183 -1.2416  1.3872  1.6943
10337TIP3   OH252425   5.555   0.163   2.965  0.3744  0.4063  0.0931
10337TIP3    H152426   5.485   0.098   2.974  1.0625 -0.2671  0.5814
10337TIP3    H252427   5.561   0.178   2.870  2.7883 -3.1309 -0.4721
10338TIP3   OH252428   3.342   2.015  14.853 -0.1301 -0.3894  0.0946
10338TIP3    H152429   3.383   2.092  14.812 -1.2345 -0.0839 -0.4695
10338TIP3    H252430   3.272   1.991  14.793 -2.7113  0.8658  2.3634
10339TIP3   OH252431   3.817   5.458  14.242 -0.0808 -0.5274  0.5602
10339TIP3    H152432   3.827   5.551  14.263  1.2176 -0.6477  0.5488
10339TIP3    H252433   3.740   5.431  14.292  1.3590 -0.1700  3.1892
10340TIP3   OH252434   1.116   1.573  15.731  0.4559  0.7375  0.3719
10340TIP3    H152435   1.194   1.571  15.786 -0.9067  2.3290  2.5191
10340TIP3    H252436   1.079   1.485  15.738  0.4760  0.8255  1.8348
10341TIP3   OH252437   1.356   3.681  12.172  0.3747  0.8432  0.1160
10341TIP3    H152438   1.379   3.763  12.127 -0.4403  2.5758  2.6011
10341TIP3    H252439   1.413   3.679  12.248 -0.2973 -0.4097  0.6112
10342TIP3   OH252440   0.393   4.492   5.547 -0.2814  0.4018 -0.3023
10342TIP3    H152441   0.329   4.477   5.617  0.0779 -0.6686 -0.1959
10342TIP3    H252442   0.469   4.530   5.592 -0.3353  0.4270 -0.2313
10343TIP3   OH252443   2.554   0.353  15.304 -0.4633 -0.2584 -0.0769
10343TIP3    H152444   2.646   0.367  15.282 -1.0068  0.8138 -1.8871
10343TIP3    H252445   2.522   0.441  15.326 -1.2744 -0.4599 -0.4241
10344TIP3   OH252446   4.991   3.986  16.675  0.3705  0.4025 -0.0078
10344TIP3    H152447   5.027   3.900  16.697  0.7963  0.1099 -1.7513
10344TIP3    H252448   4.980   4.030  16.760  2.5249 -0.4078  0.7447
10345TIP3   OH252449   2.157   3.113  12.648  0.7709  0.1979  0.1580
10345TIP3    H152450   2.133   3.074  12.564 -0.4287  0.3914  0.3974
10345TIP3    H252451   2.213   3.187  12.625 -1.8776  2.0828 -0.7119
10346TIP3   OH252452   4.961   1.343  12.675  0.6272 -0.3562 -0.3082
10346TIP3    H152453   4.970   1.437  12.657  0.8123 -0.4666 -0.8141
10346TIP3    H252454   4.903   1.310  12.606 -0.1082 -0.4711  0.3458
10347TIP3   OH252455   5.765   4.889  11.286 -0.6570 -0.5679  0.1802
10347TIP3    H152456   5.722   4.836  11.219 -2.9132 -0.4934  1.4676
10347TIP3    H252457   5.724   4.975  11.277 -0.9228 -0.5347  1.5737
10348TIP3   OH252458   4.274   1.633  12.328 -0.3298 -0.3656  0.2840
10348TIP3    H152459   4.364   1.652  12.302 -0.4854 -1.4790 -1.1654
10348TIP3    H252460   4.259   1.690  12.404  0.6545  1.9860 -1.1484
10349TIP3   OH252461   3.711   2.173   5.422 -0.4485  0.1664 -0.0908
10349TIP3    H152462   3.678   2.136   5.504 -1.0170  0.3227 -0.2471
10349TIP3    H252463   3.681   2.264   5.423  0.7521  0.5817  0.1861
10350TIP3   OH252464   5.166   5.497  15.040 -0.0100 -0.6276 -0.1921
10350TIP3    H152465   5.085   5.452  15.063 -0.9908  0.8844 -0.5374
10350TIP3    H252466   5.225   5.478  15.113  0.0615 -3.4291 -0.8945
10351TIP3   OH252467   5.254   5.465   2.807  0.4908  0.5525 -0.1712
10351TIP3    H152468   5.261   5.550   2.765  1.6014 -0.5388 -2.3312
10351TIP3    H252469   5.189   5.418   2.755 -1.5058  0.5824  2.0741
10352TIP3   OH252470   5.282   3.428  11.371  0.4901  0.7400 -0.6813
10352TIP3    H152471   5.295   3.523  11.374  1.0844  0.6494 -0.3763
10352TIP3    H252472   5.367   3.393  11.346  0.3193  0.2667 -0.6088
10353TIP3   OH252473   3.721   5.199   0.936  0.4034  0.8048  0.4503
10353TIP3    H152474   3.633   5.235   0.951 -0.2974  0.1096 -1.6025
10353TIP3    H252475   3.710   5.141   0.861  2.6373  0.6667  0.1713
10354TIP3   OH252476   2.658   3.919  16.529 -0.5056 -0.0323  0.0138
10354TIP3    H152477   2.670   3.842  16.585 -0.1565  0.9250  1.2972
10354TIP3    H252478   2.712   3.900  16.452  0.3097 -0.6827  0.7178
10355TIP3   OH252479   0.229   3.261   0.071 -0.4970 -0.3237  0.1752
10355TIP3    H152480   0.309   3.307   0.097 -1.1561  1.0326 -0.1087
10355TIP3    H252481   0.205   3.210   0.148 -0.7107  1.2142  1.1710
10356TIP3   OH252482   6.701   5.019   0.573 -0.4630 -0.2559 -0.2336
10356TIP3    H152483   6.781   5.036   0.623 -0.2793  0.4251 -0.7400
10356TIP3    H252484   6.631   5.059   0.626 -0.0887  1.7742 -1.1929
10357TIP3   OH252485   5.259   1.884  14.414  0.2676 -0.4726 -0.0460
10357TIP3    H152486   5.223   1.880  14.325  0.1907  0.4685 -0.0576
10357TIP3    H252487   5.289   1.794  14.431  1.3720 -0.4231 -1.4833
10358TIP3   OH252488   5.618   4.925  11.749  0.1097  0.2362 -0.5283
10358TIP3    H152489   5.539   4.979  11.754 -0.8753 -0.9287 -2.3496
10358TIP3    H252490   5.634   4.915  11.655  0.8784 -1.7353 -0.2444
10359TIP3   OH252491   3.185   3.124  15.192  0.0760  0.2477  0.6816
10359TIP3    H152492   3.129   3.094  15.263 -1.6887  0.7685 -0.4232
10359TIP3    H252493   3.177   3.056  15.124 -0.1849  0.9003  0.0457
10360TIP3   OH252494   0.739   4.480   2.378 -0.5053 -0.6853 -0.1487
10360TIP3    H152495   0.701   4.465   2.464  0.4694 -0.5811  0.3044
10360TIP3    H252496   0.816   4.423   2.375 -0.0669 -0.0794 -0.6343
10361TIP3   OH252497   0.285   5.396  16.425  0.1183  0.4998 -0.1698
10361TIP3    H152498   0.279   5.395  16.330  1.9191  1.1717 -0.3421
10361TIP3    H252499   0.353   5.332  16.446  0.9806  1.5797  0.4934
10362TIP3   OH252500   5.844   2.860   0.327  0.6944  0.1421 -0.2103
10362TIP3    H152501   5.867   2.838   0.417  1.8150 -0.4508 -0.6262
10362TIP3    H252502   5.753   2.834   0.318  0.2447  1.1690  1.0479
10363TIP3   OH252503   6.293   0.355  12.967  0.1759 -0.1483  0.3407
10363TIP3    H152504   6.383   0.343  12.937 -0.4032  1.6777 -2.6575
10363TIP3    H252505   6.253   0.268  12.962  1.3246 -0.6657 -0.0398
10364TIP3   OH252506   6.139   6.107   0.820  0.1397 -0.2487  0.5788
10364TIP3    H152507   6.166   6.179   0.877 -0.6320  0.1558  0.4541
10364TIP3    H252508   6.185   6.123   0.738  0.2380 -0.0890  0.6649
10365TIP3   OH252509   6.208   5.196  12.010 -0.1986  0.3023  0.1836
10365TIP3    H152510   6.248   5.271  12.054  1.8645 -1.0489  0.8201
10365TIP3    H252511   6.159   5.152  12.079  0.0210  0.1544  0.2483
10366TIP3   OH252512   6.681   6.538  11.627  0.5435 -0.3977  0.1958
10366TIP3    H152513   6.641   6.468  11.678  2.4351 -0.5595  1.5705
10366TIP3    H252514   6.626   6.614  11.643  1.2849 -0.3370  2.9231
10367TIP3   OH252515   6.262   0.160  14.127  0.2058 -0.2904 -0.1535
10367TIP3    H152516   6.213   0.101  14.071 -0.7685 -0.5244  0.9104
10367TIP3    H252517   6.248   0.247  14.089  0.1198 -0.5184 -0.6512
10368TIP3   OH252518   1.485   5.075  13.146 -0.4393 -0.0060  0.1933
10368TIP3    H152519   1.580   5.071  13.131 -0.5878  0.2238 -0.9406
10368TIP3    H252520   1.459   4.984  13.160  0.1447  0.0667  2.0268
10369TIP3   OH252521   2.540   4.049  14.075  0.7778  0.0549 -0.6959
10369TIP3    H152522   2.578   4.098  14.003 -1.0033  0.8270 -1.1626
10369TIP3    H252523   2.449   4.078  14.079  0.6814 -0.3634  1.5249
10370TIP3   OH252524   1.181   6.208   0.435  0.0354  0.5859  0.0107
10370TIP3    H152525   1.157   6.197   0.343  0.0847  1.2411 -0.0784
10370TIP3    H252526   1.254   6.147   0.448  1.3099  1.8769 -0.8717
10371TIP3   OH252527   5.277   6.161  14.166 -0.6009  0.4697  0.1109
10371TIP3    H152528   5.262   6.068  14.182  2.7216 -0.4798 -1.4315
10371TIP3    H252529   5.294   6.198  14.253 -0.2017 -0.7474  0.5712
10372TIP3   OH252530   3.463   2.385  15.873 -0.1092 -0.3362  0.4761
10372TIP3    H152531   3.418   2.417  15.951  0.9712  0.0068  0.9871
10372TIP3    H252532   3.512   2.462  15.841  0.8331 -0.9173  0.4796
10373TIP3   OH252533   4.499   3.428  13.629 -0.0182  0.3970 -0.2135
10373TIP3    H152534   4.440   3.354  13.615  1.4603 -0.5892 -1.6659
10373TIP3    H252535   4.583   3.399  13.594  0.7559  2.5824 -0.3539
10374TIP3   OH252536   1.672   1.320   4.173 -0.2832  0.0257 -0.1563
10374TIP3    H152537   1.596   1.277   4.134 -0.6435  0.2321  0.3010
10374TIP3    H252538   1.733   1.249   4.193 -0.8566 -0.2701  0.5501
10375TIP3   OH252539   2.614   5.297   6.345 -0.3597 -0.2890  0.7844
10375TIP3    H152540   2.664   5.224   6.311 -2.3993 -2.1496  1.5179
10375TIP3    H252541   2.669   5.374   6.331  2.4025 -2.1002  1.0823
10376TIP3   OH252542   0.701   0.901  16.362  0.1289 -0.6115  0.3357
10376TIP3    H152543   0.744   0.909  16.277 -0.0836 -1.9279  0.0811
10376TIP3    H252544   0.613   0.936  16.349  0.4410  0.1788  0.3094
10377TIP3   OH252545   5.045   3.954  14.186 -0.4547 -0.1583 -0.0637
10377TIP3    H152546   5.119   3.925  14.240  1.1724  1.3395 -1.3491
10377TIP3    H252547   4.993   4.010  14.244 -0.2510 -0.7491  0.6970
10378TIP3   OH252548   2.808   2.336  16.875 -0.1201 -0.1361 -0.4748
10378TIP3    H152549   2.873   2.282  16.831  0.2618  0.6598 -0.9152
10378TIP3    H252550   2.766   2.278  16.938  2.5341 -0.1446  1.4229
10379TIP3   OH252551   2.933   6.184  14.000  0.2998 -0.7377 -0.2631
10379TIP3    H152552   2.915   6.098  14.037  1.9909 -0.8163  0.4742
10379TIP3    H252553   2.886   6.185  13.916 -1.9872 -1.3000  0.9442
10380TIP3   OH252554   0.881   5.569  13.169 -0.0863 -0.0036  0.3512
10380TIP3    H152555   0.902   5.498  13.108  0.5363  2.2645 -2.2089
10380TIP3    H252556   0.961   5.579  13.222  1.1292  0.9631 -1.5772
10381TIP3   OH252557   5.294   1.076  16.838 -0.5001  0.0953 -0.4547
10381TIP3    H152558   5.273   1.082  16.744 -0.5611 -1.0937 -0.5367
10381TIP3    H252559   5.389   1.069  16.840 -0.5813 -1.3853 -0.5508
10382TIP3   OH252560   4.405   1.555  11.925 -0.6785 -0.3354  0.2001
10382TIP3    H152561   4.393   1.644  11.892  0.5702 -0.2495 -0.0867
10382TIP3    H252562   4.444   1.567  12.012 -1.1446 -0.6009  0.4488
10383TIP3   OH252563   2.120   0.863   2.112 -0.0060  0.2221 -0.1591
10383TIP3    H152564   2.047   0.850   2.173 -0.3417  1.1272 -0.3383
10383TIP3    H252565   2.173   0.932   2.153  0.4246 -0.0068 -0.3201
10384TIP3   OH252566   1.691   6.421  14.350  0.3294 -0.5737 -0.0205
10384TIP3    H152567   1.720   6.373  14.428  0.3569 -1.0562 -0.3258
10384TIP3    H252568   1.766   6.477  14.328 -0.9219  2.3174  2.4112
10385TIP3   OH252569   2.668   2.951   1.070 -0.1793  0.4239  0.0637
10385TIP3    H152570   2.702   2.979   0.985 -1.0840 -0.2505 -0.5348
10385TIP3    H252571   2.588   3.002   1.082 -1.3394 -1.1456 -0.6117
10386TIP3   OH252572   2.998   6.726  15.093 -0.2839  0.5773 -0.3589
10386TIP3    H152573   2.958   6.805  15.130 -0.6117  0.1150  0.2923
10386TIP3    H252574   2.962   6.654  15.145 -0.6444 -0.0881 -1.4944
10387TIP3   OH252575   1.969   2.221  17.179 -0.0484 -0.1423  0.1444
10387TIP3    H152576   1.891   2.200  17.230  1.7562  1.7521  4.1297
10387TIP3    H252577   2.036   2.161  17.210  1.2609  1.4157  0.5023
10388TIP3   OH252578   5.064   3.271   4.089  0.1509 -0.1601  0.1840
10388TIP3    H152579   5.077   3.268   3.994 -1.3197  0.1043 -0.0621
10388TIP3    H252580   5.142   3.232   4.126  0.3058 -1.2029 -1.1862
10389TIP3   OH252581   4.449   5.549  13.642  0.1335 -0.1036 -0.0677
10389TIP3    H152582   4.501   5.549  13.722 -0.9590 -0.5459  0.6712
10389TIP3    H252583   4.384   5.619  13.656 -2.7109 -2.7598  1.2964
10390TIP3   OH252584   2.885   4.498  11.154  0.4868 -0.1795 -0.6193
10390TIP3    H152585   2.893   4.516  11.061  0.3988 -0.5162 -0.6954
10390TIP3    H252586   2.792   4.505  11.173  0.5872  0.6682 -0.3869
10391TIP3   OH252587   0.175   0.595   1.243  0.6250  0.0818 -0.4244
10391TIP3    H152588   0.200   0.510   1.209 -0.0265 -0.1598 -0.3180
10391TIP3    H252589   0.093   0.579   1.291  1.1535  0.5246  0.6739
10392TIP3   OH252590   5.954   0.975  15.270  0.2469  0.1807  0.1651
10392TIP3    H152591   5.922   1.018  15.349  0.4774 -0.0949  0.4097
10392TIP3    H252592   6.038   0.937  15.296  0.3258  0.0960 -0.2142
10393TIP3   OH252593   1.797   5.268  13.344  0.4797  0.1044 -0.2210
10393TIP3    H152594   1.734   5.328  13.385  0.0039 -0.2854 -0.3790
10393TIP3    H252595   1.841   5.225  13.417 -0.6168 -0.8540 -0.1079
10394TIP3   OH252596   5.364   0.687   3.212 -0.0832 -0.4910 -0.0408
10394TIP3    H152597   5.329   0.768   3.175 -1.7247 -1.7367 -1.4062
10394TIP3    H252598   5.430   0.659   3.148  1.8722  0.6309  1.3521
10395TIP3   OH252599   1.724   4.972  11.041  0.3331 -0.7001 -0.2931
10395TIP3    H152600   1.674   5.046  11.075  1.6121  0.4200 -0.7594
10395TIP3    H252601   1.662   4.923  10.987 -1.0834 -1.1496  1.6156
10396TIP3   OH252602   6.657   5.589   3.841  0.2130  0.3449  0.5268
10396TIP3    H152603   6.668   5.608   3.748 -3.2539  0.6627  0.0666
10396TIP3    H252604   6.661   5.494   3.847  0.8003  0.3401  0.1607
10397TIP3   OH252605   6.126   0.716  13.378 -0.0496  0.2171  0.1661
10397TIP3    H152606   6.129   0.752  13.466 -0.8278 -2.4635  1.3842
10397TIP3    H252607   6.173   0.633  13.384  0.9209  0.5095 -2.2711
10398TIP3   OH252608   5.137   6.067  14.732  0.2942  0.2722 -0.0883
10398TIP3    H152609   5.046   6.042  14.718  0.3062 -0.4248  0.9760
10398TIP3    H252610   5.153   6.049  14.825  0.9330  2.2975  0.2404
10399TIP3   OH252611   5.931   1.539  17.064 -0.0534  0.1031 -0.1371
10399TIP3    H152612   5.998   1.490  17.018 -0.5127  0.8587 -1.6996
10399TIP3    H252613   5.850   1.521  17.016 -0.4620  1.3394  0.0347
10400TIP3   OH252614   2.678   6.526   0.701 -0.0561  0.1694 -0.3694
10400TIP3    H152615   2.671   6.614   0.738  0.1643 -0.1094  0.3526
10400TIP3    H252616   2.765   6.496   0.726 -0.3865 -0.5186 -0.0182
10401TIP3   OH252617   5.511   5.812   3.344 -0.3773  0.5320  0.3267
10401TIP3    H152618   5.473   5.850   3.423 -1.1592 -1.9729  1.2677
10401TIP3    H252619   5.596   5.777   3.372 -0.7919 -0.6467  0.1890
10402TIP3   OH252620   0.138   6.765   1.818  0.6975  0.0618 -0.3293
10402TIP3    H152621   0.179   6.712   1.749  0.6481  0.9723 -1.0727
10402TIP3    H252622   0.152   6.855   1.791  1.0278  0.4535  1.0728
10403TIP3   OH252623   1.167   0.483  14.884 -0.2160  0.4430  0.9193
10403TIP3    H152624   1.196   0.489  14.793 -2.1844 -0.8744  0.1584
10403TIP3    H252625   1.148   0.573  14.909 -1.9206  0.6234 -0.7991
10404TIP3   OH252626   6.535   6.118  11.073  0.0140  0.1125  0.3169
10404TIP3    H152627   6.603   6.058  11.104  0.2886  0.1796 -0.1422
10404TIP3    H252628   6.553   6.127  10.979 -0.1657  0.7299  0.3387
10405TIP3   OH252629   5.976   6.245  16.671  0.2735  0.0590  0.0147
10405TIP3    H152630   5.976   6.333  16.709 -1.5358 -0.6164  1.7479
10405TIP3    H252631   5.966   6.187  16.746 -1.3038 -1.4839 -1.3163
10406TIP3   OH252632   3.899   4.613  13.105  0.3192 -0.5590  0.4543
10406TIP3    H152633   3.891   4.680  13.037 -0.2645 -0.5440  0.5307
10406TIP3    H252634   3.842   4.542  13.075  0.3981 -0.7328  0.7134
10407TIP3   OH252635   1.004   3.947  15.552  0.4855  0.0609 -0.0637
10407TIP3    H152636   1.033   3.933  15.462 -0.6130  1.2855 -0.6520
10407TIP3    H252637   0.987   4.041  15.557 -1.9201 -0.3398  0.6139
10408TIP3   OH252638   2.095   1.767  13.867 -0.6384 -0.3236 -0.7041
10408TIP3    H152639   2.012   1.725  13.890 -0.5557  0.2724  0.7911
10408TIP3    H252640   2.149   1.697  13.832 -0.9539 -1.2289  0.5584
10409TIP3   OH252641   0.739   0.244   4.003 -0.0003  0.4224  0.3464
10409TIP3    H152642   0.818   0.279   3.963  0.0618  1.0685  1.0188
10409TIP3    H252643   0.723   0.300   4.078 -0.6823 -0.1575  0.6478
10410TIP3   OH252644   0.151   6.235   0.924  0.5706  0.0784  0.0011
10410TIP3    H152645   0.149   6.328   0.946 -1.8717 -0.5142  2.9554
10410TIP3    H252646   0.060   6.213   0.906  1.1589 -1.6867 -0.9785
10411TIP3   OH252647   4.599   3.469   1.005  0.1612 -0.0467  0.1428
10411TIP3    H152648   4.569   3.383   1.033  0.1447  0.3008  1.2320
10411TIP3    H252649   4.530   3.501   0.947  1.1735 -1.6560 -2.0861
10412TIP3   OH252650   0.808   5.078  12.456  0.2932 -0.2596 -0.3008
10412TIP3    H152651   0.844   5.123  12.533 -1.1074 -1.0759  0.8902
10412TIP3    H252652   0.796   5.147  12.391 -1.6175  1.1304  1.4054
10413TIP3   OH252653   1.775   6.785  12.209 -0.6389  0.3776 -0.3045
10413TIP3    H152654   1.753   6.810  12.119 -0.4557 -0.1701 -0.5095
10413TIP3    H252655   1.696   6.744  12.243 -0.7008  0.5639 -0.2248
10414TIP3   OH252656   5.617   1.249   6.303 -0.0196 -0.1624  0.2543
10414TIP3    H152657   5.524   1.247   6.327  0.0473 -5.3870  1.4004
10414TIP3    H252658   5.618   1.213   6.214  0.8983  1.1549 -0.2919
10415TIP3   OH252659   2.152   0.443  15.280 -0.7453  0.4971 -0.3944
10415TIP3    H152660   2.212   0.509  15.244 -0.6856  0.7486  0.1660
10415TIP3    H252661   2.093   0.492  15.336 -0.6252  0.0603  0.1279
10416TIP3   OH252662   1.327   0.358  12.413 -0.4406 -0.0803  0.2774
10416TIP3    H152663   1.369   0.419  12.474 -0.7099 -2.4124  3.0364
10416TIP3    H252664   1.389   0.285  12.406 -0.9460 -0.3806 -1.3469
10417TIP3   OH252665   6.514   1.337   1.771 -0.5429  0.9536 -0.2477
10417TIP3    H152666   6.516   1.261   1.714 -1.6139 -0.8998  2.0512
10417TIP3    H252667   6.435   1.327   1.824  0.4370  2.4806  1.6695
10418TIP3   OH252668   3.169   3.638   3.342  0.2126 -0.0518 -0.3765
10418TIP3    H152669   3.180   3.554   3.296  0.8502  0.2816 -0.8527
10418TIP3    H252670   3.093   3.624   3.399  0.0296 -0.8063 -0.7823
10419TIP3   OH252671   6.758   4.035   3.662  0.2579 -0.6851  0.3305
10419TIP3    H152672   6.760   3.959   3.721 -0.1739 -0.8780  0.1004
10419TIP3    H252673   6.698   4.009   3.592  1.6359 -0.9053 -0.8063
10420TIP3   OH252674   5.744   2.975  14.917  0.1147  0.1220 -0.0461
10420TIP3    H152675   5.677   3.040  14.941 -0.5776 -0.6322  0.1005
10420TIP3    H252676   5.727   2.901  14.974  0.7323 -0.3034 -0.4021
10421TIP3   OH252677   2.706   1.824   2.564  0.0387 -0.7081  0.4851
10421TIP3    H152678   2.769   1.754   2.553  0.1310 -0.7725  1.3529
10421TIP3    H252679   2.752   1.903   2.535  0.3016 -0.8413  0.5430
10422TIP3   OH252680   1.920   1.818  14.206 -0.3247  0.7925  0.8369
10422TIP3    H152681   1.829   1.793  14.195 -0.5524  1.2988  1.5293
10422TIP3    H252682   1.924   1.909  14.176  0.2142  0.4098 -0.3498
10423TIP3   OH252683   6.739   5.265   5.930  0.5416 -0.2157 -0.7207
10423TIP3    H152684   6.649   5.293   5.912  0.3514 -0.2714  0.0964
10423TIP3    H252685   6.735   5.230   6.018  1.5787  0.7592 -0.2611
10424TIP3   OH252686   4.563   2.948   5.351 -0.2570 -0.4674 -0.4097
10424TIP3    H152687   4.511   2.914   5.424  1.1041 -0.7017  0.4835
10424TIP3    H252688   4.582   2.871   5.297  0.6481 -0.7123  0.2320
10425TIP3   OH252689   3.862   3.179  12.337 -0.2690 -0.3340  0.2481
10425TIP3    H152690   3.908   3.259  12.364 -3.0615  1.7847 -0.8700
10425TIP3    H252691   3.874   3.119  12.411  1.9926  1.0136  1.0942
10426TIP3   OH252692   1.712   4.828  15.899 -0.4129 -0.1421  0.6990
10426TIP3    H152693   1.795   4.780  15.902 -0.5110 -0.4207 -0.5984
10426TIP3    H252694   1.645   4.761  15.912 -0.5191 -0.2710 -0.4333
10427TIP3   OH252695   5.507   2.040   3.341  0.2561 -0.0162 -0.0751
10427TIP3    H152696   5.444   2.108   3.318 -0.1207 -0.7598 -1.2787
10427TIP3    H252697   5.474   1.961   3.299  0.9078 -0.8701  0.9718
10428TIP3   OH252698   4.486   1.152   1.871 -0.0160 -0.5314 -0.8286
10428TIP3    H152699   4.426   1.203   1.817 -0.1767  0.1623 -0.0184
10428TIP3    H252700   4.554   1.214   1.897 -0.4009 -0.6030  0.4553
10429TIP3   OH252701   3.887   0.996   1.103  0.2473  0.1758 -0.0991
10429TIP3    H152702   3.939   0.960   1.030 -0.7914 -0.6543 -0.4508
10429TIP3    H252703   3.881   0.924   1.166  0.8425  0.7800  0.6590
10430TIP3   OH252704   3.751   0.517  11.619  0.4113 -0.0134 -1.0559
10430TIP3    H152705   3.841   0.485  11.612  0.4896  0.0273 -0.3111
10430TIP3    H252706   3.739   0.572  11.542  0.3804 -1.5736 -2.2245
10431TIP3   OH252707   3.027   1.361  11.510  0.5554 -0.0686  0.3554
10431TIP3    H152708   3.001   1.453  11.511 -1.2525 -0.5376  0.5692
10431TIP3    H252709   3.112   1.360  11.467 -0.0489  1.5454 -0.9663
10432TIP3   OH252710   4.788   3.215  14.960 -0.1445  0.1292  0.0497
10432TIP3    H152711   4.868   3.216  14.907 -0.5054 -0.5016 -0.5123
10432TIP3    H252712   4.728   3.159  14.912 -0.3279 -0.8310  1.3565
10433TIP3   OH252713   4.412   1.317   6.250  0.3187  1.0278  0.4482
10433TIP3    H152714   4.494   1.278   6.220 -0.2030  0.8334 -0.7696
10433TIP3    H252715   4.433   1.351   6.337  1.7426  1.1391  0.0973
10434TIP3   OH252716   0.676   2.681  16.826 -0.0454 -0.0181  0.0039
10434TIP3    H152717   0.619   2.640  16.891 -2.5422  0.7334 -1.5562
10434TIP3    H252718   0.760   2.636  16.835 -0.9565 -1.4534  2.1851
10435TIP3   OH252719   3.139   3.178   5.180  0.2112  0.6721  0.1188
10435TIP3    H152720   3.155   3.111   5.113 -2.3522  0.4411 -0.3825
10435TIP3    H252721   3.216   3.174   5.236  2.4437  0.7922 -2.6859
10436TIP3   OH252722   6.387   2.369  16.444 -0.0464  0.3978 -0.9540
10436TIP3    H152723   6.436   2.287  16.451 -0.3347  0.2557 -0.5384
10436TIP3    H252724   6.437   2.431  16.497 -0.6635  0.0771  0.0400
10437TIP3   OH252725   6.305   6.185   3.813  0.2991  0.9229  0.1302
10437TIP3    H152726   6.294   6.206   3.720  1.0934 -0.9222 -0.4280
10437TIP3    H252727   6.301   6.090   3.816  1.8461  0.8627  1.7704
10438TIP3   OH252728   3.736   3.747   3.566 -0.1724 -0.4163 -0.0468
10438TIP3    H152729   3.730   3.678   3.631 -0.1728  0.5202  0.9795
10438TIP3    H252730   3.828   3.774   3.568  0.7509 -2.7766 -3.0542
10439TIP3   OH252731   1.195   1.288   0.506  0.1963  0.3082 -0.0077
10439TIP3    H152732   1.198   1.286   0.601  0.1803  1.7334  0.0378
10439TIP3    H252733   1.223   1.376   0.482 -2.7603  1.0841 -1.1665
10440TIP3   OH252734   2.348   4.972  16.759  0.2477  0.0478  0.3440
10440TIP3    H152735   2.410   5.033  16.720 -0.2034  0.3108  0.0400
10440TIP3    H252736   2.264   5.016  16.754 -0.0571 -0.5313  0.2667
10441TIP3   OH252737   3.337   3.245  12.866 -0.2003 -0.8220  0.1855
10441TIP3    H152738   3.296   3.169  12.825  0.8788 -1.5553  0.4195
10441TIP3    H252739   3.352   3.218  12.956 -0.5141 -0.0410  0.4718
10442TIP3   OH252740   3.208   2.341  13.935 -0.1349  0.2933 -0.1157
10442TIP3    H152741   3.121   2.373  13.911  1.1734  3.8758 -0.6886
10442TIP3    H252742   3.215   2.358  14.029 -0.5559 -1.4705  0.2649
10443TIP3   OH252743   2.027   2.248  16.223 -0.3406 -0.0822  0.0215
10443TIP3    H152744   2.007   2.160  16.256  0.0555  0.4429  1.7736
10443TIP3    H252745   1.985   2.307  16.285  0.8591  0.9828 -0.1391
10444TIP3   OH252746   5.079   5.954   3.635 -0.6189 -0.2654  0.0522
10444TIP3    H152747   5.036   5.973   3.718 -1.3543 -0.8224 -0.1937
10444TIP3    H252748   5.064   6.032   3.582 -0.6772 -0.1573  0.2252
10445TIP3   OH252749   4.382   3.689  13.690  0.3989 -0.0720  0.3680
10445TIP3    H152750   4.476   3.697  13.673  0.2879  1.3517  0.3081
10445TIP3    H252751   4.367   3.594  13.696  1.7115 -0.3504 -0.2874
10446TIP3   OH252752   4.707   6.254  11.649 -0.4859 -0.3694 -0.3212
10446TIP3    H152753   4.715   6.187  11.582 -0.2364  0.5632 -1.2597
10446TIP3    H252754   4.615   6.255  11.672 -0.5371 -0.8435 -0.5118
10447TIP3   OH252755   5.559   6.162   5.799  0.7499 -0.2666 -0.0130
10447TIP3    H152756   5.574   6.079   5.843 -0.4672  0.2957  1.5375
10447TIP3    H252757   5.482   6.199   5.842  0.6595  1.2098 -1.3394
10448TIP3   OH252758   4.397   0.393   3.778 -0.1244  0.2833 -0.5030
10448TIP3    H152759   4.410   0.335   3.703  0.1149  0.6424 -0.7395
10448TIP3    H252760   4.306   0.421   3.770 -0.5617 -0.8800  0.1995
10449TIP3   OH252761   1.036   2.747  10.988 -0.3059  0.0992 -0.2035
10449TIP3    H152762   1.064   2.676  10.930  0.4485 -0.2057  0.5067
10449TIP3    H252763   0.941   2.746  10.983 -0.2821 -0.5122 -0.7305
10450TIP3   OH252764   3.341   2.066  11.109  0.1912 -0.8451 -0.1108
10450TIP3    H152765   3.316   2.027  11.193  0.4252  0.8856  0.8087
10450TIP3    H252766   3.265   2.051  11.053 -1.8875  1.6807  1.7342
10451TIP3   OH252767   0.612   2.170  13.808  0.4988  0.2530 -0.6933
10451TIP3    H152768   0.547   2.198  13.873 -0.1318  1.5589 -1.8369
10451TIP3    H252769   0.561   2.126  13.740  0.8462  0.9205 -1.4015
10452TIP3   OH252770   6.290   4.705   5.008  0.8777  0.5996 -0.1939
10452TIP3    H152771   6.351   4.649   4.959  0.9858  1.2075 -0.7623
10452TIP3    H252772   6.300   4.677   5.099  1.0657 -0.1810 -0.4421
10453TIP3   OH252773   1.757   2.924   3.961 -0.3474  0.3283 -0.2355
10453TIP3    H152774   1.720   2.915   4.048 -1.1996  1.3418 -0.4824
10453TIP3    H252775   1.777   2.834   3.934  0.9300  0.0613  1.4019
10454TIP3   OH252776   5.823   1.642  16.747  0.3556  0.5520  0.4258
10454TIP3    H152777   5.738   1.626  16.706  0.3593  1.0752  0.2062
10454TIP3    H252778   5.849   1.556  16.782 -0.3051  0.4059  0.5830
10455TIP3   OH252779   1.703   2.955   0.062 -0.2822  0.2493 -0.0642
10455TIP3    H152780   1.627   2.988   0.015 -2.2041 -1.4102  1.6922
10455TIP3    H252781   1.761   3.031   0.071 -2.4212  1.9672 -0.0582
10456TIP3   OH252782   2.073   2.515   4.683  0.3152  0.4065 -0.1243
10456TIP3    H152783   2.145   2.549   4.630 -0.6204  1.3123 -0.8570
10456TIP3    H252784   2.057   2.427   4.648  1.8555 -0.3123  0.8770
10457TIP3   OH252785   5.818   2.479  11.456  0.1697 -0.3894  0.1902
10457TIP3    H152786   5.798   2.529  11.377  2.1580 -0.0456 -0.1391
10457TIP3    H252787   5.840   2.545  11.522  0.7104 -0.7382  0.3699
10458TIP3   OH252788   0.398   2.607  11.833 -0.1649 -0.6488 -0.2976
10458TIP3    H152789   0.436   2.674  11.776 -2.1198  0.9790  0.2197
10458TIP3    H252790   0.473   2.569  11.878  1.2881 -0.8526 -2.6811
10459TIP3   OH252791   0.301   4.063  15.288  0.8056 -0.4323  0.0512
10459TIP3    H152792   0.311   3.984  15.341 -1.5368 -1.2751 -0.6152
10459TIP3    H252793   0.362   4.051  15.215  1.7321 -0.7823  0.8700
10460TIP3   OH252794   3.219   6.787   3.283 -0.5374 -0.5009 -0.5706
10460TIP3    H152795   3.202   6.729   3.210  0.6480 -3.0283  1.0189
10460TIP3    H252796   3.309   6.816   3.271 -1.3568  1.8206 -1.7825
10461TIP3   OH252797   5.812   1.576   4.561 -0.6887 -0.0367 -0.4867
10461TIP3    H152798   5.771   1.653   4.521  0.1776  1.5910  1.5206
10461TIP3    H252799   5.754   1.553   4.634  0.3341  0.4024  0.5144
10462TIP3   OH252800   1.760   0.081   6.172 -0.3779  0.1024 -0.1445
10462TIP3    H152801   1.670   0.052   6.163 -0.4071 -0.0623  0.5883
10462TIP3    H252802   1.811   0.000   6.182 -0.0448  0.1533 -1.3179
10463TIP3   OH252803   1.035   4.871  12.196 -1.0710  0.5899  0.2254
10463TIP3    H152804   1.052   4.902  12.285 -1.3980 -0.5832  0.7194
10463TIP3    H252805   1.087   4.791  12.188 -3.5236 -1.1614  0.5759
10464TIP3   OH252806   6.615   2.578   4.637 -0.8168 -0.1696 -0.6001
10464TIP3    H152807   6.541   2.553   4.580 -1.0321 -2.3608  0.5434
10464TIP3    H252808   6.674   2.503   4.632  0.6048  0.9072 -0.2551
10465TIP3   OH252809   0.395   6.488   5.754 -0.8074  0.1145 -0.0398
10465TIP3    H152810   0.312   6.534   5.750 -0.5853  0.4382 -1.9539
10465TIP3    H252811   0.381   6.408   5.704 -0.6396 -1.0212  1.6582
10466TIP3   OH252812   5.355   2.280  16.735 -0.0190  0.0843 -0.0497
10466TIP3    H152813   5.407   2.206  16.766  1.4440  1.3400  0.6339
10466TIP3    H252814   5.393   2.356  16.779 -1.3094  1.2833 -0.9186
10467TIP3   OH252815   2.845   0.652   1.066  0.2352 -0.5959  0.1666
10467TIP3    H152816   2.849   0.656   1.161  1.7161  1.3705  0.0850
10467TIP3    H252817   2.765   0.699   1.043  1.1570  1.1554  0.3989
10468TIP3   OH252818   6.738   6.246   5.259 -0.2528 -0.5498  0.0806
10468TIP3    H152819   6.714   6.338   5.257  0.2569 -0.4190 -0.3303
10468TIP3    H252820   6.828   6.245   5.292 -0.5688 -0.9758  0.9651
10469TIP3   OH252821   1.290   4.169  14.552  0.1674  0.1584 -0.2370
10469TIP3    H152822   1.210   4.133  14.591 -1.4323  1.3636 -2.2049
10469TIP3    H252823   1.268   4.260  14.531  1.7380  0.2619 -1.6955
10470TIP3   OH252824   4.357   1.136  11.374 -0.7263 -0.0972  0.4518
10470TIP3    H152825   4.420   1.092  11.431  0.0394  0.9949  0.4648
10470TIP3    H252826   4.276   1.084  11.384  0.3404 -1.9993 -0.1840
10471TIP3   OH252827   2.038   0.631   5.764  0.3042 -0.3580 -0.3323
10471TIP3    H152828   1.952   0.589   5.768  0.5220 -0.7930 -0.1960
10471TIP3    H252829   2.065   0.621   5.672 -0.0421  0.2921 -0.5110
10472TIP3   OH252830   5.407   3.394  12.994 -0.3573 -0.3482  0.3371
10472TIP3    H152831   5.323   3.370  13.032  0.0454 -1.5982  0.4880
10472TIP3    H252832   5.470   3.334  13.034  1.0459  2.0832  2.0622
10473TIP3   OH252833   6.094   2.131  14.960  0.1002  0.5244 -0.5457
10473TIP3    H152834   6.041   2.173  14.892  0.9193  1.1232 -0.8253
10473TIP3    H252835   6.106   2.042  14.930 -0.6581  0.4044 -0.5276
10474TIP3   OH252836   4.891   2.311  14.070 -0.1253  0.3498 -0.4304
10474TIP3    H152837   4.843   2.369  14.129 -0.9774  0.8562 -1.5885
10474TIP3    H252838   4.832   2.297  13.996 -0.1116 -2.3019 -0.0586
10475TIP3   OH252839   2.377   5.945  15.106  0.2315  0.0049 -0.0747
10475TIP3    H152840   2.375   5.850  15.095 -0.0411 -0.0956  0.7724
10475TIP3    H252841   2.469   5.968  15.093  0.5151 -0.5332  0.8668
10476TIP3   OH252842   4.285   5.768   0.450 -0.5130 -0.0660  0.2127
10476TIP3    H152843   4.288   5.834   0.519 -1.2298 -0.7539  0.9206
10476TIP3    H252844   4.340   5.804   0.380  1.6806 -0.1169  1.8105
10477TIP3   OH252845   1.554   3.341   1.056  0.5900 -0.1050 -0.4274
10477TIP3    H152846   1.576   3.251   1.083 -0.3151 -0.5684 -1.1737
10477TIP3    H252847   1.629   3.393   1.083  1.1353 -1.0950  0.0167
10478TIP3   OH252848   3.393   4.758   6.035  0.2539  0.6132  0.2453
10478TIP3    H152849   3.338   4.822   5.990 -1.0625 -1.5323 -1.4364
10478TIP3    H252850   3.379   4.774   6.128 -1.1245  1.8447 -0.1446
10479TIP3   OH252851   0.467   2.881  13.587  0.5132  0.3687 -0.2480
10479TIP3    H152852   0.419   2.813  13.635 -0.0309  1.1403  0.3412
10479TIP3    H252853   0.472   2.848  13.497 -1.2004  0.2778 -0.3530
10480TIP3   OH252854   6.571   0.439  11.790 -0.0380  0.1667  0.3012
10480TIP3    H152855   6.551   0.522  11.749 -0.2480 -1.0035 -2.1224
10480TIP3    H252856   6.658   0.416  11.757  0.0489 -0.5696  0.9919
10481TIP3   OH252857   0.216   3.421   1.940  0.6175 -0.0323  0.1575
10481TIP3    H152858   0.304   3.429   1.978  0.7408 -0.9523  0.0767
10481TIP3    H252859   0.169   3.363   2.000 -0.1660  1.0008  0.5750
10482TIP3   OH252860   6.032   3.552  13.753  0.6629 -0.0932  0.2339
10482TIP3    H152861   5.960   3.530  13.812  1.3366 -0.7588  0.8263
10482TIP3    H252862   5.989   3.582  13.673 -0.2670  0.9077  1.0705
10483TIP3   OH252863   4.566   0.340  10.544 -0.3885  0.2972  0.3452
10483TIP3    H152864   4.493   0.334  10.607  0.4002  0.5206  1.3152
10483TIP3    H252865   4.637   0.378  10.595 -0.3346  2.4984 -1.2457
10484TIP3   OH252866   6.193   5.834   2.945 -0.1591  0.1416  1.0333
10484TIP3    H152867   6.245   5.837   2.864 -0.6120 -1.7000  0.6440
10484TIP3    H252868   6.236   5.897   3.003 -0.1043  1.8738 -0.7810
10485TIP3   OH252869   3.110   2.230   5.591 -0.0851  0.3065  0.4141
10485TIP3    H152870   3.133   2.323   5.596 -0.0534  0.2138  2.5216
10485TIP3    H252871   3.015   2.229   5.600  0.0284  0.0688  1.6575
10486TIP3   OH252872   1.389   0.325   4.947 -0.2053  0.3306 -0.4189
10486TIP3    H152873   1.357   0.369   5.026 -0.8877  0.9812 -1.0408
10486TIP3    H252874   1.485   0.327   4.957  0.0093  4.1342 -1.4596
10487TIP3   OH252875   5.169   0.664  11.466  0.3294  0.1065  0.2712
10487TIP3    H152876   5.252   0.710  11.480 -0.6124  1.5104  1.4568
10487TIP3    H252877   5.148   0.625  11.550  0.0862 -0.7855 -0.1903
10488TIP3   OH252878   3.794   1.951  13.661  0.1475  0.3884  0.1583
10488TIP3    H152879   3.801   2.005  13.740 -0.0656  0.5334  0.0789
10488TIP3    H252880   3.853   1.992  13.598 -0.5756  0.9691 -0.1488
10489TIP3   OH252881   2.833   5.117  11.708  0.0481 -0.2826 -0.1955
10489TIP3    H152882   2.780   5.185  11.666  0.9740  1.6930  1.6356
10489TIP3    H252883   2.913   5.162  11.735 -0.2133 -1.5376  3.0678
10490TIP3   OH252884   0.073   6.538  11.422 -0.3213  0.1881 -0.0534
10490TIP3    H152885   0.024   6.544  11.505 -1.8447 -0.6354 -0.8410
10490TIP3    H252886   0.113   6.451  11.425 -0.9322 -0.1155 -0.4459
10491TIP3   OH252887   0.797   3.973  17.013  0.6247  0.0018  0.2718
10491TIP3    H152888   0.740   3.898  17.031  1.9120 -0.6560  1.8030
10491TIP3    H252889   0.739   4.049  17.018 -0.9053 -0.8639 -2.1728
10492TIP3   OH252890   3.446   2.375  16.490 -0.1338 -0.8962  0.2981
10492TIP3    H152891   3.438   2.312  16.562 -0.8622 -1.3799 -0.1878
10492TIP3    H252892   3.521   2.344  16.439  0.3309 -0.6001  0.7986
10493TIP3   OH252893   4.256   6.187   4.255  0.2387  0.6574  0.7427
10493TIP3    H152894   4.273   6.184   4.349  1.4248  0.2137  0.5311
10493TIP3    H252895   4.170   6.145   4.244  0.0427  0.8189  1.6330
10494TIP3   OH252896   4.108   6.068  14.728  0.5478 -0.7895  0.5770
10494TIP3    H152897   4.049   6.092  14.799 -0.6000  3.7151 -1.5583
10494TIP3    H252898   4.064   5.997  14.682 -2.9576  1.7659 -0.3671
10495TIP3   OH252899   0.005   5.979   1.876 -0.2518  0.1570  1.2528
10495TIP3    H152900   0.037   5.916   1.811 -2.6606  1.9343 -1.9261
10495TIP3    H252901   0.066   6.052   1.871  1.0200 -0.7219  2.9912
10496TIP3   OH252902   3.016   5.198   4.744  0.4868  0.1485  0.1403
10496TIP3    H152903   3.043   5.205   4.652  0.6218 -0.5070  0.1287
10496TIP3    H252904   2.924   5.226   4.744  0.4626  0.0760 -0.2101
10497TIP3   OH252905   3.633   4.884  12.190 -0.3715 -0.3803  0.6780
10497TIP3    H152906   3.702   4.893  12.124  0.8822 -2.0628  1.6604
10497TIP3    H252907   3.598   4.796  12.175 -2.0103  0.2664  0.5131
10498TIP3   OH252908   1.334   0.561   5.108 -0.4409  0.1365 -0.8156
10498TIP3    H152909   1.422   0.598   5.106 -0.1112 -0.6644 -1.5526
10498TIP3    H252910   1.276   0.636   5.125  0.3915  0.6349 -0.1233
10499TIP3   OH252911   4.053   1.086  15.189 -0.2664 -0.5241 -0.4025
10499TIP3    H152912   4.039   1.122  15.102 -1.4859 -0.1077 -0.0528
10499TIP3    H252913   3.967   1.055  15.217  0.3604 -1.8762  0.1265
10500TIP3   OH252914   0.025   0.052  14.499 -0.5917  0.1110  0.1168
10500TIP3    H152915   0.094   0.075  14.436 -1.9558 -0.2401 -1.5731
10500TIP3    H252916  -0.001   0.135  14.537  0.8012  0.2412  0.8594
10501TIP3   OH252917   5.397   4.400  13.832 -0.0260  0.3652 -0.1402
10501TIP3    H152918   5.400   4.306  13.848 -0.1329  0.3681 -0.1008
10501TIP3    H252919   5.366   4.408  13.742  1.1797  0.3333 -0.5699
10502TIP3   OH252920   4.710   0.107  15.032  0.0548 -0.1717 -0.5133
10502TIP3    H152921   4.745   0.052  14.962  0.6929 -3.3773  2.0621
10502TIP3    H252922   4.785   0.126  15.088 -0.7066  0.9273  0.1769
10503TIP3   OH252923   2.137   5.000  14.579  0.1102  0.3856 -0.1147
10503TIP3    H152924   2.112   5.084  14.540 -1.3084  0.7663  1.5071
10503TIP3    H252925   2.098   4.934  14.520  1.3558  0.8243 -1.4735
10504TIP3   OH252926   5.489   6.417  16.408 -0.2332  0.0505  0.2355
10504TIP3    H152927   5.437   6.339  16.428 -0.3256 -0.4587 -1.7542
10504TIP3    H252928   5.500   6.415  16.312  0.3232  2.1332  0.1990
10505TIP3   OH252929   3.188   5.440   2.332 -0.2414 -0.1452  0.0079
10505TIP3    H152930   3.255   5.372   2.335  0.3376  0.4445  0.9644
10505TIP3    H252931   3.106   5.395   2.351  0.2970 -0.4057  1.9276
10506TIP3   OH252932   0.729   2.098  12.899 -0.3769  0.3279 -0.1952
10506TIP3    H152933   0.728   2.179  12.949 -3.3534  1.1362 -1.3731
10506TIP3    H252934   0.763   2.123  12.813  1.9645 -0.4775  0.4002
10507TIP3   OH252935   1.833   6.580  15.949 -0.0566 -0.8295 -0.3162
10507TIP3    H152936   1.875   6.589  15.863  0.8024 -2.7342 -0.1511
10507TIP3    H252937   1.821   6.485  15.960 -2.0713 -0.5008  0.7879
10508TIP3   OH252938   2.367   0.765   1.196  0.1155 -0.0734  0.3811
10508TIP3    H152939   2.432   0.830   1.221  0.0956 -0.2916  1.0259
10508TIP3    H252940   2.286   0.794   1.240  0.5285 -1.5004  2.2207
10509TIP3   OH252941   2.659   6.282  11.628  0.7687  0.3518 -0.2578
10509TIP3    H152942   2.747   6.253  11.607  1.3812  0.5962  1.7214
10509TIP3    H252943   2.623   6.213  11.684 -0.3619  0.2062 -1.1152
10510TIP3   OH252944   3.618   1.755   1.679  0.1616 -0.0570  0.0572
10510TIP3    H152945   3.567   1.778   1.601  1.6870 -1.0925 -1.3096
10510TIP3    H252946   3.591   1.819   1.745 -0.6861  1.2871 -1.5261
10511TIP3   OH252947   3.344   1.140  11.569  0.2644 -0.2332  0.3375
10511TIP3    H152948   3.320   1.227  11.538  0.5284 -0.4932 -0.6088
10511TIP3    H252949   3.371   1.154  11.660 -0.4304  0.5506  0.4376
10512TIP3   OH252950   1.102   6.652  15.290 -1.4163 -0.0663  0.1274
10512TIP3    H152951   1.103   6.685  15.380 -2.6518 -0.7651  0.4224
10512TIP3    H252952   1.149   6.719  15.240  1.2999 -0.7309  1.6069
10513TIP3   OH252953   4.005   4.690  12.109  0.4407 -0.0813  0.4280
10513TIP3    H152954   3.949   4.626  12.152  0.1045 -0.1235 -0.0532
10513TIP3    H252955   3.959   4.711  12.027  0.0360  1.5045  1.0116
10514TIP3   OH252956   4.778   6.738   2.107  0.3254 -0.4652  0.5513
10514TIP3    H152957   4.731   6.750   2.189 -1.8572  0.7218 -0.7649
10514TIP3    H252958   4.832   6.661   2.121  1.1574  0.5219  3.5471
10515TIP3   OH252959   1.211   4.171   4.059  0.4554  0.1085  0.0091
10515TIP3    H152960   1.267   4.122   3.999  0.7548  1.3344 -0.7480
10515TIP3    H252961   1.167   4.236   4.003  2.3706  2.7660  1.3557
10516TIP3   OH252962   3.071   4.024  13.419  0.5031 -0.1413 -0.1434
10516TIP3    H152963   3.060   3.954  13.483  0.8997  1.5615  1.8973
10516TIP3    H252964   3.009   4.092  13.446  2.9475  1.9900  0.4884
10517TIP3   OH252965   6.560   1.459   4.965  0.4317 -0.5095  0.0300
10517TIP3    H152966   6.468   1.484   4.958  1.0288  1.7627 -0.5449
10517TIP3    H252967   6.568   1.382   4.909 -1.3098 -1.4102  0.9296
10518TIP3   OH252968   0.975   5.226   3.652 -0.0785 -0.3245  0.2023
10518TIP3    H152969   0.938   5.312   3.635 -0.1281 -0.3571  0.1481
10518TIP3    H252970   0.938   5.200   3.737 -1.1576 -0.9012 -0.4240
10519TIP3   OH252971   1.573   1.420   1.237  0.1540  0.5062  0.6644
10519TIP3    H152972   1.621   1.494   1.200 -0.8439  1.8066  1.8406
10519TIP3    H252973   1.502   1.461   1.288  0.6076 -1.2044  2.8143
10520TIP3   OH252974   0.864   3.993  10.718  0.2062 -0.0619  0.3738
10520TIP3    H152975   0.876   4.061  10.784  1.3419  0.2677 -0.1437
10520TIP3    H252976   0.947   3.945  10.718 -0.4257 -1.2032  0.4364
10521TIP3   OH252977   1.833   3.013   3.683  0.3100  0.2273 -0.2754
10521TIP3    H152978   1.851   3.038   3.774 -0.6191 -0.9886  0.2766
10521TIP3    H252979   1.739   2.993   3.682  0.6282 -1.3588 -1.0930
10522TIP3   OH252980   5.866   1.519   5.705 -0.1428  1.0016 -0.0122
10522TIP3    H152981   5.823   1.532   5.789 -1.0059 -0.7580 -0.1397
10522TIP3    H252982   5.959   1.535   5.724 -0.2246 -0.0105  1.4577
10523TIP3   OH252983   2.662   0.934  12.476 -0.6195 -0.0358  0.1782
10523TIP3    H152984   2.650   1.012  12.531 -2.3718  1.0050 -1.5439
10523TIP3    H252985   2.583   0.882  12.489  0.4757 -1.5227  1.2067
10524TIP3   OH252986   1.839   6.456   0.919 -0.5420  0.3503  0.0801
10524TIP3    H152987   1.900   6.484   0.987  0.1026  0.8022 -0.6579
10524TIP3    H252988   1.769   6.521   0.922 -0.0211  0.9406 -0.3337
10525TIP3   OH252989   4.966   2.162   0.126 -0.5014 -0.1105 -0.5531
10525TIP3    H152990   4.939   2.249   0.097 -2.8796 -0.6119 -0.0368
10525TIP3    H252991   5.027   2.179   0.198  1.2495  1.0946 -2.2448
10526TIP3   OH252992   6.598   4.112   4.337  0.5063 -0.0075 -0.0184
10526TIP3    H152993   6.545   4.158   4.273 -1.6460 -3.3102 -0.8647
10526TIP3    H252994   6.626   4.032   4.292  1.2305 -1.1507  2.2910
10527TIP3   OH252995   5.561   3.583   1.517 -0.4495 -0.2638  0.0942
10527TIP3    H152996   5.631   3.542   1.466  0.6200  0.9096  0.5827
10527TIP3    H252997   5.485   3.527   1.501  1.0713 -2.8915  1.3095
10528TIP3   OH252998   2.078   3.703  16.114 -0.1424 -0.3760  0.1332
10528TIP3    H152999   2.051   3.751  16.036  0.5494 -1.0214 -0.5176
10528TIP3    H253000   2.053   3.612  16.097  2.0150 -0.9390 -0.3395
10529TIP3   OH253001   2.067   4.776  14.978 -0.0334  0.0731  0.0953
10529TIP3    H153002   2.158   4.765  14.952  0.7313  0.8065  2.2217
10529TIP3    H253003   2.026   4.821  14.904  1.4335  0.1499 -0.7114
10530TIP3   OH253004   3.520   6.475  13.183  0.2457  0.4346 -0.0175
10530TIP3    H153005   3.462   6.399  13.181 -1.1827  1.5006 -2.0793
10530TIP3    H253006   3.603   6.441  13.148 -0.8199  0.0931 -2.3944
10531TIP3   OH253007   0.163   5.323   1.701  0.2800  0.4790 -0.5257
10531TIP3    H153008   0.258   5.328   1.691  0.0714  1.7769 -2.6300
10531TIP3    H253009   0.139   5.243   1.653  0.3222 -0.2179  0.5688
10532TIP3   OH253010   4.619   6.699   5.890 -0.1897 -0.5527 -0.0042
10532TIP3    H153011   4.578   6.731   5.971  0.5689 -0.4416  0.3446
10532TIP3    H253012   4.652   6.778   5.847  2.9076 -0.8737  1.5286
10533TIP3   OH253013   4.943   3.087   1.584  0.2141  0.0610  0.4034
10533TIP3    H153014   4.987   3.116   1.503  2.0261  2.2810  2.0322
10533TIP3    H253015   4.995   3.013   1.614 -0.1625 -0.4543 -0.2041
10534TIP3   OH253016   0.673   0.724   4.349 -0.0507 -0.3203 -0.2484
10534TIP3    H153017   0.764   0.737   4.322  0.4913 -0.2209  1.4678
10534TIP3    H253018   0.679   0.685   4.436 -1.5848  2.4766  1.2683
10535TIP3   OH253019   2.143   2.249   2.796 -0.0557  0.4272  0.1867
10535TIP3    H153020   2.108   2.299   2.722  0.5683  0.2271 -0.2590
10535TIP3    H253021   2.068   2.199   2.829 -0.4091  0.7439 -0.1233
10536TIP3   OH253022   3.900   5.217   5.316 -0.1803  0.0205  0.3039
10536TIP3    H153023   3.889   5.144   5.377  0.5063 -0.6255 -0.3200
10536TIP3    H253024   3.974   5.191   5.261 -0.8943  0.4849 -0.9196
10537TIP3   OH253025   6.731   3.739   4.074 -0.3663  0.0612 -0.2575
10537TIP3    H153026   6.770   3.665   4.121  2.0901  1.2267 -0.3247
10537TIP3    H253027   6.659   3.768   4.131 -1.1087 -2.0620 -0.0377
10538TIP3   OH253028   4.300   5.726   2.730  0.1163 -0.0868  0.1279
10538TIP3    H153029   4.262   5.777   2.802 -0.5135 -0.9338  0.4049
10538TIP3    H253030   4.226   5.679   2.692  0.5735 -0.2431 -0.5904
10539TIP3   OH253031   4.877   6.235  15.541  0.6136 -0.2452 -0.4086
10539TIP3    H153032   4.909   6.148  15.516  2.1611 -0.8216  3.0826
10539TIP3    H253033   4.947   6.295  15.516  1.2586 -0.5533  0.6001
10540TIP3   OH253034   0.619   2.591   6.219 -0.3788  0.5294 -0.0029
10540TIP3    H153035   0.679   2.526   6.182 -0.8250 -0.4104  0.8475
10540TIP3    H253036   0.665   2.625   6.296 -1.0189 -0.4499  0.8589
10541TIP3   OH253037   3.398   4.915   0.123  0.2116  0.1309  0.5074
10541TIP3    H153038   3.324   4.854   0.130  1.7616 -1.7766  0.8941
10541TIP3    H253039   3.358   5.001   0.133 -1.8167 -0.8860  1.9804
10542TIP3   OH253040   3.004   3.895   0.620 -0.0233 -0.2425  0.9227
10542TIP3    H153041   2.960   3.837   0.557  2.0089 -0.3422 -0.4907
10542TIP3    H253042   3.053   3.835   0.677  1.6247 -0.0100 -0.1858
10543TIP3   OH253043   6.192   3.854   0.240  0.2153  0.4649 -0.3216
10543TIP3    H153044   6.209   3.855   0.334  0.4698  1.3334 -0.3630
10543TIP3    H253045   6.271   3.817   0.202  0.0153 -0.1103 -0.1765
10544TIP3   OH253046   2.426   2.618   3.869 -0.3818  0.1187  0.2164
10544TIP3    H153047   2.482   2.637   3.794 -0.7631 -0.5091 -0.2354
10544TIP3    H253048   2.348   2.673   3.854 -0.4143  0.0686  0.1999
10545TIP3   OH253049   6.006   5.808  11.785 -0.4148 -0.1734  0.0009
10545TIP3    H153050   6.033   5.719  11.763  0.6546  0.2615 -0.5030
10545TIP3    H253051   5.911   5.805  11.785 -0.4263 -1.7444  1.7233
10546TIP3   OH253052   1.181   6.231  10.781  0.9560 -0.7218  0.1574
10546TIP3    H153053   1.113   6.249  10.716 -1.2395  0.5457  2.6569
10546TIP3    H253054   1.213   6.144  10.758 -0.6768 -0.8951 -1.7839
10547TIP3   OH253055   6.269   5.116   2.441  0.0699  0.0404  0.2873
10547TIP3    H153056   6.353   5.162   2.437  0.0032  0.1842  0.5654
10547TIP3    H253057   6.242   5.122   2.532 -0.8854  1.1269 -0.0423
10548TIP3   OH253058   0.780   0.713   2.471 -0.2810  0.4471 -0.4020
10548TIP3    H153059   0.748   0.623   2.466  1.1627 -0.0296 -1.9629
10548TIP3    H253060   0.754   0.743   2.559  0.1190 -1.8384  0.5700
10549TIP3   OH253061   4.310   0.234  15.350  0.0939 -0.5061  0.1427
10549TIP3    H153062   4.273   0.306  15.300 -0.1538  0.3810  1.5282
10549TIP3    H253063   4.304   0.263  15.441 -0.4843 -2.4931  0.7975
10550TIP3   OH253064   0.238   6.450   2.857 -0.2254  0.4084 -0.1151
10550TIP3    H153065   0.241   6.423   2.765  0.6106  0.5820 -0.1485
10550TIP3    H253066   0.187   6.531   2.856  0.0654  0.5934 -0.4786
10551TIP3   OH253067   2.206   2.414   1.321  0.2150 -0.2182  0.5310
10551TIP3    H153068   2.122   2.393   1.359 -0.1104  0.5169  0.2428
10551TIP3    H253069   2.211   2.510   1.323  0.8967 -0.2350  0.2480
10552TIP3   OH253070   0.842   4.180  13.860 -0.1302  0.3730  0.0769
10552TIP3    H153071   0.799   4.188  13.945 -0.1178  0.2410  0.0945
10552TIP3    H253072   0.889   4.263  13.850  0.2450  0.1997  0.4011
10553TIP3   OH253073   6.668   6.198  14.181 -0.0615 -0.7530  0.0095
10553TIP3    H153074   6.761   6.203  14.159 -0.4501 -0.9689 -1.9482
10553TIP3    H253075   6.623   6.227  14.101 -1.6758  0.9820  1.4446
10554TIP3   OH253076   3.986   1.232   0.705  0.1542  0.7432  0.4683
10554TIP3    H153077   4.015   1.142   0.721  0.1409  0.3076 -1.6807
10554TIP3    H253078   3.975   1.269   0.793  2.1159 -0.6934  1.4137
10555TIP3   OH253079   5.883   4.857   6.402  0.4276  0.1904 -0.0275
10555TIP3    H153080   5.935   4.934   6.375 -0.0063  0.4042 -0.2624
10555TIP3    H253081   5.865   4.872   6.494  0.4504  0.3089 -0.0419
10556TIP3   OH253082   1.724   5.277  15.705  0.2940  0.4396 -0.2192
10556TIP3    H153083   1.771   5.207  15.659 -0.6734 -0.4917  0.1637
10556TIP3    H253084   1.637   5.278  15.663 -1.2120 -1.5476  2.5527
10557TIP3   OH253085   5.687   4.421   0.311  0.2519  0.2590 -0.3804
10557TIP3    H153086   5.659   4.337   0.350 -1.1711  0.3071 -1.2304
10557TIP3    H253087   5.685   4.405   0.217  1.0148  0.9514 -0.5204
10558TIP3   OH253088   4.536   3.970   4.047 -0.2761  0.4680 -0.0615
10558TIP3    H153089   4.561   3.902   4.109 -1.7342  0.3065  0.3645
10558TIP3    H253090   4.469   3.930   3.992 -1.0961  1.5155  0.1420
10559TIP3   OH253091   3.842   0.751   0.035  0.1633  0.1483  0.4222
10559TIP3    H153092   3.803   0.665   0.019 -0.3274 -0.0098  2.1801
10559TIP3    H253093   3.769   0.812   0.025  0.1782  0.1957  0.5961
10560TIP3   OH253094   3.049   2.557   5.390 -0.3504  0.9538  0.9202
10560TIP3    H153095   3.138   2.550   5.425  0.4989  0.2483 -1.2426
10560TIP3    H253096   3.049   2.640   5.342 -0.5312  0.4619  0.0649
10561TIP3   OH253097   3.623   5.590   0.790 -0.0758  0.1395  0.5526
10561TIP3    H153098   3.540   5.591   0.837  0.6330 -0.5191  1.8858
10561TIP3    H253099   3.643   5.682   0.775 -1.5393  0.2815 -0.7536
10562TIP3   OH253100   4.177   3.776  13.216  0.5436 -0.6332  0.5711
10562TIP3    H153101   4.256   3.759  13.165  0.9883 -0.7659  1.2842
10562TIP3    H253102   4.191   3.729  13.299 -0.8457 -1.7485  0.2269
10563TIP3   OH253103   1.430   6.588   2.134 -0.0415 -0.2020  0.0396
10563TIP3    H153104   1.498   6.530   2.166  0.8181  0.9953  0.4419
10563TIP3    H253105   1.374   6.532   2.080  0.0786 -1.6485  1.3369
10564TIP3   OH253106   2.589   1.921  11.253 -0.6703 -0.0369 -0.0146
10564TIP3    H153107   2.561   2.006  11.217  1.8069  0.4744 -0.9391
10564TIP3    H253108   2.594   1.864  11.177 -0.7642 -0.5623  0.3707
10565TIP3   OH253109   6.238   4.138   0.358 -0.1931  0.1019  0.2218
10565TIP3    H153110   6.269   4.228   0.346 -0.9248  0.3635  0.2620
10565TIP3    H253111   6.267   4.092   0.280 -0.4912  0.5644 -0.1650
10566TIP3   OH253112   6.289   1.101  12.757  0.4244 -0.3420 -0.0971
10566TIP3    H153113   6.280   1.031  12.822  3.6350  0.3352  1.2731
10566TIP3    H253114   6.276   1.057  12.673  1.3228 -2.3863  0.7557
10567TIP3   OH253115   1.480   2.409  15.962 -0.2129 -0.2833  0.2400
10567TIP3    H153116   1.570   2.419  15.929  0.2173  0.0394  1.4416
10567TIP3    H253117   1.427   2.463  15.905  0.7805  1.8070  1.1993
10568TIP3   OH253118   4.768   4.294   2.743 -0.1550  0.4040  0.0210
10568TIP3    H153119   4.754   4.207   2.705  1.1254  0.1176  0.1536
10568TIP3    H253120   4.833   4.281   2.812 -0.3163  1.3890  0.3840
10569TIP3   OH253121   5.690   4.958  14.201  0.1982  0.1557 -0.0705
10569TIP3    H153122   5.620   4.913  14.153  0.6958 -0.0767 -0.5950
10569TIP3    H253123   5.758   4.891  14.212  0.4875  0.4785  0.1160
10570TIP3   OH253124   5.733   3.223   1.795  0.1648 -0.4639 -0.5446
10570TIP3    H153125   5.679   3.301   1.801 -0.7850 -1.1726  0.3022
10570TIP3    H253126   5.823   3.256   1.797 -0.2204  0.6074 -0.3225
10571TIP3   OH253127   4.820   1.364   3.175 -0.5134  0.4022 -0.0233
10571TIP3    H153128   4.900   1.311   3.167 -0.9131 -0.5145  1.7368
10571TIP3    H253129   4.789   1.373   3.085  0.1424 -1.4707 -0.4819
10572TIP3   OH253130   0.259   4.927  16.236 -0.4618  0.0602  0.5409
10572TIP3    H153131   0.254   5.022  16.230  2.5628  0.2752 -0.1038
10572TIP3    H253132   0.177   4.896  16.197 -1.8500  2.3632  1.4580
10573TIP3   OH253133   1.234   6.421   0.164 -0.2283 -0.3524 -0.4862
10573TIP3    H153134   1.181   6.362   0.110 -1.6048 -0.7198  1.1921
10573TIP3    H253135   1.189   6.506   0.157  0.7586  0.1208 -1.4986
10574TIP3   OH253136   1.584   1.083  12.554 -0.0685 -0.1143  0.0867
10574TIP3    H153137   1.497   1.096  12.514 -0.3889 -3.4310 -0.5417
10574TIP3    H253138   1.575   1.120  12.642 -1.7212  0.6912 -0.3626
10575TIP3   OH253139   5.518   1.151  15.475  0.1093  0.2163  0.2793
10575TIP3    H153140   5.452   1.220  15.482  1.7657  1.6910  4.8061
10575TIP3    H253141   5.484   1.079  15.528  1.5069  0.5402  1.6814
10576TIP3   OH253142   5.872   3.727   4.101  0.1080 -0.1016  0.0657
10576TIP3    H153143   5.847   3.797   4.041  0.6559 -1.2597 -1.5880
10576TIP3    H253144   5.789   3.688   4.129 -0.1362 -0.6945 -1.3953
10577TIP3   OH253145   3.430   0.993   3.000  0.0380 -0.2048  0.6659
10577TIP3    H153146   3.367   0.963   3.066 -1.8437  0.7076 -0.6118
10577TIP3    H253147   3.450   1.083   3.025 -0.3650  0.0076  0.2490
10578TIP3   OH253148   3.098   5.784  15.190  0.1438 -0.7121  0.3236
10578TIP3    H153149   3.061   5.871  15.174 -0.3320 -0.6533  1.6769
10578TIP3    H253150   3.138   5.790  15.276  0.4646 -1.7334  0.2583
10579TIP3   OH253151   6.090   4.210  11.463 -0.6010  0.0340 -0.0768
10579TIP3    H153152   6.123   4.126  11.495 -1.7718 -0.2988  0.2965
10579TIP3    H253153   6.143   4.229  11.385 -0.6105 -1.2566 -0.4125
10580TIP3   OH253154   2.969   2.001  12.016 -0.1807  0.4253 -0.0409
10580TIP3    H153155   2.938   2.065  11.953  0.8330  0.8211 -0.1600
10580TIP3    H253156   3.018   1.937  11.963  0.7637  0.8165  0.3409
10581TIP3   OH253157   5.563   2.323   0.814 -0.2339  0.0365 -0.5351
10581TIP3    H153158   5.482   2.373   0.809 -0.3997 -0.3635 -2.7307
10581TIP3    H253159   5.631   2.389   0.823 -0.7108  0.4430  0.1273
10582TIP3   OH253160   2.927   5.304   2.393 -0.0316 -0.2442  0.1382
10582TIP3    H153161   2.845   5.268   2.428  0.6359 -2.7656 -0.7326
10582TIP3    H253162   2.898   5.365   2.324 -1.1822 -0.3259  0.5293
10583TIP3   OH253163   0.700   3.207  13.218 -0.2372 -0.0938 -0.1499
10583TIP3    H153164   0.704   3.150  13.141 -1.3577 -0.9561  0.4022
10583TIP3    H253165   0.625   3.264  13.202 -1.0697 -0.9103  0.6928
10584TIP3   OH253166   2.987   5.591  14.303 -0.6762  0.2517 -0.0442
10584TIP3    H153167   2.896   5.582  14.331 -1.1967 -0.3694 -1.7905
10584TIP3    H253168   3.024   5.658  14.360 -2.4411  1.0722  0.1820
10585TIP3   OH253169   0.137   3.170  14.181  0.0711 -1.0205 -0.3916
10585TIP3    H153170   0.075   3.098  14.172  1.3751 -1.9491 -2.9633
10585TIP3    H253171   0.222   3.128  14.191  0.4466  0.2205  3.0761
10586TIP3   OH253172   4.802   6.453  16.050 -0.5936  0.2561  0.2735
10586TIP3    H153173   4.809   6.524  15.986  0.3841 -0.1735 -0.1205
10586TIP3    H253174   4.750   6.386  16.005 -0.8661  0.4170  0.3527
10587TIP3   OH253175   5.290   0.787  12.969 -0.1160  0.1217 -0.1403
10587TIP3    H153176   5.372   0.802  12.922  0.8854  0.2319  1.5887
10587TIP3    H253177   5.247   0.872  12.970 -0.1717  0.1066 -0.8897
10588TIP3   OH253178   6.422   5.592   0.226  0.2476  0.2712  0.1284
10588TIP3    H153179   6.332   5.601   0.258 -0.3290 -0.9288 -1.0541
10588TIP3    H253180   6.450   5.506   0.257  0.5384  0.1291 -0.5096
10589TIP3   OH253181   6.488   5.268   5.780  0.2777 -0.3786 -0.4991
10589TIP3    H153182   6.566   5.255   5.726  0.7764  1.2591 -0.2276
10589TIP3    H253183   6.440   5.339   5.736 -0.1834 -0.2054  0.2635
10590TIP3   OH253184   5.450   5.794   4.072 -0.6392  0.2046 -0.5586
10590TIP3    H153185   5.450   5.783   3.976 -0.4770  1.9156 -0.7824
10590TIP3    H253186   5.440   5.888   4.085 -0.9987 -0.0485  1.1356
10591TIP3   OH253187   0.704   3.354   5.579  0.0180  0.1116 -0.3869
10591TIP3    H153188   0.663   3.285   5.527  1.6837 -0.0932 -1.5105
10591TIP3    H253189   0.798   3.342   5.565  0.3910  2.0308  0.1253
10592TIP3   OH253190   1.809   1.445   0.671  0.2685 -0.4880 -0.4926
10592TIP3    H153191   1.880   1.410   0.725 -0.7091  0.5632  1.5626
10592TIP3    H253192   1.764   1.367   0.638  0.1467 -1.2046  1.2535
10593TIP3   OH253193   4.430   2.683  13.880 -0.2875  0.1819 -0.2356
10593TIP3    H153194   4.385   2.652  13.958  0.5592 -0.6554 -0.0671
10593TIP3    H253195   4.437   2.778  13.892 -0.3924  0.0927  0.5849
10594TIP3   OH253196   5.874   2.384   2.809  0.0710 -0.3269  0.7561
10594TIP3    H153197   5.939   2.366   2.877  1.5147  1.0173 -0.2118
10594TIP3    H253198   5.856   2.477   2.817  1.3071  0.1815 -1.5082
10595TIP3   OH253199   4.037   1.028  10.826 -0.5652  0.4614 -0.0874
10595TIP3    H153200   4.110   1.071  10.782  0.4971  1.3320  2.3765
10595TIP3    H253201   3.970   1.095  10.833 -0.9059  0.1969 -0.6967
10596TIP3   OH253202   1.652   5.401  16.535  0.2300 -0.5099  0.0700
10596TIP3    H153203   1.711   5.327  16.522 -0.6005 -1.6075  2.0839
10596TIP3    H253204   1.577   5.364  16.582 -1.0366  1.2719 -0.4383
10597TIP3   OH253205   3.872   4.239  16.667  0.2870 -0.0258 -0.1111
10597TIP3    H153206   3.932   4.310  16.645  0.6869 -0.5080 -0.6129
10597TIP3    H253207   3.923   4.159  16.654 -0.3289 -0.4279 -0.1102
10598TIP3   OH253208   3.922   6.031  11.597 -0.2598 -0.1601  0.1702
10598TIP3    H153209   3.899   5.942  11.570  0.0778 -0.3277  0.4239
10598TIP3    H253210   3.869   6.088  11.541 -1.1629 -0.5315  0.6286
10599TIP3   OH253211   5.873   2.678   1.944 -0.6561  0.1745  0.0326
10599TIP3    H153212   5.886   2.589   1.913  0.3584  0.1547  0.4910
10599TIP3    H253213   5.778   2.693   1.935 -0.9453 -1.1857  0.5999
10600TIP3   OH253214   6.219   5.558   5.458 -0.0139  0.0981 -0.2079
10600TIP3    H153215   6.254   5.520   5.538  0.8991  1.3297  0.0045
10600TIP3    H253216   6.198   5.482   5.403 -0.7235 -0.7741  1.1957
10601TIP3   OH253217   0.306   0.959  13.785  0.0469 -0.4366  0.0920
10601TIP3    H153218   0.361   0.937  13.861 -0.7390 -1.7055  0.3128
10601TIP3    H253219   0.361   0.938  13.709  0.2608 -0.6612  0.3066
10602TIP3   OH253220   3.094   3.823   5.292 -0.2571 -0.1572  0.2871
10602TIP3    H153221   3.128   3.892   5.349  4.4841  0.1127 -2.3555
10602TIP3    H253222   3.040   3.870   5.228 -0.1460  0.5443  0.6988
10603TIP3   OH253223   5.242   1.167   4.089 -0.7045 -0.4548 -0.2036
10603TIP3    H153224   5.173   1.107   4.061  0.0387 -1.0118 -0.8943
10603TIP3    H253225   5.276   1.204   4.007 -0.2936 -0.0670  0.1373
10604TIP3   OH253226   3.029   1.450  13.438  0.1132  0.4136  0.9564
10604TIP3    H153227   3.065   1.361  13.442  0.0995  0.2808 -0.9022
10604TIP3    H253228   3.026   1.470  13.345 -1.9828  1.5230  1.1964
10605TIP3   OH253229   3.573   3.547  15.140 -0.4819  0.4427  0.6161
10605TIP3    H153230   3.550   3.459  15.171 -0.9233 -1.3382 -3.9013
10605TIP3    H253231   3.514   3.606  15.186 -2.0060 -1.9530  1.9208
10606TIP3   OH253232   0.174   2.827   0.788  0.1479  0.6137 -0.4984
10606TIP3    H153233   0.162   2.732   0.794 -0.6693  0.6649 -1.0596
10606TIP3    H253234   0.213   2.840   0.701  1.5273  0.6982  0.1139
10607TIP3   OH253235   3.984   4.143  16.043 -0.2931 -0.2033 -0.0817
10607TIP3    H153236   3.972   4.110  16.132  0.9474  0.6345  0.4322
10607TIP3    H253237   4.011   4.234  16.056  1.6226 -0.5587 -1.2302
10608TIP3   OH253238   6.006   4.346  13.598  0.2462  0.4208  0.1142
10608TIP3    H153239   6.084   4.384  13.638  0.1095  1.0103 -0.1742
10608TIP3    H253240   5.963   4.419  13.554  0.3312 -0.1782 -1.0052
10609TIP3   OH253241   5.996   4.629   6.325 -0.3659 -0.0370  0.3501
10609TIP3    H153242   5.936   4.703   6.339 -0.1639  0.1036  0.4780
10609TIP3    H253243   5.958   4.558   6.377  0.1334  0.3553  1.2813
10610TIP3   OH253244   1.101   3.196  16.686 -0.1962  0.2870  0.3578
10610TIP3    H153245   1.188   3.166  16.659  0.0295  1.1369  0.1168
10610TIP3    H253246   1.083   3.271  16.629 -1.0991  0.0944  0.3885
10611TIP3   OH253247   2.774   0.698  13.296  0.1258  0.0102  0.2198
10611TIP3    H153248   2.753   0.639  13.224 -2.2184  1.0213 -0.0237
10611TIP3    H253249   2.689   0.733  13.324  1.3923  3.5539  0.0966
10612TIP3   OH253250   2.071   2.482   2.962 -0.6244 -0.1201  0.7119
10612TIP3    H153251   2.135   2.471   2.892 -0.4486 -0.1021  0.8700
10612TIP3    H253252   2.077   2.575   2.986  0.2940 -0.4118  1.6889
10613TIP3   OH253253   0.325   3.449   3.613 -0.3121 -0.5834  0.1952
10613TIP3    H153254   0.258   3.382   3.599  0.0425 -1.0589  0.7185
10613TIP3    H253255   0.405   3.399   3.629 -0.3132 -0.0758  2.0440
10614TIP3   OH253256   4.503   4.667  10.899  0.1046 -0.3732  0.1242
10614TIP3    H153257   4.560   4.738  10.929 -0.3267  0.2446 -0.4664
10614TIP3    H253258   4.556   4.616  10.839  0.4491 -0.6145  0.6285
10615TIP3   OH253259   4.565   1.629   5.623  0.1894 -0.7367  0.8256
10615TIP3    H153260   4.634   1.649   5.687  0.0187 -0.6579  0.9863
10615TIP3    H253261   4.612   1.616   5.541  0.3192  0.1941  0.7404
10616TIP3   OH253262   2.410   3.251   1.357  0.6353 -0.7764 -0.5272
10616TIP3    H153263   2.422   3.261   1.263 -0.3262 -0.6570 -0.6508
10616TIP3    H253264   2.488   3.291   1.396  0.0693  1.0718 -1.2106
10617TIP3   OH253265   6.569   1.281  11.807  0.5874 -0.4801  0.0069
10617TIP3    H153266   6.625   1.314  11.737 -0.5692 -0.1039 -0.7606
10617TIP3    H253267   6.618   1.300  11.888  0.4101  2.2751 -0.4494
10618TIP3   OH253268   1.360   5.224   2.741  0.5247 -0.1652  0.5351
10618TIP3    H153269   1.303   5.222   2.818 -0.0075 -2.0249  0.1371
10618TIP3    H253270   1.448   5.209   2.776  0.5483  0.8193  0.9442
10619TIP3   OH253271   0.858   4.505   2.037  0.2522 -0.0832  0.3116
10619TIP3    H153272   0.834   4.533   1.949 -0.5907 -1.5279  0.0368
10619TIP3    H253273   0.946   4.467   2.027 -0.4014 -1.5384 -0.2408
10620TIP3   OH253274   5.267   3.653  15.450 -0.0619  0.4065 -0.6238
10620TIP3    H153275   5.258   3.743  15.419 -0.2747  0.2380 -1.0723
10620TIP3    H253276   5.311   3.660  15.534 -1.1145  1.0141 -0.1089
10621TIP3   OH253277   5.032   0.011  12.701 -0.2694  0.2842 -0.3098
10621TIP3    H153278   5.002  -0.074  12.669 -0.5350 -0.2416  1.2411
10621TIP3    H253279   5.103  -0.010  12.761  0.5455  1.2669 -0.9005
10622TIP3   OH253280   4.935   0.803  14.891  0.3277  0.5449 -0.3369
10622TIP3    H153281   5.003   0.748  14.852 -0.8786 -1.0183 -0.3287
10622TIP3    H253282   4.957   0.808  14.984 -0.1021 -0.7938 -0.1535
10623TIP3   OH253283   2.802   4.543  17.019  0.5827  0.5956  0.0124
10623TIP3    H153284   2.866   4.613  17.006  0.4027  0.8977  0.7338
10623TIP3    H253285   2.734   4.582  17.074  0.9373 -0.4195  1.2079
10624TIP3   OH253286   0.092   2.287  14.010 -0.5240  0.0784 -0.4364
10624TIP3    H153287   0.081   2.319  14.099  1.4513  0.5636 -0.3203
10624TIP3    H253288   0.016   2.322  13.963  0.0673  2.6077  0.3398
10625TIP3   OH253289   0.729   0.611  16.782 -0.1109 -0.5648 -0.1659
10625TIP3    H153290   0.714   0.663  16.702  0.1231 -0.7364 -0.3233
10625TIP3    H253291   0.688   0.662  16.852  0.6018  0.1261 -0.2278
10626TIP3   OH253292   1.328   4.806   5.592 -0.0131  0.1609  0.2754
10626TIP3    H153293   1.379   4.727   5.609 -0.8508 -0.6857 -0.9359
10626TIP3    H253294   1.303   4.799   5.499  0.5057  2.2134 -0.0672
10627TIP3   OH253295   6.066   4.242   2.681  0.0847  0.2184 -0.3366
10627TIP3    H153296   5.975   4.256   2.705  0.2750  0.2196  0.4025
10627TIP3    H253297   6.116   4.280   2.753  0.6640 -0.2647 -0.4743
10628TIP3   OH253298   0.167   1.156   5.727 -0.4211 -0.5892 -0.0294
10628TIP3    H153299   0.167   1.103   5.806  0.5450  0.0236  0.3958
10628TIP3    H253300   0.231   1.114   5.670  2.0271  1.2554  1.1507
10629TIP3   OH253301   3.466   3.304   1.354 -0.0128  0.1255  0.1649
10629TIP3    H153302   3.508   3.348   1.280 -1.0787 -0.7915 -1.0326
10629TIP3    H253303   3.406   3.369   1.390 -0.3825  0.1944 -0.5585
10630TIP3   OH253304   2.741   5.028   1.480 -0.0971 -0.3298  0.2760
10630TIP3    H153305   2.722   4.960   1.416  2.3548 -0.3478 -0.5098
10630TIP3    H253306   2.831   5.012   1.507 -0.5216  0.6640  2.5378
10631TIP3   OH253307   3.131   5.419  12.481 -0.1696  0.2052 -0.2648
10631TIP3    H153308   3.216   5.463  12.481 -0.1307  0.1355  0.2094
10631TIP3    H253309   3.151   5.328  12.458  0.1083 -0.2066  1.4628
10632TIP3   OH253310   3.355   2.592   2.448  0.0065  0.0204  0.4009
10632TIP3    H153311   3.278   2.641   2.477 -0.7974 -2.0493  2.0888
10632TIP3    H253312   3.330   2.557   2.363 -0.1860  0.8836  0.0969
10633TIP3   OH253313   1.517   1.099  16.324  0.7682 -0.1436  0.0824
10633TIP3    H153314   1.481   1.055  16.401 -0.0886  0.7847  0.2295
10633TIP3    H253315   1.511   1.193  16.345  1.2256  0.0950 -0.8101
10634TIP3   OH253316   2.733   0.017  12.277 -0.6439 -0.2662 -0.4331
10634TIP3    H153317   2.807  -0.030  12.238  1.9963  2.7240  0.5054
10634TIP3    H253318   2.720  -0.026  12.362  0.5892 -0.3799 -0.2805
10635TIP3   OH253319   3.252   4.964  15.999 -0.0149  0.0799 -0.5556
10635TIP3    H153320   3.307   5.016  16.058 -2.7781  1.3458  1.1744
10635TIP3    H253321   3.271   4.873  16.022  0.6493  0.5031  0.6602
10636TIP3   OH253322   5.874   6.229   0.720  0.2026  0.1062 -0.2140
10636TIP3    H153323   5.870   6.242   0.625  0.5190  0.0755 -0.2314
10636TIP3    H253324   5.965   6.247   0.743  0.4423 -1.1532 -0.1082
10637TIP3   OH253325   1.331   3.122  15.287 -0.3136 -0.0085 -0.1819
10637TIP3    H153326   1.386   3.200  15.289 -0.4413  0.2579 -2.9442
10637TIP3    H253327   1.242   3.157  15.284 -0.3579 -0.1836 -1.8091
10638TIP3   OH253328   2.307   2.096  14.908  0.4244 -0.1258 -0.1026
10638TIP3    H153329   2.285   2.026  14.848  0.3637 -0.8523  0.7513
10638TIP3    H253330   2.267   2.174  14.870 -0.8779 -0.8358 -0.2318
10639TIP3   OH253331   4.641   4.731  14.796 -0.1067  0.0903 -0.3467
10639TIP3    H153332   4.675   4.641  14.798 -0.0690  0.1009 -0.4942
10639TIP3    H253333   4.640   4.758  14.888 -0.8684 -0.3389 -0.2172
10640TIP3   OH253334   6.326   5.407   1.689 -0.3803  0.1640  0.4383
10640TIP3    H153335   6.277   5.434   1.767 -0.1319 -2.6391  1.7054
10640TIP3    H253336   6.418   5.423   1.711 -0.3926  0.7871  0.0687
10641TIP3   OH253337   2.797   5.026  11.393 -0.5648 -0.1951 -0.1282
10641TIP3    H153338   2.771   5.069  11.475  1.5681 -0.4611  0.7532
10641TIP3    H253339   2.747   4.944  11.392 -0.1208 -0.5187  1.2923
10642TIP3   OH253340   0.315   2.374  12.559 -0.1315 -0.2259  0.0991
10642TIP3    H153341   0.293   2.458  12.601 -0.0931 -0.5783  0.8429
10642TIP3    H253342   0.244   2.359  12.497 -1.0625 -0.4626  1.1791
10643TIP3   OH253343   0.953   2.842  14.310 -0.5448 -0.2910 -0.1640
10643TIP3    H153344   0.944   2.794  14.393  0.0972  1.2016  0.8138
10643TIP3    H253345   1.021   2.796  14.262 -0.3265 -0.6765  0.5102
10644TIP3   OH253346   3.408   5.731   4.197  0.1727  0.5294 -0.0183
10644TIP3    H153347   3.432   5.787   4.271  3.0954 -0.0281 -0.4408
10644TIP3    H253348   3.442   5.644   4.220 -2.0955 -0.5518 -0.4629
10645TIP3   OH253349   4.705   4.925   0.864 -0.0042  0.2835 -0.0707
10645TIP3    H153350   4.768   4.996   0.849 -0.2482  0.6650  0.6509
10645TIP3    H253351   4.757   4.845   0.856  0.1831  0.5036 -1.3755
10646TIP3   OH253352   2.604   3.326   5.191  0.5016 -0.0574  0.4165
10646TIP3    H153353   2.676   3.321   5.128  0.4738  0.2473  0.3570
10646TIP3    H253354   2.525   3.329   5.137  0.4063 -0.9485  0.4929
10647TIP3   OH253355   3.603   6.249  14.413  0.4035  0.0168 -0.3908
10647TIP3    H153356   3.654   6.235  14.493  0.2233 -0.6380 -0.3898
10647TIP3    H253357   3.578   6.342  14.417  0.6798  0.0749  0.1396
10648TIP3   OH253358   6.286   3.525  15.470 -0.0591 -0.0667 -0.2946
10648TIP3    H153359   6.260   3.433  15.462 -2.6344  0.4004  1.2803
10648TIP3    H253360   6.203   3.573  15.468  1.0480  2.0572  0.9454
10649TIP3   OH253361   1.069   3.959  16.543 -0.3424  0.6952 -0.2379
10649TIP3    H153362   1.053   3.926  16.632 -1.3712  1.0385 -0.2786
10649TIP3    H253363   1.164   3.959  16.534 -0.2569 -0.2027  0.5361
10650TIP3   OH253364   2.318   5.364   0.742  0.3398 -0.0816 -0.3072
10650TIP3    H153365   2.294   5.452   0.713 -1.5070  0.2728  2.0164
10650TIP3    H253366   2.268   5.306   0.684 -0.2541  0.4654 -0.3595
10651TIP3   OH253367   3.645   3.880  12.052 -0.1670 -0.1219 -0.4200
10651TIP3    H153368   3.671   3.881  11.960 -0.4855  4.3231 -0.6453
10651TIP3    H253369   3.572   3.819  12.056 -0.0034 -0.5937 -3.0316
10652TIP3   OH253370   5.739   0.722  13.591 -0.0070  0.2411 -0.3210
10652TIP3    H153371   5.741   0.813  13.563 -1.8862  0.7283  0.9312
10652TIP3    H253372   5.756   0.725  13.685  1.4027 -0.8762 -0.4977
10653TIP3   OH253373   0.956   3.443   3.209 -0.5989 -0.4717 -0.1049
10653TIP3    H153374   0.943   3.384   3.284  1.5194  0.0106  0.7114
10653TIP3    H253375   0.930   3.529   3.242 -1.1123 -0.5044 -0.4215
10654TIP3   OH253376   3.620   3.337   5.738 -0.5210  0.1417  0.1105
10654TIP3    H153377   3.620   3.425   5.773 -0.9332 -0.5350  1.9110
10654TIP3    H253378   3.600   3.281   5.813  1.2854 -1.6251 -0.6376
10655TIP3   OH253379   0.191   5.677   2.726  0.9259  0.0935  0.2698
10655TIP3    H153380   0.139   5.602   2.697 -1.5416  1.6667  0.2919
10655TIP3    H253381   0.279   5.659   2.693  0.2706 -2.4264 -0.3614
10656TIP3   OH253382   1.756   4.898  13.326 -0.3641 -0.2256 -0.7138
10656TIP3    H153383   1.753   4.978  13.379 -2.3999 -0.3601 -0.5328
10656TIP3    H253384   1.748   4.827  13.390  3.3103 -0.7944 -0.6609
10657TIP3   OH253385   0.419   4.793   1.903 -0.1842  0.2504  0.0150
10657TIP3    H153386   0.378   4.762   1.983  1.0939 -0.6641  0.3547
10657TIP3    H253387   0.499   4.836   1.932 -0.2844  0.9256 -0.6958
10658TIP3   OH253388   5.685   0.485  12.029  0.5949 -0.5759  0.4801
10658TIP3    H153389   5.728   0.564  12.063  0.9818 -1.3756  1.9328
10658TIP3    H253390   5.727   0.470  11.945 -1.0885  2.0431 -0.9919
10659TIP3   OH253391   5.090   2.353   3.676  0.2159 -0.1818  0.6686
10659TIP3    H153392   5.155   2.355   3.606 -1.5094 -0.8244 -1.0482
10659TIP3    H253393   5.136   2.315   3.751  2.0809  0.3828 -0.1285
10660TIP3   OH253394   5.088   2.920   6.234  0.2660 -0.2829  0.5930
10660TIP3    H153395   5.131   2.887   6.155  0.0117 -0.3255  0.4707
10660TIP3    H253396   5.005   2.873   6.237 -0.2354  0.5684  0.2471
10661TIP3   OH253397   6.298   3.482  15.911 -0.0345  0.2492  0.3617
10661TIP3    H153398   6.294   3.553  15.847 -1.2704  0.0748  0.2103
10661TIP3    H253399   6.223   3.497  15.969 -0.6200 -1.1961  0.0255
10662TIP3   OH253400   5.220   0.342  15.040  0.2633  0.1541  0.2150
10662TIP3    H153401   5.233   0.251  15.013 -2.0350 -0.0255 -0.5611
10662TIP3    H253402   5.289   0.358  15.104  2.1610 -1.3699 -1.3273
10663TIP3   OH253403   1.080   3.724   0.673  0.4181  0.3552  0.1579
10663TIP3    H153404   1.162   3.748   0.629  0.7081  0.8973  0.9852
10663TIP3    H253405   1.015   3.724   0.603  1.0966  0.0173 -0.4951
10664TIP3   OH253406   2.025   1.266  13.462  0.3412 -0.6804  0.3060
10664TIP3    H153407   2.121   1.269  13.459  0.5158 -2.4258  2.0017
10664TIP3    H253408   2.004   1.176  13.436 -0.8972 -0.1400 -0.6261
10665TIP3   OH253409   5.648   1.244   0.882  0.1298 -0.1132  0.2690
10665TIP3    H153410   5.615   1.254   0.793 -0.0743  1.3678  0.4938
10665TIP3    H253411   5.580   1.282   0.938  1.0699  0.6662  0.9173
10666TIP3   OH253412   2.969   0.498   4.495  0.1584 -0.7972  0.1179
10666TIP3    H153413   2.889   0.452   4.469 -0.0832 -1.0068  1.2024
10666TIP3    H253414   3.023   0.497   4.416 -0.5983 -1.3053 -0.4164
10667TIP3   OH253415   1.517   0.331  14.198  0.3720  0.0183  0.4467
10667TIP3    H153416   1.527   0.317  14.103  2.0912 -2.4267  0.8882
10667TIP3    H253417   1.605   0.319  14.233  0.2315  3.1724  2.2009
10668TIP3   OH253418   2.727   0.060  11.980  0.3671  0.5436 -0.2388
10668TIP3    H153419   2.742   0.071  12.074 -0.0042  1.2990 -0.2518
10668TIP3    H253420   2.633   0.040  11.974  0.1949  1.3547 -0.4865
10669TIP3   OH253421   2.314   1.300   5.520  0.2254 -0.0118  0.0297
10669TIP3    H153422   2.328   1.206   5.511  0.4918  0.0988 -0.7426
10669TIP3    H253423   2.235   1.318   5.468  1.3822  0.5172 -1.6152
10670TIP3   OH253424   4.709   3.433   5.921  0.6897 -0.5653  0.0966
10670TIP3    H153425   4.764   3.512   5.923  1.2203 -0.8217 -2.0377
10670TIP3    H253426   4.621   3.466   5.941  1.0986  0.3614  0.4724
10671TIP3   OH253427   5.386   5.699  16.513 -0.0349  0.0718 -0.8077
10671TIP3    H153428   5.451   5.633  16.536 -0.8777 -0.5648 -0.1679
10671TIP3    H253429   5.339   5.661  16.439 -1.1474 -0.5019  0.1605
10672TIP3   OH253430   4.872   1.371   1.445  0.0550  0.2653 -0.5033
10672TIP3    H153431   4.787   1.343   1.410 -1.3191  0.4701  2.3546
10672TIP3    H253432   4.914   1.290   1.474 -0.8438  0.4204  1.3916
10673TIP3   OH253433   2.569   4.412  16.782  0.8106 -0.1436 -0.1562
10673TIP3    H153434   2.515   4.340  16.749  0.6567 -0.2412  0.2990
10673TIP3    H253435   2.516   4.453  16.851  1.2756 -0.1838  0.2367
10674TIP3   OH253436   6.219   6.202   5.729  0.0180  0.1856 -0.4546
10674TIP3    H153437   6.169   6.276   5.694 -0.3691  0.4539  0.6224
10674TIP3    H253438   6.203   6.131   5.667 -1.1453  0.4722 -0.5104
10675TIP3   OH253439   5.026   2.440   6.069 -0.6406 -0.0827  0.3655
10675TIP3    H153440   5.117   2.436   6.040 -0.7441 -0.1861  0.0392
10675TIP3    H253441   4.976   2.430   5.988 -0.9397 -0.3033  0.5758
10676TIP3   OH253442   4.695   4.501  11.529  0.1377 -0.0541 -0.0741
10676TIP3    H153443   4.680   4.481  11.622  0.9813 -3.0242 -0.4818
10676TIP3    H253444   4.789   4.515  11.522  0.2006 -0.7265 -0.6213
10677TIP3   OH253445   6.261   0.640  14.899 -0.3294 -0.4097 -0.7866
10677TIP3    H153446   6.346   0.622  14.938 -0.9648 -1.2350  0.2779
10677TIP3    H253447   6.243   0.731  14.920  0.3654 -0.1654 -1.2016
10678TIP3   OH253448   2.538   3.360   6.167 -0.3387 -0.1618 -0.3168
10678TIP3    H153449   2.444   3.344   6.163 -0.2159 -1.2085  0.3361
10678TIP3    H253450   2.564   3.377   6.076 -0.9200 -1.4499 -0.7518
10679TIP3   OH253451   5.898   4.674   4.495  0.0878 -0.3820  0.2530
10679TIP3    H153452   5.829   4.648   4.555 -1.2083  3.0517  0.4719
10679TIP3    H253453   5.978   4.674   4.548 -0.7231  0.8145  1.5248
10680TIP3   OH253454   0.752   3.682  11.465  0.0113  0.0656 -0.1823
10680TIP3    H153455   0.848   3.682  11.463  0.0635  0.0790  1.3145
10680TIP3    H253456   0.728   3.591  11.478 -0.2490 -0.1257 -1.8066
10681TIP3   OH253457   1.718   6.082  16.090 -0.3153  0.2223 -0.6623
10681TIP3    H153458   1.626   6.077  16.065 -0.7816  0.0372  0.9922
10681TIP3    H253459   1.717   6.110  16.181  1.2856  0.5230 -0.7044
10682TIP3   OH253460   4.015   4.876  13.456 -0.6658 -0.7765  0.2783
10682TIP3    H153461   4.037   4.810  13.390  2.0228  0.7203 -0.4884
10682TIP3    H253462   3.927   4.904  13.433 -1.5793 -3.4883  0.1707
10683TIP3   OH253463   4.263   0.070  16.233 -0.0248  0.2378 -0.0958
10683TIP3    H153464   4.258   0.077  16.328  1.3972  0.0489  0.0109
10683TIP3    H253465   4.351   0.036  16.216  0.4564  2.0698 -1.5759
10684TIP3   OH253466   4.198   1.737   1.412  0.5712  0.1751 -0.4707
10684TIP3    H153467   4.136   1.810   1.417 -1.0853 -1.1400 -0.8438
10684TIP3    H253468   4.254   1.758   1.338 -0.7934  0.4277 -1.4824
10685TIP3   OH253469   2.206   6.165   1.402 -0.2250 -0.6475  0.8641
10685TIP3    H153470   2.272   6.235   1.393 -0.2162 -0.3765  2.7109
10685TIP3    H253471   2.257   6.086   1.419 -0.2455 -1.1319 -1.0623
10686TIP3   OH253472   2.275   3.425  11.523 -0.0981  0.1156  0.3429
10686TIP3    H153473   2.356   3.463  11.558 -0.4331 -0.0861  1.3861
10686TIP3    H253474   2.245   3.488  11.457  0.0015  1.0600  1.1712
10687TIP3   OH253475   2.422   3.121  12.843  0.5130  0.6192  0.9825
10687TIP3    H153476   2.440   3.036  12.804  0.4623  1.3127 -0.6798
10687TIP3    H253477   2.493   3.177  12.811 -0.0351  1.4340  1.1570
10688TIP3   OH253478   1.969   0.516   4.628 -0.5797  0.7808  0.5403
10688TIP3    H153479   1.909   0.472   4.688 -1.2592  1.8891  0.6965
10688TIP3    H253480   1.920   0.523   4.546  0.7960 -1.9174 -0.6551
10689TIP3   OH253481   2.738   6.324   6.230 -0.5722  0.2374 -0.1669
10689TIP3    H153482   2.820   6.371   6.217 -0.4169 -0.3002 -1.2549
10689TIP3    H253483   2.699   6.318   6.143 -0.3078 -2.0948 -0.2110
10690TIP3   OH253484   2.632   3.251  15.887 -0.2209 -0.2332 -0.2943
10690TIP3    H153485   2.585   3.211  15.815 -1.7105 -1.0167  1.0500
10690TIP3    H253486   2.577   3.325  15.914  0.4563  0.2233 -0.1331
10691TIP3   OH253487   0.187   5.808   2.031 -0.5794  0.2485  0.4247
10691TIP3    H153488   0.209   5.727   1.986  1.0131  1.2926 -0.7987
10691TIP3    H253489   0.203   5.877   1.966 -1.3847  1.5848  1.5786
10692TIP3   OH253490   2.165   0.658   4.479 -0.7178 -0.4598 -0.1234
10692TIP3    H153491   2.107   0.632   4.550  0.0999 -1.9293  0.0506
10692TIP3    H253492   2.113   0.647   4.400 -0.6192 -2.0602  0.0054
10693TIP3   OH253493   2.331   5.861   2.570  0.1308 -0.6725  0.1995
10693TIP3    H153494   2.283   5.779   2.579 -2.1819  0.5270 -0.4851
10693TIP3    H253495   2.401   5.840   2.508  0.0656 -2.2964  0.6203
10694TIP3   OH253496   0.282   2.801  15.547  0.0887 -0.2599  0.0843
10694TIP3    H153497   0.357   2.853  15.518  1.2016 -0.9644  1.5578
10694TIP3    H253498   0.219   2.866  15.579  0.5549  0.2891 -0.0953
10695TIP3   OH253499   6.540   5.830   5.590  0.0385  0.2324 -0.5323
10695TIP3    H153500   6.632   5.802   5.584 -0.3443 -1.4612  0.6687
10695TIP3    H253501   6.545   5.916   5.633  1.0801  0.3408 -0.8248
10696TIP3   OH253502   1.022   3.688  11.464  0.0838 -0.3128 -0.7048
10696TIP3    H153503   1.089   3.621  11.450  0.4724 -0.0046 -0.3338
10696TIP3    H253504   1.047   3.730  11.546 -1.1147 -0.8608 -0.0276
10697TIP3   OH253505   4.695   5.593   1.441  0.7535  0.2753  0.2016
10697TIP3    H153506   4.733   5.580   1.354 -1.0632 -0.3302 -0.5625
10697TIP3    H253507   4.724   5.680   1.468 -1.3269  1.9740 -2.5257
10698TIP3   OH253508   3.669   2.470  11.198  0.0140 -0.4797 -0.3811
10698TIP3    H153509   3.632   2.387  11.229  1.7958 -0.6193  1.5116
10698TIP3    H253510   3.665   2.463  11.102 -0.1330 -2.6193 -0.2557
10699TIP3   OH253511   0.707   0.532  15.591  0.5220  0.3684 -0.1662
10699TIP3    H153512   0.802   0.536  15.582  0.7741  1.0230  2.1863
10699TIP3    H253513   0.679   0.623  15.595 -0.3243  0.2019 -1.5064
10700TIP3   OH253514   4.005   5.458   1.820  0.3349  0.2793  0.1185
10700TIP3    H153515   3.965   5.533   1.776 -0.4769 -0.6855 -0.8472
10700TIP3    H253516   4.009   5.484   1.912 -0.3083  1.3487 -0.1360
10701TIP3   OH253517   5.707   5.370   4.372  0.0959  0.3860  0.2161
10701TIP3    H153518   5.658   5.293   4.401  0.7414  0.0784  0.5443
10701TIP3    H253519   5.667   5.395   4.289 -0.6877  0.2297  0.5367
10702TIP3   OH253520   3.808   6.231  13.765 -0.5949 -0.5012 -0.4921
10702TIP3    H153521   3.805   6.303  13.828 -0.2692 -1.0400  0.1425
10702TIP3    H253522   3.814   6.275  13.680  0.0616  0.2282 -0.0910
10703TIP3   OH253523   2.529   6.335  15.168 -0.1755  0.1835  0.3236
10703TIP3    H153524   2.576   6.360  15.089 -0.5914  0.4672  0.1572
10703TIP3    H253525   2.446   6.298  15.136  0.3470 -1.2685  0.5690
10704TIP3   OH253526   3.223   5.912  15.406  0.4669 -0.0885 -0.1432
10704TIP3    H153527   3.258   5.977  15.467  0.7705 -1.3562  1.0719
10704TIP3    H253528   3.137   5.890  15.441 -0.1406  0.4868 -1.2097
10705TIP3   OH253529   1.226   4.631  12.132 -0.4063 -0.1956  0.9744
10705TIP3    H153530   1.280   4.553  12.117  0.0588 -0.0560  1.8874
10705TIP3    H253531   1.208   4.664  12.044  1.0761 -0.2014  0.6445
10706TIP3   OH253532   6.367   3.223   3.520 -0.4475 -0.0711 -0.1196
10706TIP3    H153533   6.431   3.289   3.496  1.0876 -1.6261 -0.4998
10706TIP3    H253534   6.354   3.171   3.441 -0.2111 -1.3255  0.6314
10707TIP3   OH253535   4.075   5.623  16.839 -0.4870  0.2056  0.7398
10707TIP3    H153536   4.029   5.551  16.795 -0.0082 -0.6901  1.6611
10707TIP3    H253537   4.034   5.628  16.925 -0.0732  0.6000  0.9184
10708TIP3   OH253538   2.806   4.418   1.615 -0.0906 -0.6067  0.6433
10708TIP3    H153539   2.830   4.503   1.576  0.5257 -0.5889  1.0621
10708TIP3    H253540   2.887   4.386   1.654  0.0389 -2.0441 -0.6972
10709TIP3   OH253541   1.784   5.645   5.788  0.5639 -0.0504 -0.1732
10709TIP3    H153542   1.757   5.713   5.850 -1.3836  0.4622 -1.5068
10709TIP3    H253543   1.810   5.693   5.710 -0.0266 -0.7895 -0.8380
10710TIP3   OH253544   3.775   0.692  15.517  0.2619  0.4586 -0.3255
10710TIP3    H153545   3.771   0.784  15.493  0.1718  0.2852 -0.9904
10710TIP3    H253546   3.701   0.679  15.576  0.8344  1.0250  0.5430
10711TIP3   OH253547   5.599   0.625  11.752 -0.2821 -0.6366  0.3486
10711TIP3    H153548   5.560   0.602  11.667 -0.4512  1.3493 -0.1510
10711TIP3    H253549   5.678   0.570  11.758  0.0955 -0.3401 -1.4134
10712TIP3   OH253550   0.090   2.888  12.192  0.0936  0.6592 -0.4377
10712TIP3    H153551   0.178   2.887  12.231  0.9743  0.2739 -2.3108
10712TIP3    H253552   0.105   2.914  12.101 -1.5469 -0.9311 -1.2113
10713TIP3   OH253553   2.024   2.267   2.178 -0.2976 -0.5166  0.4428
10713TIP3    H153554   2.025   2.216   2.259  1.1557 -1.0798  0.0894
10713TIP3    H253555   2.043   2.203   2.110  0.1485  0.2526 -0.1599
10714TIP3   OH253556   3.395   3.366  11.542 -0.0438  0.1135 -0.0074
10714TIP3    H153557   3.408   3.361  11.447  0.7743 -1.7516  0.1567
10714TIP3    H253558   3.425   3.282  11.575 -1.8324  0.0951  1.7685
10715TIP3   OH253559   5.562   4.533  16.150 -0.3777  0.3439 -0.2550
10715TIP3    H153560   5.646   4.547  16.193  0.0479  0.7208 -1.1752
10715TIP3    H253561   5.500   4.519  16.222  0.7769 -1.8230  0.4247
10716TIP3   OH253562   2.366   5.574  13.427 -0.3334  0.2315 -0.1056
10716TIP3    H153563   2.409   5.557  13.511  0.5666  2.6792  0.0184
10716TIP3    H253564   2.428   5.542  13.362  1.2635  2.6075  0.1099
10717TIP3   OH253565   6.783   5.079   0.313 -0.0057  0.9100  0.1037
10717TIP3    H153566   6.853   5.022   0.282 -0.7737 -0.0477  0.0703
10717TIP3    H253567   6.751   5.037   0.393 -1.7824  0.2530 -0.8899
10718TIP3   OH253568   0.054   4.017   1.876  0.1769 -0.5764  0.6916
10718TIP3    H153569   0.083   4.087   1.934  1.0003 -1.8477  1.8935
10718TIP3    H253570   0.043   3.941   1.934 -0.4276 -1.5136 -0.6011
10719TIP3   OH253571   6.624   5.886  12.734 -0.7368  0.4100 -0.1980
10719TIP3    H153572   6.665   5.828  12.669 -1.7953  0.2965 -0.7925
10719TIP3    H253573   6.677   5.874  12.813  0.4507  0.3887 -0.9704
10720TIP3   OH253574   3.051   6.706   2.047  0.2744  0.2198  0.5533
10720TIP3    H153575   3.080   6.615   2.050  0.3508  0.2123 -0.3268
10720TIP3    H253576   3.012   6.717   1.961 -1.5427  0.4967  1.3735
10721TIP3   OH253577   5.222   4.159   1.029  0.2234 -0.2678  0.3332
10721TIP3    H153578   5.189   4.249   1.025 -0.7272 -0.6191 -0.2175
10721TIP3    H253579   5.243   4.145   1.121  0.9406  0.7006  0.3333
10722TIP3   OH253580   1.640   4.478   4.158 -0.2901  0.5168  0.1118
10722TIP3    H153581   1.625   4.400   4.106 -0.6515 -1.3062  2.7521
10722TIP3    H253582   1.563   4.486   4.213  0.8429  1.2188  1.6855
10723TIP3   OH253583   0.433   4.598   0.371  0.3978 -0.1512 -0.1494
10723TIP3    H153584   0.487   4.596   0.292  1.5369 -0.5918  0.6184
10723TIP3    H253585   0.377   4.521   0.363  1.1788 -0.7413 -0.0810
10724TIP3   OH253586   0.469   3.762  11.398 -0.1743  0.4808  0.1911
10724TIP3    H153587   0.536   3.728  11.457 -1.1685 -1.7633  0.1414
10724TIP3    H253588   0.388   3.721  11.428 -1.2365  1.6847 -0.8798
10725TIP3   OH253589   3.277   2.629   1.647  0.0785  0.2815 -0.0536
10725TIP3    H153590   3.322   2.681   1.714  1.2683 -2.7217  1.6740
10725TIP3    H253591   3.348   2.593   1.593 -0.5464 -1.1182  0.0336
10726TIP3   OH253592   6.164   6.441  16.316  0.3756  0.3738  0.0194
10726TIP3    H153593   6.204   6.506  16.258 -0.0423  0.0032 -0.7032
10726TIP3    H253594   6.168   6.359  16.266  0.7192 -0.1224  0.8402
10727TIP3   OH253595   4.355   6.666  12.988  0.0205 -0.3291  0.0728
10727TIP3    H153596   4.327   6.575  13.001  0.9476 -0.7867 -0.9801
10727TIP3    H253597   4.395   6.666  12.901  0.9455  0.8672  0.4790
10728TIP3   OH253598   3.365   3.326  13.383 -0.0850  0.6973  0.4752
10728TIP3    H153599   3.308   3.403  13.377  0.1155  0.8918  0.9972
10728TIP3    H253600   3.368   3.306  13.476  0.3195  0.3960  0.3987
10729TIP3   OH253601   5.498   1.579   2.302 -0.2369  0.2901 -0.2599
10729TIP3    H153602   5.458   1.654   2.347 -1.2326 -0.2379 -0.2407
10729TIP3    H253603   5.434   1.555   2.235  0.1495 -0.4595 -0.3652
10730TIP3   OH253604   2.859   2.449   2.463 -0.5163  0.1982  0.0847
10730TIP3    H153605   2.826   2.401   2.387 -0.5874  1.0433 -0.4254
10730TIP3    H253606   2.930   2.503   2.430 -1.8709  2.1495  0.1455
10731TIP3   OH253607   4.485   1.247  13.107  0.1263 -0.6789  0.5670
10731TIP3    H153608   4.407   1.269  13.158  1.0441 -0.2868  1.8597
10731TIP3    H253609   4.539   1.326  13.111 -0.3424 -0.1041 -2.2502
10732TIP3   OH253610   5.336   0.394   3.957  0.3558  0.5164  0.2814
10732TIP3    H153611   5.323   0.484   3.988 -1.8515 -0.1900  1.5870
10732TIP3    H253612   5.407   0.401   3.893 -1.0934  3.5211 -1.1896
10733TIP3   OH253613   2.461   4.014  11.553 -0.1612  0.3393  0.0126
10733TIP3    H153614   2.457   3.994  11.460 -1.8398  0.0553  0.1093
10733TIP3    H253615   2.459   3.929  11.597  3.0811  0.2923  0.3601
10734TIP3   OH253616   0.212   0.257   3.957 -0.0136  0.5578  0.2730
10734TIP3    H153617   0.289   0.199   3.959  0.4244  1.1516  0.7590
10734TIP3    H253618   0.231   0.319   3.887 -2.0178 -1.9216 -2.7766
10735TIP3   OH253619   6.351   3.713  14.956 -0.0752  0.1717  0.1272
10735TIP3    H153620   6.390   3.634  14.918 -1.3977 -1.1781  1.4026
10735TIP3    H253621   6.374   3.783  14.896  2.3667 -0.9131 -0.3208
10736TIP3   OH253622   1.969   0.044  12.388 -0.4826  0.1688  0.1257
10736TIP3    H153623   1.901   0.020  12.325  0.9669 -1.6485 -0.8365
10736TIP3    H253624   2.006   0.126  12.353 -1.7371  0.8619  0.3554
10737TIP3   OH253625   3.571   2.797  11.201  0.2853  0.5644 -0.0127
10737TIP3    H153626   3.636   2.729  11.222 -0.8872 -0.3805  0.7690
10737TIP3    H253627   3.509   2.793  11.275 -0.4876  1.6373 -0.5832
10738TIP3   OH253628   2.000   3.255  16.772 -0.2394  0.3733  0.4853
10738TIP3    H153629   2.062   3.227  16.839 -0.7830 -1.8865  0.1206
10738TIP3    H253630   2.053   3.270  16.694  0.2772  2.1341  1.1399
10739TIP3   OH253631   4.870   1.738  16.096 -0.0054 -0.4270  0.2677
10739TIP3    H153632   4.789   1.781  16.066  0.1332 -1.0906 -1.1732
10739TIP3    H253633   4.848   1.703  16.182 -1.3611 -0.8287 -0.2027
10740TIP3   OH253634   1.272   4.817  13.568 -0.7486 -0.2685 -0.0744
10740TIP3    H153635   1.362   4.846  13.553 -0.6950 -0.5417 -0.2852
10740TIP3    H253636   1.277   4.764  13.648 -0.3838 -1.7979 -1.0585
10741TIP3   OH253637   4.399   0.232   5.932 -0.4855  0.6192  0.0675
10741TIP3    H153638   4.372   0.307   5.986 -1.5735 -0.4843  1.1257
10741TIP3    H253639   4.459   0.183   5.988  0.1881  0.6520 -0.6049
10742TIP3   OH253640   6.285   3.283  12.162 -0.1592  0.3120  0.3778
10742TIP3    H153641   6.197   3.318  12.151 -0.7819 -0.3286  2.8538
10742TIP3    H253642   6.321   3.330  12.237  1.0325 -0.5481  0.3831
10743TIP3   OH253643   3.528   6.149   2.857  0.6314  0.1425  0.2028
10743TIP3    H153644   3.619   6.135   2.885  0.2043  0.7447  2.0395
10743TIP3    H253645   3.517   6.091   2.782  2.1877 -0.8106  0.6603
10744TIP3   OH253646   0.106   5.986   1.470  1.0482  0.2296  0.5955
10744TIP3    H153647   0.060   5.912   1.430  0.7610  1.4581 -1.5009
10744TIP3    H253648   0.040   6.030   1.523  0.0562  1.2279 -1.3581
10745TIP3   OH253649   4.461   0.188  10.937  0.5668 -0.3495 -0.5393
10745TIP3    H153650   4.499   0.261  10.888 -0.7159 -0.6939 -2.1011
10745TIP3    H253651   4.413   0.137  10.872  0.6543 -2.0905  0.6844
10746TIP3   OH253652   2.837   3.103   4.683  0.5472  0.0551 -0.2770
10746TIP3    H153653   2.870   3.087   4.772 -0.5874 -1.4493 -0.0954
10746TIP3    H253654   2.910   3.081   4.626  0.7284 -0.6605  0.2215
10747TIP3   OH253655   2.674   3.730  15.470  0.3267 -0.4104 -0.1716
10747TIP3    H153656   2.656   3.716  15.562 -1.3509  0.8100 -0.2669
10747TIP3    H253657   2.666   3.825  15.458  2.2289 -0.3199 -1.2496
10748TIP3   OH253658   3.074   4.271   5.523  0.1155  0.1051 -0.0422
10748TIP3    H153659   3.108   4.236   5.440 -1.7104 -0.2238 -0.6997
10748TIP3    H253660   3.096   4.364   5.520 -0.9635  0.3603 -1.5036
10749TIP3   OH253661   1.387   1.024  16.568 -0.0128  0.6713 -0.4155
10749TIP3    H153662   1.306   0.975  16.555  1.5016 -2.1465  0.0668
10749TIP3    H253663   1.388   1.045  16.662 -0.0180  0.4060 -0.3559
10750TIP3   OH253664   5.006   2.816   2.112 -0.2571  0.0417 -0.3339
10750TIP3    H153665   4.956   2.786   2.189  0.0389  0.7856  0.1531
10750TIP3    H253666   5.017   2.737   2.059  1.5950 -1.0527  1.5304
10751TIP3   OH253667   0.582   4.021  16.420  0.2117 -0.2737 -0.7714
10751TIP3    H153668   0.626   3.971  16.352  0.7196 -1.9455  0.7140
10751TIP3    H253669   0.493   3.985  16.422  0.2446 -0.3422 -0.4654
10752TIP3   OH253670   4.504   5.317  12.527 -0.3494 -0.5936  0.3782
10752TIP3    H153671   4.574   5.317  12.592 -0.4779 -0.0521  0.5241
10752TIP3    H253672   4.480   5.225  12.516  0.8993 -0.8701 -0.2359
10753TIP3   OH253673   1.737   0.215   3.261  0.6598 -0.0617  0.1106
10753TIP3    H153674   1.790   0.190   3.337  0.0146  0.1511  0.6355
10753TIP3    H253675   1.781   0.292   3.226 -0.9279  1.9946  2.3483
10754TIP3   OH253676   1.731   1.982   5.745  0.0476 -0.1267 -0.3278
10754TIP3    H153677   1.780   1.926   5.685 -1.4323 -1.4027 -0.4256
10754TIP3    H253678   1.672   2.033   5.689  0.7332  0.8638 -0.1651
10755TIP3   OH253679   5.780   2.223  15.419 -0.1650 -0.0432 -0.4711
10755TIP3    H153680   5.812   2.158  15.482 -0.3987  1.4089  1.2226
10755TIP3    H253681   5.795   2.182  15.334  2.2744 -1.1761  0.3862
10756TIP3   OH253682   1.935   4.339   2.931 -0.1303 -0.1973  0.2787
10756TIP3    H153683   1.991   4.367   3.003  0.0882  0.1426 -0.0133
10756TIP3    H253684   1.880   4.271   2.967  1.8385 -1.9987  0.0628
10757TIP3   OH253685   2.934   5.025   2.119  0.4040  0.3696  0.1535
10757TIP3    H153686   2.908   4.978   2.040  2.3648  2.7388 -2.0812
10757TIP3    H253687   2.852   5.044   2.163 -0.7477 -1.2549 -1.1583
10758TIP3   OH253688   2.094   3.146   3.204 -0.0145  0.5661 -0.6649
10758TIP3    H153689   2.097   3.170   3.296 -1.9851 -0.1472 -0.3538
10758TIP3    H253690   2.088   3.229   3.157  4.0776  1.1384 -0.4605
10759TIP3   OH253691   5.973   3.485   0.189  0.6282 -0.0048 -0.0426
10759TIP3    H153692   5.878   3.493   0.179  0.2038 -0.4314  2.7176
10759TIP3    H253693   5.991   3.523   0.275  2.8917 -0.5172 -0.2256
10760TIP3   OH253694   2.291   1.941  11.227  0.0565  0.7339 -0.2947
10760TIP3    H153695   2.289   1.845  11.229 -1.1143  0.7343 -0.6679
10760TIP3    H253696   2.369   1.964  11.278 -1.0526 -0.3491  2.0608
10761TIP3   OH253697   0.430   1.615  16.609 -0.0343 -0.0895 -0.3778
10761TIP3    H153698   0.379   1.615  16.689  0.4268 -0.3636 -0.0785
10761TIP3    H253699   0.521   1.616  16.638  0.1831 -1.9510 -0.8374
10762TIP3   OH253700   2.421   5.288  15.028 -0.3259 -0.0775  0.4346
10762TIP3    H153701   2.471   5.210  15.053  0.0905 -0.0492 -0.2944
10762TIP3    H253702   2.456   5.313  14.943  1.1476  2.2260  1.6107
10763TIP3   OH253703   0.047   3.203  11.458  0.4861 -0.2645 -0.1521
10763TIP3    H153704   0.109   3.146  11.413 -0.3249 -0.8152 -0.5982
10763TIP3    H253705  -0.003   3.145  11.515  1.1459  0.3453  1.1046
10764TIP3   OH253706   3.916   2.200   3.115  1.1198  0.1145  0.1073
10764TIP3    H153707   3.866   2.122   3.138  0.4060  0.2946 -0.8114
10764TIP3    H253708   3.901   2.213   3.022 -0.7099  2.6989  0.6362
10765TIP3   OH253709   0.874   0.944  16.563 -0.2527  0.1233  0.1046
10765TIP3    H153710   0.814   0.936  16.637 -2.2588 -1.6184 -1.6033
10765TIP3    H253711   0.829   0.901  16.490  3.4925 -2.3829 -1.0432
10766TIP3   OH253712   5.034   1.309   0.121 -0.1284  0.5251  0.1857
10766TIP3    H153713   4.939   1.299   0.110 -0.0641 -0.7909  0.6432
10766TIP3    H253714   5.059   1.369   0.051 -1.2416  0.5816 -0.1971
10767TIP3   OH253715   4.713   4.276   1.729 -0.0517  0.3791 -0.3566
10767TIP3    H153716   4.751   4.249   1.812 -0.8283 -0.0458 -0.1229
10767TIP3    H253717   4.775   4.247   1.662 -1.1691 -2.7479 -0.1854
10768TIP3   OH253718   4.848   4.139   4.852  0.5166 -0.0802  0.6459
10768TIP3    H153719   4.841   4.148   4.947  1.8673  2.0213  0.5934
10768TIP3    H253720   4.826   4.225   4.817 -1.3306 -1.1516 -1.1000
10769TIP3   OH253721   3.261   5.903  16.627  0.0648  0.2791 -0.1427
10769TIP3    H153722   3.224   5.884  16.713 -0.7262 -1.7494 -0.8725
10769TIP3    H253723   3.284   5.996  16.631  0.3474  0.1545  2.3378
10770TIP3   OH253724   5.530   4.492   4.067  0.3015  0.1757 -0.4410
10770TIP3    H153725   5.573   4.561   4.118 -0.4958  0.3958 -0.0454
10770TIP3    H253726   5.528   4.417   4.126 -2.9826  1.1804  0.9545
10771TIP3   OH253727   4.217   3.546  12.072  0.2432  0.2865 -0.3152
10771TIP3    H153728   4.153   3.591  12.126 -0.1299  0.6494 -1.0421
10771TIP3    H253729   4.292   3.605  12.069 -0.3447  1.0153 -1.4826
10772TIP3   OH253730   1.300   5.874  13.502  0.0057 -0.1200 -0.4840
10772TIP3    H153731   1.363   5.883  13.430 -0.8084  1.5729 -1.0231
10772TIP3    H253732   1.222   5.920  13.472 -0.1870  1.0846  1.6570
10773TIP3   OH253733   4.435   3.000  12.589  0.4192  0.0835 -0.0092
10773TIP3    H153734   4.441   3.063  12.517 -1.4132 -0.0784 -0.3597
10773TIP3    H253735   4.433   2.914  12.547  0.1662 -0.0579  0.2817
10774TIP3   OH253736   2.575   6.116   1.787  0.3859 -0.3233 -0.3360
10774TIP3    H153737   2.497   6.167   1.810  0.8939  0.6186 -0.6630
10774TIP3    H253738   2.569   6.106   1.692  0.1686 -1.1026 -0.2524
10775TIP3   OH253739   2.497   4.420  13.242 -0.0159  0.1616 -0.1551
10775TIP3    H153740   2.518   4.327  13.253  1.3718  0.5442  0.6329
10775TIP3    H253741   2.409   4.429  13.278 -0.5676 -1.0113 -1.1184
10776TIP3   OH253742   0.571   1.953   6.151  0.0388 -0.6091 -0.2966
10776TIP3    H153743   0.483   1.959   6.188 -0.2116 -1.7286 -0.6503
10776TIP3    H253744   0.558   1.956   6.057  0.4355 -0.2436 -0.3429
10777TIP3   OH253745   5.281   0.503   2.197 -0.3661 -0.7248 -0.2281
10777TIP3    H153746   5.343   0.534   2.263  0.0820 -3.6838  0.9015
10777TIP3    H253747   5.230   0.580   2.173  3.4762  1.8293 -0.9892
10778TIP3   OH253748   3.403   6.061   1.117 -0.1264  0.8298 -0.1889
10778TIP3    H153749   3.457   6.130   1.155 -0.0619  0.3445  0.6179
10778TIP3    H253750   3.393   5.997   1.187 -0.7467  0.3389 -0.7145
10779TIP3   OH253751   2.775   1.790  13.348 -0.0025  0.1335  0.0565
10779TIP3    H153752   2.736   1.720  13.401  1.6564 -0.2858  0.7674
10779TIP3    H253753   2.844   1.747  13.297  3.9704  1.7157  3.5185
10780TIP3   OH253754   0.880   2.912   2.646 -0.3595 -0.1624 -0.0262
10780TIP3    H153755   0.950   2.953   2.595  1.1314 -1.2978  1.0006
10780TIP3    H253756   0.899   2.937   2.737 -0.6729 -1.2926  0.3755
10781TIP3   OH253757   4.127   5.026   4.891  0.0237 -0.7317 -0.0111
10781TIP3    H153758   4.182   4.966   4.840 -0.4638 -1.2210  0.0375
10781TIP3    H253759   4.190   5.074   4.945  0.6225  0.2577 -1.5118
10782TIP3   OH253760   4.570   2.066  12.093  0.0131 -0.4818  0.3039
10782TIP3    H153761   4.475   2.081  12.087  0.0197 -0.6320 -0.2013
10782TIP3    H253762   4.581   2.014  12.172 -0.4488 -1.4568 -0.2548
10783TIP3   OH253763   2.338   5.237   3.021  0.2069 -0.0471 -0.4789
10783TIP3    H153764   2.286   5.313   3.045 -0.6267  0.0306 -2.3339
10783TIP3    H253765   2.330   5.177   3.095 -3.1089 -0.2937 -0.9046
10784TIP3   OH253766   0.237   1.581   4.943 -0.0816 -0.5196 -0.3046
10784TIP3    H153767   0.303   1.535   4.994  0.8097 -0.4934 -1.3850
10784TIP3    H253768   0.167   1.602   5.005  0.9995 -0.4055  0.8911
10785TIP3   OH253769   3.911   1.047   4.954  0.5758 -0.0845  0.0556
10785TIP3    H153770   3.925   1.033   4.861 -0.0438  0.7539 -0.1812
10785TIP3    H253771   3.818   1.028   4.968  1.0331 -1.9266  0.8624
10786TIP3   OH253772   0.471   2.153  15.404 -0.4500  0.4849  0.2982
10786TIP3    H153773   0.394   2.210  15.396 -0.4509  0.4850  0.3072
10786TIP3    H253774   0.475   2.131  15.497 -0.5821  0.2892  0.2591
10787TIP3   OH253775   3.674   2.059  12.237 -0.4220 -0.0158  0.2448
10787TIP3    H153776   3.762   2.071  12.270  0.0541  0.2761 -1.0644
10787TIP3    H253777   3.667   1.966  12.218  1.8216  0.5885 -5.2862
10788TIP3   OH253778   6.309   2.139   0.157  0.0586 -0.1280 -0.3447
10788TIP3    H153779   6.304   2.109   0.066  1.7122  0.5490 -0.6823
10788TIP3    H253780   6.353   2.067   0.203 -2.0611 -1.1238  0.2856
10789TIP3   OH253781   2.436   3.196  14.370 -0.2149  0.4298 -0.0027
10789TIP3    H153782   2.494   3.215  14.296 -1.2264  1.7493 -0.4945
10789TIP3    H253783   2.473   3.117  14.409  0.8435  0.1828 -1.4015
10790TIP3   OH253784   0.448   3.245  16.544 -0.7663  0.2956  0.4355
10790TIP3    H153785   0.368   3.298  16.532 -0.3016  1.4844  2.1802
10790TIP3    H253786   0.494   3.288  16.616  0.8529 -1.1111  0.2915
10791TIP3   OH253787   2.963   0.509   3.803  0.1004 -0.5171 -0.1986
10791TIP3    H153788   2.891   0.450   3.827  0.1482 -1.0502 -1.3171
10791TIP3    H253789   2.941   0.592   3.846 -0.7844 -0.8898  0.0964
10792TIP3   OH253790   1.730   1.420   4.835  0.4533  0.1109  0.0467
10792TIP3    H153791   1.760   1.376   4.915  0.1661 -1.3680 -0.6202
10792TIP3    H253792   1.809   1.430   4.782  0.2336 -1.5493 -0.6687
10793TIP3   OH253793   6.739   5.221  16.188 -0.0765  0.2397 -0.2786
10793TIP3    H153794   6.745   5.174  16.105 -0.6939  1.1034 -0.8225
10793TIP3    H253795   6.677   5.169  16.240 -1.0897  0.6741 -1.0368
10794TIP3   OH253796   6.187   0.283   5.418 -0.5296  0.3355 -0.6773
10794TIP3    H153797   6.242   0.360   5.404 -0.9852  0.4441 -1.9957
10794TIP3    H253798   6.236   0.212   5.378 -0.0321 -0.1258  0.6822
10795TIP3   OH253799   5.278   3.673   6.054 -0.5221 -0.1838 -0.5788
10795TIP3    H153800   5.232   3.589   6.052 -2.1468  0.6663 -0.5446
10795TIP3    H253801   5.248   3.716   6.134  1.4178 -0.1425  0.1794
10796TIP3   OH253802   6.191   4.632   5.750 -0.7067 -0.0214 -0.0270
10796TIP3    H153803   6.263   4.674   5.702  0.1543 -0.6919  0.6333
10796TIP3    H253804   6.208   4.652   5.842 -2.2783  1.1520  0.0482
10797TIP3   OH253805   6.168   6.786  11.513  0.2314  0.4949  0.4750
10797TIP3    H153806   6.176   6.850  11.584  2.5572  0.5373  0.2768
10797TIP3    H253807   6.086   6.741  11.530 -1.1612  3.0358  1.0244
10798TIP3   OH253808   3.731   2.447   0.836 -0.8193  0.1715 -0.5976
10798TIP3    H153809   3.720   2.507   0.762 -1.0536 -0.1950 -0.8610
10798TIP3    H253810   3.812   2.476   0.878  1.1528 -1.5908 -2.8873
10799TIP3   OH253811   4.057   2.811  12.199 -0.3685  0.1244  0.3431
10799TIP3    H153812   4.038   2.783  12.289 -2.1506 -1.5021 -0.4744
10799TIP3    H253813   4.103   2.894  12.209 -2.7369  1.2916  2.7097
10800TIP3   OH253814   5.205   5.581  14.472 -0.2673 -0.0273 -0.1564
10800TIP3    H153815   5.282   5.636  14.457 -0.0685 -0.0826  0.6322
10800TIP3    H253816   5.132   5.643  14.475 -0.1073  0.1502  0.2241
10801TIP3   OH253817   5.954   2.284  12.740  0.0186  0.2052 -0.0878
10801TIP3    H153818   5.922   2.217  12.800 -1.4216  0.7427 -0.2290
10801TIP3    H253819   6.044   2.257  12.721 -0.7190 -2.1233 -0.7239
10802TIP3   OH253820   6.681   6.284  12.696 -0.7413  0.3331  0.2723
10802TIP3    H153821   6.588   6.299  12.679 -0.5825 -1.0487 -2.3295
10802TIP3    H253822   6.725   6.358  12.655 -0.6463  1.5421  2.3920
10803TIP3   OH253823   3.985   2.902   4.215 -0.1741 -0.1141  0.0430
10803TIP3    H153824   4.027   2.913   4.130 -0.9310  0.8424 -0.2376
10803TIP3    H253825   3.902   2.859   4.195 -1.1817  1.7338  0.0254
10804TIP3   OH253826   5.270   3.821   2.134  0.1356  0.0440  0.1625
10804TIP3    H153827   5.350   3.870   2.121 -0.5010  0.8257 -0.9862
10804TIP3    H253828   5.266   3.805   2.228  1.1722  0.7700  0.3396
10805TIP3   OH253829   6.116   6.053   1.228 -0.1644 -0.0632 -0.1641
10805TIP3    H153830   6.198   6.041   1.180 -1.8398 -0.8451 -3.0507
10805TIP3    H253831   6.118   6.144   1.256  2.8514 -0.7193  2.4105
10806TIP3   OH253832   1.657   1.774  14.423 -0.1720  0.5191 -0.1860
10806TIP3    H153833   1.629   1.856  14.465 -0.3878  1.2173 -1.6593
10806TIP3    H253834   1.687   1.800  14.336 -0.8693 -1.0469 -0.9328
10807TIP3   OH253835   4.028   1.230  16.084  0.1023 -0.2515 -0.3373
10807TIP3    H153836   4.039   1.165  16.015  1.3913 -1.4593  0.9254
10807TIP3    H253837   3.961   1.194  16.142  0.7675 -0.4459  0.3295
10808TIP3   OH253838   3.988   1.915  12.524  0.3512  0.1752  0.7659
10808TIP3    H153839   3.905   1.874  12.497  0.8122 -0.4761  0.2918
10808TIP3    H253840   3.986   1.914  12.619  0.8257 -2.0299  0.8160
10809TIP3   OH253841   1.194   1.990   4.154 -0.3058  0.2514  0.2776
10809TIP3    H153842   1.252   1.918   4.182 -0.1404 -0.2996 -1.3705
10809TIP3    H253843   1.231   2.068   4.195 -0.5604 -0.6017  2.2075
10810TIP3   OH253844   1.895   1.194  11.298 -0.0203  0.1171  0.3480
10810TIP3    H153845   1.960   1.240  11.351 -0.7948  1.2528  0.3513
10810TIP3    H253846   1.910   1.226  11.209 -1.9781  2.2086  0.6479
10811TIP3   OH253847   1.723   2.532   0.463  0.4653  0.3973  0.0009
10811TIP3    H153848   1.792   2.594   0.438  1.0635 -0.4985 -0.6038
10811TIP3    H253849   1.747   2.450   0.420 -1.6051  0.3510 -1.1721
10812TIP3   OH253850   3.856   2.770   1.041  0.6036  0.1333  0.6447
10812TIP3    H153851   3.898   2.824   1.107 -1.0974  2.4651 -0.0310
10812TIP3    H253852   3.773   2.743   1.081 -0.6357  1.9120 -0.5654
10813TIP3   OH253853   0.264   1.682   1.032 -0.1303  0.2468  0.1611
10813TIP3    H153854   0.333   1.745   1.050  1.1219 -1.1860  0.6075
10813TIP3    H253855   0.224   1.665   1.117  0.7341 -0.8729  0.3602
10814TIP3   OH253856   1.813   6.023  15.077  0.0783  0.8189  0.0643
10814TIP3    H153857   1.905   5.997  15.067 -0.1447  0.8082 -2.8055
10814TIP3    H253858   1.765   5.941  15.079 -0.1462  0.7218 -3.1968
10815TIP3   OH253859   1.505   2.790   4.447 -0.1500 -0.2133  0.4561
10815TIP3    H153860   1.543   2.849   4.512 -1.9146  0.0377  1.3268
10815TIP3    H253861   1.546   2.705   4.465  0.1646  0.0890  1.2085
10816TIP3   OH253862   3.530   2.563   0.381 -0.1117  0.1457 -0.1577
10816TIP3    H153863   3.500   2.475   0.401  0.1304  0.1571  0.2806
10816TIP3    H253864   3.528   2.609   0.465  3.0407 -0.4386  0.3911
10817TIP3   OH253865   0.835   1.264   1.431  0.0215 -0.4885 -0.3174
10817TIP3    H153866   0.907   1.249   1.369  0.7714  1.2326  0.0752
10817TIP3    H253867   0.827   1.181   1.479  2.5015 -0.4046  0.3826
10818TIP3   OH253868   6.162   1.076   0.064 -0.1822  0.7887  0.6240
10818TIP3    H153869   6.223   1.024   0.116 -0.2803  0.8255  0.7799
10818TIP3    H253870   6.192   1.167   0.077  2.3875  0.5936 -2.7231
10819TIP3   OH253871   1.508   2.672  12.755 -0.2212  0.2820 -0.1835
10819TIP3    H153872   1.547   2.746  12.709 -2.0733  0.4398 -1.6099
10819TIP3    H253873   1.541   2.679  12.845  0.1991  2.4167 -0.4684
10820TIP3   OH253874   1.777   3.683   0.467 -0.1523  0.4928  0.8100
10820TIP3    H153875   1.866   3.716   0.479  0.0299  0.2610  0.1642
10820TIP3    H253876   1.722   3.743   0.516  0.3484  0.7286  1.0868
10821TIP3   OH253877   6.574   0.643   3.901  0.2124 -0.3023  0.4578
10821TIP3    H153878   6.491   0.690   3.890 -0.1205 -0.2427  2.8147
10821TIP3    H253879   6.632   0.682   3.835 -1.6668 -0.5486 -1.4565
10822TIP3   OH253880   4.233   6.241  16.195  0.6592 -0.5271 -0.1624
10822TIP3    H153881   4.292   6.312  16.221  0.7845 -0.4921 -0.5313
10822TIP3    H253882   4.168   6.237  16.265  0.8183 -0.2410  0.0047
10823TIP3   OH253883   4.702   0.695   4.361 -0.3802 -0.0174 -0.2747
10823TIP3    H153884   4.666   0.783   4.353 -0.0586  0.1842  0.4245
10823TIP3    H253885   4.657   0.657   4.436  0.9083  0.2840  0.6937
10824TIP3   OH253886   0.302   0.995   6.262  0.7114  0.1658  0.3482
10824TIP3    H153887   0.329   1.065   6.323 -0.0014  0.1197  0.7286
10824TIP3    H253888   0.242   0.942   6.313 -0.2276  0.3637 -0.5317
10825TIP3   OH253889   3.059   1.361   5.293 -0.6960  0.4987 -0.4731
10825TIP3    H153890   2.979   1.402   5.261 -2.8868 -1.2697  2.3558
10825TIP3    H253891   3.090   1.309   5.219 -2.1038  1.2320 -1.6346
10826TIP3   OH253892   3.409   3.961   1.315 -0.7601 -0.0483 -0.3385
10826TIP3    H153893   3.464   3.942   1.391  0.6508  1.1346 -1.0018
10826TIP3    H253894   3.332   3.906   1.327  1.5467 -3.7025 -0.5379
10827TIP3   OH253895   6.165   1.640  13.663  0.0178 -0.2584  0.3416
10827TIP3    H153896   6.155   1.591  13.581 -0.1867  2.6843 -1.5296
10827TIP3    H253897   6.079   1.635  13.705 -0.0681 -1.2160  0.0730
10828TIP3   OH253898   5.184   4.371   4.382 -0.0710  0.5200 -0.9159
10828TIP3    H153899   5.106   4.317   4.366 -0.3168  1.0333 -1.4951
10828TIP3    H253900   5.149   4.460   4.394  0.2489  0.4427  0.8633
10829TIP3   OH253901   4.108   5.804   0.094  0.1753 -0.3536 -0.0362
10829TIP3    H153902   4.169   5.785   0.022  0.2429 -0.0557 -0.0574
10829TIP3    H253903   4.023   5.811   0.051 -0.1800 -2.4952  0.1989
10830TIP3   OH253904   4.645   0.325   0.713  0.1882  0.1814  0.1997
10830TIP3    H153905   4.574   0.357   0.657 -0.1755 -1.5924 -0.4087
10830TIP3    H253906   4.649   0.231   0.696  4.6759  0.5086 -2.2204
10831TIP3   OH253907   3.331   6.129   1.808 -0.6981  0.2321 -0.0659
10831TIP3    H153908   3.350   6.154   1.899 -1.7199  1.1819 -0.1009
10831TIP3    H253909   3.323   6.033   1.811 -0.8915  0.2678  0.8724
10832TIP3   OH253910   4.595   1.093  16.045 -0.4771 -0.4097 -0.5495
10832TIP3    H153911   4.576   1.134  16.129 -0.4646 -1.1510 -0.1689
10832TIP3    H253912   4.572   1.158  15.979 -0.8637  0.0321  0.0225
10833TIP3   OH253913   1.445   1.917  11.244  0.1024  0.2069 -0.1939
10833TIP3    H153914   1.401   1.979  11.187 -2.5995 -1.3746 -0.0556
10833TIP3    H253915   1.439   1.957  11.331  0.8615  0.9530 -0.4757
10834TIP3   OH253916   0.049   1.167   5.291  0.0544  0.3378 -0.1702
10834TIP3    H153917   0.036   1.242   5.349  0.6135  1.2772 -1.2205
10834TIP3    H253918   0.138   1.139   5.309  0.0754  0.3483 -0.2601
10835TIP3   OH253919   1.414   5.856  12.747 -0.3398  0.4856 -0.7459
10835TIP3    H153920   1.448   5.843  12.659  2.1917  3.2330 -0.3583
10835TIP3    H253921   1.475   5.811  12.804  0.7659  2.5055 -0.2283
10836TIP3   OH253922   5.053   1.333  12.379 -0.0606  0.1673 -0.3819
10836TIP3    H153923   4.966   1.320  12.417  0.9971 -0.9409  1.8662
10836TIP3    H253924   5.077   1.248  12.343 -0.4641  0.8508 -2.3462
10837TIP3   OH253925   1.961   3.386  16.455  0.0473  0.3767 -0.4357
10837TIP3    H153926   1.914   3.303  16.460 -0.1393  0.4333 -1.1304
10837TIP3    H253927   1.900   3.450  16.493 -1.0184  0.6768 -2.5215
10838TIP3   OH253928   0.795   6.647   2.600  0.1471  0.3045  0.5792
10838TIP3    H153929   0.748   6.651   2.516 -0.4541  1.6637  0.9615
10838TIP3    H253930   0.776   6.559   2.633  0.2050 -0.1758 -0.5930
10839TIP3   OH253931   3.367   4.713  11.970 -0.4173  0.0817 -0.4591
10839TIP3    H153932   3.301   4.697  12.038  2.1227  0.1824  2.2280
10839TIP3    H253933   3.385   4.807  11.975  1.3272 -0.2510  0.3422
10840TIP3   OH253934   2.483   2.692   0.807 -0.0712 -0.1032  0.6491
10840TIP3    H153935   2.564   2.657   0.844 -0.6918 -1.4064  0.8048
10840TIP3    H253936   2.426   2.616   0.797 -0.7835  0.5896 -0.7692
10841TIP3   OH253937   5.077   6.706  12.356  0.0457 -0.2529 -0.1987
10841TIP3    H153938   5.001   6.697  12.413 -1.8475  0.6169 -2.4327
10841TIP3    H253939   5.093   6.617  12.324  0.8220 -0.6587  1.2604
10842TIP3   OH253940   2.550   5.058  14.350  0.2513  0.0238  0.7019
10842TIP3    H153941   2.479   5.039  14.412  0.3086 -0.5384  0.6023
10842TIP3    H253942   2.603   5.125  14.393  0.2653 -0.3306  1.2398
10843TIP3   OH253943   6.220   6.048  12.937  0.0993 -0.1046 -0.1621
10843TIP3    H153944   6.131   6.013  12.935  0.1089 -0.0983 -1.6517
10843TIP3    H253945   6.263   6.009  12.861  1.2956  0.1155  0.3704
10844TIP3   OH253946   2.189   2.084   3.222 -0.1542  0.2970 -0.7964
10844TIP3    H153947   2.264   2.142   3.230 -0.7218  0.7670  2.5492
10844TIP3    H253948   2.119   2.139   3.187 -0.2502  1.2699  0.8387
10845TIP3   OH253949   6.067   2.382  10.211  0.2451 -0.2154  0.3642
10845TIP3    H153950   6.086   2.475  10.225  0.9993 -0.3417  0.1941
10845TIP3    H253951   6.148   2.337  10.233 -0.2277 -0.8705  0.7926
10846TIP3   OH253952   4.612   0.209   1.202 -0.3778 -0.2220 -0.2753
10846TIP3    H153953   4.578   0.295   1.227 -0.1751  0.0085 -0.7878
10846TIP3    H253954   4.539   0.166   1.159 -0.5423 -0.3877  0.1659
10847TIP3   OH253955   4.692   4.344   6.515  0.0033  0.1256 -0.0102
10847TIP3    H153956   4.677   4.430   6.555  1.1647  1.1786 -1.7300
10847TIP3    H253957   4.610   4.297   6.529 -0.1851  0.9798  2.1914
10848TIP3   OH253958   2.599   3.323  14.974  0.3580  0.0039  0.1920
10848TIP3    H153959   2.550   3.270  15.036  0.7065  0.7185  1.0949
10848TIP3    H253960   2.665   3.264  14.938 -0.0294 -0.4864  0.2805
10849TIP3   OH253961   5.016   0.153   3.562 -0.0481  0.0351  0.4683
10849TIP3    H153962   5.088   0.154   3.625 -0.6779 -1.9300  1.3028
10849TIP3    H253963   4.947   0.103   3.606 -1.1463  0.0957 -1.1283
10850TIP3   OH253964   0.394   6.334  16.520  0.3692 -0.1540  0.3420
10850TIP3    H153965   0.368   6.320  16.611  3.7041 -0.9594  1.2888
10850TIP3    H253966   0.442   6.416  16.520  1.5169 -0.7939 -0.4028
10851TIP3   OH253967   4.159   3.410   1.304  0.0925  0.1583 -0.2821
10851TIP3    H153968   4.222   3.477   1.277  1.9099 -1.2318  0.3067
10851TIP3    H253969   4.129   3.371   1.222 -0.8335  1.5000 -0.6196
10852TIP3   OH253970   5.858   5.916   5.084  0.4388  0.1643  0.0626
10852TIP3    H153971   5.854   5.831   5.041  3.8993  0.2250 -0.6811
10852TIP3    H253972   5.861   5.896   5.177 -0.2081 -0.4127 -0.0365
10853TIP3   OH253973   1.752   6.171   5.029  0.0120  0.0401 -0.2618
10853TIP3    H153974   1.818   6.226   5.071  0.5135  0.2680 -1.3301
10853TIP3    H253975   1.710   6.124   5.102  0.5231  0.7899  0.5283
10854TIP3   OH253976   0.854   4.099   5.229 -0.7940 -0.1177  0.2759
10854TIP3    H153977   0.919   4.157   5.187 -1.6503  2.4309  2.2043
10854TIP3    H253978   0.798   4.070   5.157  0.6954  0.0382 -1.0055
10855TIP3   OH253979   5.225   3.998   0.025  0.4045  0.0884 -0.0130
10855TIP3    H153980   5.211   4.002   0.119 -1.1917 -1.0183 -0.1492
10855TIP3    H253981   5.314   3.964   0.015  0.9662  1.1728  1.0563
10856TIP3   OH253982   0.336   5.842   4.940  0.7087  0.2518 -0.3488
10856TIP3    H153983   0.323   5.854   5.034  0.6534  1.6565 -0.5142
10856TIP3    H253984   0.273   5.773   4.916  0.5847  0.0219  0.6013
10857TIP3   OH253985   2.806   1.807  15.406  0.5584  0.0295  0.5130
10857TIP3    H153986   2.762   1.841  15.484 -0.8177  0.1201 -0.2742
10857TIP3    H253987   2.874   1.749  15.441 -0.3977 -0.3912  1.7712
10858TIP3   OH253988   3.387   1.622   1.216 -0.1259 -0.2029  0.2704
10858TIP3    H153989   3.319   1.628   1.149 -2.6811  0.3387  2.6986
10858TIP3    H253990   3.432   1.706   1.212 -0.0537 -0.2857 -0.9310
10859TIP3   OH253991   6.475   2.820   2.258  0.1770 -0.3832 -0.5511
10859TIP3    H153992   6.447   2.832   2.349  0.8207 -0.7233 -0.2970
10859TIP3    H253993   6.394   2.817   2.208 -0.1670  3.0140 -0.4258
10860TIP3   OH253994   5.079   0.294  14.093 -0.0413  0.5136 -0.1341
10860TIP3    H153995   5.111   0.204  14.104 -0.1897  0.5263  0.4392
10860TIP3    H253996   5.054   0.299  14.001  2.2170  0.6977 -0.8023
10861TIP3   OH253997   5.578   1.062   1.299  0.4202 -0.6297  0.0970
10861TIP3    H153998   5.667   1.038   1.326  0.9933 -0.3532 -1.3811
10861TIP3    H253999   5.563   1.147   1.340 -0.5998 -2.1809  3.2217
10862TIP3   OH254000   4.573   3.010   2.863  0.3187  0.1374  0.3005
10862TIP3    H154001   4.560   2.990   2.956 -0.0688  1.2351  0.4915
10862TIP3    H254002   4.553   3.103   2.855  0.2435  0.0341 -0.9108
10863TIP3   OH254003   0.774   2.833   3.269 -0.3171  0.4169 -0.0630
10863TIP3    H154004   0.781   2.881   3.186 -0.0367 -1.0610 -0.9243
10863TIP3    H254005   0.835   2.760   3.259 -0.3016  0.2101  1.4508
10864TIP3   OH254006   6.025   1.094  14.731 -0.2491 -0.5953 -0.4002
10864TIP3    H154007   6.102   1.121  14.780 -2.0556  0.1973  2.2564
10864TIP3    H254008   6.037   1.000  14.717  1.6234 -0.3024 -1.0132
10865TIP3   OH254009   2.286   0.278   2.461 -0.1305  0.7448 -0.2470
10865TIP3    H154010   2.198   0.242   2.465  0.1139  0.1636  0.0281
10865TIP3    H254011   2.273   0.372   2.451 -0.7779  0.6700 -0.1521
10866TIP3   OH254012   0.708   2.625   0.238  0.4482 -0.5133 -0.4336
10866TIP3    H154013   0.704   2.568   0.162 -0.2306  0.1965 -0.9500
10866TIP3    H254014   0.801   2.639   0.253  0.5838  0.1892 -1.7897
10867TIP3   OH254015   5.740   0.451  16.916  0.0461  0.1819  0.2346
10867TIP3    H154016   5.732   0.380  16.979  2.7369 -0.4231  0.0182
10867TIP3    H254017   5.830   0.482  16.926 -0.0643  1.4121 -1.9091
10868TIP3   OH254018   5.768   1.714  13.072  0.1988  0.5854  0.0878
10868TIP3    H154019   5.846   1.752  13.030 -0.8031  0.9378 -1.5620
10868TIP3    H254020   5.795   1.696  13.162  2.7715 -1.0528 -0.8904
10869TIP3   OH254021   1.844   2.800   4.519  0.2813 -0.3921 -0.0212
10869TIP3    H154022   1.871   2.712   4.492 -0.9304 -1.0173  0.7035
10869TIP3    H254023   1.776   2.785   4.584  0.0821  1.0986  0.1493
10870TIP3   OH254024   1.279   4.227   0.267  0.1049 -0.1680  0.1521
10870TIP3    H154025   1.252   4.193   0.181  0.8458  0.2047 -0.2337
10870TIP3    H254026   1.215   4.296   0.285 -1.3330 -1.6081  0.8808
10871TIP3   OH254027   6.117   3.227  12.803  0.1446 -0.4343  0.2515
10871TIP3    H154028   6.113   3.296  12.868  0.2991 -1.6409  1.5870
10871TIP3    H254029   6.136   3.147  12.853 -0.2995 -1.4980 -1.1912
10872TIP3   OH254030   2.062   5.805  16.633 -0.0252 -0.6165 -0.6136
10872TIP3    H154031   2.045   5.716  16.601  0.5995 -0.7542 -0.5853
10872TIP3    H254032   1.994   5.820  16.699  0.6963 -1.6214  0.3871
10873TIP3   OH254033   1.739   5.042  14.812  0.4810 -0.2387  0.2880
10873TIP3    H154034   1.819   4.997  14.786 -0.0805 -1.0519 -0.0952
10873TIP3    H254035   1.674   4.972  14.819 -0.4261  0.5088 -0.3561
10874TIP3   OH254036   4.773   4.301   3.473  0.1070 -0.3075 -0.0828
10874TIP3    H154037   4.808   4.244   3.541 -1.5667 -0.7445  0.4560
10874TIP3    H254038   4.681   4.313   3.497 -0.3536  0.0550 -1.9136
10875TIP3   OH254039   1.223   4.933  14.784 -0.4674 -0.3918 -0.0336
10875TIP3    H154040   1.234   5.028  14.796  0.9781 -0.0274 -3.2233
10875TIP3    H254041   1.133   4.923  14.753 -0.0499  0.2324 -1.5285
10876TIP3   OH254042   2.699   2.451   0.017 -0.3666  0.2632 -0.1512
10876TIP3    H154043   2.692   2.504  -0.062 -3.6192 -1.4882 -1.2405
10876TIP3    H254044   2.747   2.373  -0.010 -0.4431  0.1866 -0.0659
10877TIP3   OH254045   2.748   5.575   6.293 -0.8016  0.6448 -0.1600
10877TIP3    H154046   2.696   5.634   6.348 -0.3668  2.1205 -1.2525
10877TIP3    H254047   2.809   5.633   6.247 -0.4246 -0.6556 -1.3731
10878TIP3   OH254048   6.442   6.220   3.202  0.3363  0.4596  0.3987
10878TIP3    H154049   6.466   6.268   3.280 -3.0444  3.6230 -0.2353
10878TIP3    H254050   6.372   6.161   3.231  0.3656  0.2718  0.0929
10879TIP3   OH254051   1.175   4.476  15.946 -0.1444  0.4593  0.8459
10879TIP3    H154052   1.260   4.507  15.915 -0.5215  4.2578  2.9468
10879TIP3    H254053   1.114   4.498  15.875  0.4705 -2.1827 -0.6223
10880TIP3   OH254054   3.151   3.654  16.713  0.4202 -0.5230 -0.0952
10880TIP3    H154055   3.144   3.563  16.742  0.5032 -0.1831  1.0301
10880TIP3    H254056   3.064   3.691  16.728  0.7523 -0.0519  0.7827
10881TIP3   OH254057   0.066   5.597  14.563 -0.5702  0.0076  0.4204
10881TIP3    H154058   0.067   5.604  14.659 -0.9640  0.0696  0.4210
10881TIP3    H254059  -0.017   5.554  14.543 -0.2247 -0.5443  0.1408
10882TIP3   OH254060   1.213   2.757  10.569 -0.3370 -0.0037  0.0696
10882TIP3    H154061   1.117   2.762  10.569 -0.5690 -1.8180  2.9632
10882TIP3    H254062   1.232   2.664  10.584  1.9742 -0.0034 -2.2200
10883TIP3   OH254063   2.190   6.316  11.716  0.1206 -0.1783  0.4045
10883TIP3    H154064   2.099   6.287  11.712  0.2316 -0.6194  0.9081
10883TIP3    H254065   2.191   6.381  11.786  0.2229 -0.2972  0.5139
10884TIP3   OH254066   4.272   0.770   1.716 -0.4602 -0.5622 -0.4031
10884TIP3    H154067   4.343   0.720   1.755 -1.0010 -0.5923  0.5735
10884TIP3    H254068   4.268   0.851   1.766 -0.2929  0.0021 -1.2754
10885TIP3   OH254069   6.217   1.136  11.181  0.4008 -0.2409  0.3458
10885TIP3    H154070   6.299   1.096  11.154  1.4009  0.5291  2.0537
10885TIP3    H254071   6.200   1.203  11.115  1.3639 -0.1477  0.1739
10886TIP3   OH254072   0.421   0.510   5.060  0.7140  0.2624 -0.3487
10886TIP3    H154073   0.343   0.518   5.004  1.0450  2.2600 -0.6159
10886TIP3    H254074   0.392   0.543   5.145  0.9702 -0.0516 -0.1413
10887TIP3   OH254075   5.062   5.160  12.252 -0.1247  0.0725 -0.3735
10887TIP3    H154076   5.148   5.198  12.270 -0.5114 -0.1788  2.4023
10887TIP3    H254077   5.073   5.066  12.266 -0.6083 -0.0879 -1.0400
10888TIP3   OH254078   0.228   5.271  12.611 -0.2502  0.5428  0.3633
10888TIP3    H154079   0.320   5.246  12.616 -0.0711  1.1910  0.3931
10888TIP3    H254080   0.198   5.269  12.702 -0.1014  0.9322  0.4215
10889TIP3   OH254081   2.399   4.787   5.007 -0.1477 -0.0913  0.1992
10889TIP3    H154082   2.309   4.771   4.981 -0.5778 -0.0613  1.6102
10889TIP3    H254083   2.393   4.833   5.090  1.1614  2.4429 -0.9951
10890TIP3   OH254084   1.352   0.929   6.113  0.4013 -0.0334 -0.7842
10890TIP3    H154085   1.422   0.982   6.149 -0.8835  0.2280  1.4979
10890TIP3    H254086   1.361   0.940   6.018  0.8429  3.4416 -0.4859
10891TIP3   OH254087   0.841   4.043  16.033 -0.1474  0.2035 -0.0407
10891TIP3    H154088   0.793   3.961  16.030 -0.4041  0.3097  0.9528
10891TIP3    H254089   0.882   4.045  16.119 -0.2414  1.1691  0.0019
10892TIP3   OH254090   5.111   2.511  13.889  0.5080 -0.3571  0.1268
10892TIP3    H154091   5.157   2.583  13.933 -0.1381 -0.5175  1.1045
10892TIP3    H254092   5.072   2.461  13.961  0.1433 -1.1319 -0.5998
10893TIP3   OH254093   4.511   2.384   4.996 -0.3836 -0.0632  0.5471
10893TIP3    H154094   4.431   2.435   4.999 -0.2224  0.2897 -0.5254
10893TIP3    H254095   4.576   2.437   5.043 -0.7414 -0.3030  1.3233
10894TIP3   OH254096   6.195   5.937  11.943  0.0256  0.3382  0.2268
10894TIP3    H154097   6.134   5.875  11.903 -0.7745  1.1567  0.1470
10894TIP3    H254098   6.263   5.950  11.877  0.2200 -0.4778  0.2626
10895TIP3   OH254099   1.327   0.799   5.834 -0.1824 -0.1677  0.0023
10895TIP3    H154100   1.340   0.705   5.823  1.4469  0.0666 -0.4059
10895TIP3    H254101   1.244   0.807   5.881 -0.8783 -1.7584 -0.8898
10896TIP3   OH254102   1.323   0.808   2.117  0.7556 -0.3599  0.0559
10896TIP3    H154103   1.381   0.731   2.117 -0.0668 -1.0000 -0.8443
10896TIP3    H254104   1.297   0.818   2.026  0.4715  0.7160  0.2470
10897TIP3   OH254105   3.642   6.559   3.709 -0.1015 -0.0553 -0.0354
10897TIP3    H154106   3.586   6.627   3.748  1.2263  0.3892  1.1844
10897TIP3    H254107   3.592   6.478   3.719 -1.7854  0.7212 -1.6550
10898TIP3   OH254108   5.254   6.396   2.173  0.9341  0.4347 -0.1136
10898TIP3    H154109   5.337   6.355   2.198  1.9220 -0.5766 -4.1982
10898TIP3    H254110   5.278   6.487   2.154  1.2004  0.1394 -1.3051
10899TIP3   OH254111   4.902   4.486   2.052  0.3144  0.1205 -0.4554
10899TIP3    H154112   4.974   4.511   2.110  0.2566 -0.3081 -0.1937
10899TIP3    H254113   4.843   4.561   2.053  0.0769 -0.0705  0.4252
10900TIP3   OH254114   2.639   0.987   0.793  0.0491  0.5776  0.3700
10900TIP3    H154115   2.547   0.965   0.802  0.1946  0.3733  1.4833
10900TIP3    H254116   2.666   1.017   0.880  1.4405 -0.9670  0.5228
10901TIP3   OH254117   6.137   6.236  14.645 -0.3989 -0.5950 -0.0546
10901TIP3    H154118   6.166   6.247  14.735 -1.1213  0.3046  0.0822
10901TIP3    H254119   6.068   6.301  14.633 -0.0737 -0.4436 -1.3690
10902TIP3   OH254120   0.766   1.635   4.307 -0.3311 -0.1072  0.4272
10902TIP3    H154121   0.761   1.540   4.318  0.0136 -0.2270 -0.4169
10902TIP3    H254122   0.686   1.657   4.259 -0.0037 -0.0763 -0.0983
10903TIP3   OH254123   2.770   2.568   0.545 -0.1731  0.3248 -0.0129
10903TIP3    H154124   2.677   2.548   0.542  0.3577 -3.6159  2.7522
10903TIP3    H254125   2.806   2.527   0.467 -0.5674  1.1155 -0.6327
10904TIP3   OH254126   5.958   6.506   1.809  0.1020  0.0084 -0.0632
10904TIP3    H154127   6.021   6.471   1.745 -0.6751  0.3418 -1.0395
10904TIP3    H254128   5.918   6.581   1.765 -0.0848  0.5691  1.0268
10905TIP3   OH254129   2.260   6.707   3.070 -0.1743  0.2856  0.4437
10905TIP3    H154130   2.173   6.743   3.054 -0.0395 -0.2581 -2.0183
10905TIP3    H254131   2.309   6.780   3.109 -1.1344  1.3117 -0.1815
10906TIP3   OH254132   5.408   0.719   4.901  0.9897  0.1294 -0.6464
10906TIP3    H154133   5.470   0.779   4.943  0.2123  1.4002 -1.2862
10906TIP3    H254134   5.464   0.658   4.852  1.9148 -1.1995  1.8707
10907TIP3   OH254135   3.552   5.514  13.359  0.1611  0.5399 -0.5022
10907TIP3    H154136   3.577   5.605  13.372  1.0508  0.6167 -2.4282
10907TIP3    H254137   3.457   5.515  13.358  0.1463  1.3151  0.1836
10908TIP3   OH254138   5.826   3.926   3.080  0.9606 -0.8382 -0.2638
10908TIP3    H154139   5.768   3.878   3.140  1.4514  0.1274  1.0282
10908TIP3    H254140   5.766   3.978   3.027  0.3851 -3.0364 -1.9449
10909TIP3   OH254141   1.804   6.061  13.948  0.0895 -0.4724 -0.1472
10909TIP3    H154142   1.778   5.970  13.930 -1.0452 -0.0549 -0.6831
10909TIP3    H254143   1.801   6.104  13.863  0.1873  0.1821  0.1736
10910TIP3   OH254144   1.458   1.182  15.676 -0.5378  0.9662  0.3972
10910TIP3    H154145   1.481   1.096  15.711  1.2545  0.7920 -1.0519
10910TIP3    H254146   1.378   1.206  15.722 -0.6333 -1.1066  1.4283
10911TIP3   OH254147   4.019   5.954   3.443  0.5835 -0.6094 -0.2447
10911TIP3    H154148   3.950   5.989   3.500  1.8435  1.1184  0.3220
10911TIP3    H254149   4.049   5.875   3.487  0.2521 -0.3371  0.4846
10912TIP3   OH254150   0.129   2.029  16.106 -0.2237 -0.0049  0.5370
10912TIP3    H154151   0.138   2.107  16.052 -0.6525  0.8175  1.6111
10912TIP3    H254152   0.219   1.996  16.115  0.1823  1.1897  1.2158
10913TIP3   OH254153   2.449   1.885  13.920  0.3413 -0.1246  0.1218
10913TIP3    H154154   2.370   1.883  13.974 -0.1757  1.7129 -0.5057
10913TIP3    H254155   2.418   1.869  13.831  0.8002 -0.2910 -0.0107
10914TIP3   OH254156   0.034   5.377  16.532  0.0256  0.5117  0.0963
10914TIP3    H154157   0.053   5.322  16.608  0.3508 -1.1062 -1.0824
10914TIP3    H254158   0.120   5.391  16.491 -0.4046 -0.9143 -1.4087
10915TIP3   OH254159   0.545   0.872  14.832 -0.2814 -0.3099  0.1191
10915TIP3    H154160   0.584   0.785  14.845 -0.8819 -0.8008 -1.1633
10915TIP3    H254161   0.475   0.857  14.769 -0.2771  1.1559 -0.2645
10916TIP3   OH254162   0.798   6.675  16.643 -0.4317  0.3244  0.4349
10916TIP3    H154163   0.730   6.608  16.630  1.7108 -1.6826 -1.4029
10916TIP3    H254164   0.861   6.634  16.702  0.0666  1.4285  0.6885
10917TIP3   OH254165   3.960   6.710  16.644 -0.5097  0.1884 -0.0407
10917TIP3    H154166   3.882   6.673  16.686  0.5794 -0.8267  1.1805
10917TIP3    H254167   4.033   6.665  16.686  0.7817  1.7953 -0.4737
10918TIP3   OH254168   6.522   1.060  17.145  0.3402 -0.1954  0.6439
10918TIP3    H154169   6.440   1.047  17.099  1.0083  1.7973 -1.2518
10918TIP3    H254170   6.589   1.033  17.083  1.2295  1.4440  0.8498
10919TIP3   OH254171   5.046   3.847   2.574 -0.1673 -0.8847 -0.0094
10919TIP3    H154172   5.087   3.857   2.660 -1.3512  1.1140  0.3632
10919TIP3    H254173   4.995   3.927   2.562 -1.9426 -2.1653 -1.5378
10920TIP3   OH254174   6.533   6.406   4.659 -0.7642 -0.1281 -0.5278
10920TIP3    H154175   6.572   6.371   4.739 -1.3003 -1.6274 -0.8836
10920TIP3    H254176   6.582   6.363   4.588 -1.3286 -0.0347 -0.9803
10921TIP3   OH254177   4.571   4.349  13.312  0.2977 -0.4660  0.4153
10921TIP3    H154178   4.564   4.442  13.291 -1.0192 -0.4130  0.9985
10921TIP3    H254179   4.630   4.314  13.245  0.2377  0.6478 -0.2492
10922TIP3   OH254180   4.638   0.127   5.057 -0.2946  0.4476 -0.4900
10922TIP3    H154181   4.734   0.126   5.055 -0.2503  1.8636  0.0247
10922TIP3    H254182   4.613   0.138   4.965  0.1079  1.9561 -0.4499
10923TIP3   OH254183   4.926   4.242  14.209  0.0394 -0.0488  0.0947
10923TIP3    H154184   5.003   4.238  14.264  0.8786  0.5872 -0.9845
10923TIP3    H254185   4.936   4.324  14.160 -1.9762  0.7219  0.8641
10924TIP3   OH254186   6.442   1.548   1.325  0.1123  0.0667  0.3242
10924TIP3    H154187   6.405   1.533   1.412  3.4592 -1.4016  1.6436
10924TIP3    H254188   6.418   1.470   1.275  2.2148 -1.4751  1.5544
10925TIP3   OH254189   4.292   4.672  11.581 -0.0818  0.6114  0.3236
10925TIP3    H154190   4.314   4.686  11.673  2.3814 -1.6772  0.2027
10925TIP3    H254191   4.303   4.578  11.567  2.1112  1.1712 -2.8587
10926TIP3   OH254192   0.311   0.010  14.788  0.3491  0.2498 -0.3578
10926TIP3    H154193   0.394  -0.031  14.764  1.2709  1.8181  0.0081
10926TIP3    H254194   0.244  -0.043  14.744  1.6533  0.0913 -2.2727
10927TIP3   OH254195   6.024   2.754   5.524 -0.3961  0.1639  0.1874
10927TIP3    H154196   6.100   2.703   5.553  0.1663  1.5921  1.3223
10927TIP3    H254197   6.047   2.845   5.542 -2.4411  0.6366  0.7591
10928TIP3   OH254198   4.418   5.048  12.489 -0.4143  0.6044  0.3532
10928TIP3    H154199   4.470   5.041  12.409  0.3938 -1.3316  0.9903
10928TIP3    H254200   4.330   5.072  12.459 -0.3785 -1.0450 -1.2117
10929TIP3   OH254201   6.006   4.252   1.207  0.4570  0.2556 -0.1889
10929TIP3    H154202   5.947   4.318   1.243  0.4653  0.3004 -0.2564
10929TIP3    H254203   5.986   4.172   1.255 -0.5681 -0.0598 -1.0882
10930TIP3   OH254204   1.643   1.570   4.321  0.3551  0.4533 -0.2082
10930TIP3    H154205   1.671   1.487   4.282 -1.1040 -0.5763  0.8245
10930TIP3    H254206   1.548   1.565   4.322  0.2691  0.7808  2.6153
10931TIP3   OH254207   0.628   4.461  17.054  0.0274  0.5555  0.2304
10931TIP3    H154208   0.605   4.545  17.014 -0.4564  0.4982  0.3877
10931TIP3    H254209   0.642   4.482  17.146  1.1457  0.6873  0.0518
10932TIP3   OH254210   0.110   5.868  12.050 -0.4865  0.0656 -0.1252
10932TIP3    H154211   0.031   5.874  11.996 -0.7442  0.4301  0.2878
10932TIP3    H254212   0.172   5.928  12.009 -0.7590  0.5124  0.1136
10933TIP3   OH254213   6.508   6.727   1.421  0.5301  0.0930 -0.1969
10933TIP3    H154214   6.557   6.646   1.438  0.2241 -0.3408 -1.3037
10933TIP3    H254215   6.561   6.774   1.357  1.2796  1.3376  1.2659
10934TIP3   OH254216   3.248   2.160   3.458  0.1826  0.0978  0.1005
10934TIP3    H154217   3.304   2.193   3.387 -2.2375 -1.6238 -2.8451
10934TIP3    H254218   3.199   2.237   3.486  0.6470  0.6711 -0.6056
10935TIP3   OH254219   3.335   5.526  15.093  0.8560  0.1268 -0.3708
10935TIP3    H154220   3.338   5.573  15.176  3.6959  1.1606 -0.9414
10935TIP3    H254221   3.334   5.595  15.027  2.0716 -0.6140 -1.1956
10936TIP3   OH254222   0.636   3.427  12.746 -0.9915  0.1402  0.6675
10936TIP3    H154223   0.606   3.340  12.773  1.9585 -0.5475  2.1907
10936TIP3    H254224   0.670   3.413  12.657  0.0574 -0.4706  1.1419
10937TIP3   OH254225   2.734   0.472   5.479 -0.7249  0.2231 -1.1761
10937TIP3    H154226   2.688   0.554   5.465 -0.5930  0.8908  1.7700
10937TIP3    H254227   2.816   0.497   5.523 -0.4323 -1.4324 -0.7038
10938TIP3   OH254228   1.239   5.115   6.022 -0.4193 -0.3510  0.2824
10938TIP3    H154229   1.276   5.047   5.965 -0.0697  0.6092 -0.6771
10938TIP3    H254230   1.246   5.079   6.110 -0.0278 -1.4623 -0.1815
10939TIP3   OH254231   0.385   6.057  16.439  0.0019  0.7304  0.3581
10939TIP3    H154232   0.296   6.021  16.446 -0.7408  2.2285 -0.7061
10939TIP3    H254233   0.379   6.142  16.482  1.3200  0.2742  1.5058
10940TIP3   OH254234   5.644   0.813  16.269  0.3627 -0.2300  0.1352
10940TIP3    H154235   5.695   0.733  16.277  1.0233 -0.0215 -1.5906
10940TIP3    H254236   5.619   0.835  16.359  1.7951 -1.3073  0.8275
10941TIP3   OH254237   4.549   4.958  15.421 -0.3477  0.5176  0.2853
10941TIP3    H154238   4.602   4.997  15.352 -0.9824  1.1050  0.1255
10941TIP3    H254239   4.590   4.987  15.502  0.1014  0.2322  0.1691
10942TIP3   OH254240   0.127   5.277   2.877  0.5180  0.8065 -0.3840
10942TIP3    H154241   0.125   5.319   2.963 -0.0606  1.8455 -0.8860
10942TIP3    H254242   0.219   5.278   2.853  0.4856  2.1182 -0.5250
10943TIP3   OH254243   3.969   4.873   0.129 -0.2797  0.4204  0.6425
10943TIP3    H154244   3.945   4.905   0.042 -1.0245  1.2790  1.1473
10943TIP3    H254245   4.040   4.811   0.112 -2.2466 -1.5845 -0.8120
10944TIP3   OH254246   4.161   0.138   1.281 -0.9428  0.1786  0.2039
10944TIP3    H154247   4.236   0.086   1.250  1.6580  1.0833  4.2063
10944TIP3    H254248   4.188   0.229   1.268 -1.7345  0.5211  0.8778
10945TIP3   OH254249   0.089   5.471  12.237  0.6922  0.6521  0.1596
10945TIP3    H154250   0.013   5.523  12.264 -0.6631 -0.2584 -1.6909
10945TIP3    H254251   0.079   5.388  12.283 -0.4432 -0.1047 -1.3598
10946TIP3   OH254252   4.575   2.788   0.851 -0.3615  0.0811  0.0484
10946TIP3    H154253   4.621   2.718   0.803 -1.5099 -0.5678 -0.1313
10946TIP3    H254254   4.507   2.818   0.790 -0.5978  0.5875  0.5569
10947TIP3   OH254255   6.353   4.681   3.568 -0.1346  0.1183  0.0597
10947TIP3    H154256   6.370   4.714   3.656 -0.9946  1.4607 -0.2535
10947TIP3    H254257   6.358   4.758   3.511  0.1890 -0.6889 -1.0448
10948TIP3   OH254258   5.411   3.464  12.132 -0.1409  0.7390  0.0282
10948TIP3    H154259   5.488   3.512  12.163  0.7714  0.2649 -1.3958
10948TIP3    H254260   5.339   3.498  12.185  0.8616  1.9671  0.6759
10949TIP3   OH254261   3.486   3.193   3.278  0.1975  0.1854 -0.2138
10949TIP3    H154262   3.454   3.269   3.326  0.4377  1.2464 -1.6808
10949TIP3    H254263   3.564   3.166   3.327 -0.4307  0.2644  0.8716
10950TIP3   OH254264   4.862   4.240  12.420  0.7135  0.5020  0.1631
10950TIP3    H154265   4.944   4.223  12.466  0.6998 -0.4173 -0.1336
10950TIP3    H254266   4.843   4.159  12.374  0.1588  1.0428 -0.5892
10951TIP3   OH254267   4.995   6.141   5.091 -0.3680 -0.0233  0.4392
10951TIP3    H154268   5.090   6.139   5.086 -0.3786 -0.0493  0.2286
10951TIP3    H254269   4.966   6.066   5.039 -0.5317  0.5728 -0.3419
10952TIP3   OH254270   5.620   2.673   5.567 -0.6752 -0.0205  0.0539
10952TIP3    H154271   5.660   2.632   5.490 -0.4592 -0.7878  0.5616
10952TIP3    H254272   5.694   2.696   5.623 -0.8636 -0.1550  0.3637
10953TIP3   OH254273   3.972   1.707   3.680  0.4310  0.3538  0.2287
10953TIP3    H154274   3.908   1.719   3.750 -0.2554 -0.6932 -0.1907
10953TIP3    H254275   4.056   1.697   3.725 -0.1186 -1.1936  0.9857
10954TIP3   OH254276   6.152   5.901   2.196  0.6224 -0.0517 -0.3537
10954TIP3    H154277   6.137   5.856   2.279  0.9687  0.2234 -0.1373
10954TIP3    H254278   6.066   5.937   2.172  0.9851  1.9371  1.1202
10955TIP3   OH254279   3.133   3.236   0.590 -0.6957 -0.2918 -0.4610
10955TIP3    H154280   3.208   3.250   0.648 -1.0108 -3.1057  0.8052
10955TIP3    H254281   3.083   3.317   0.595  0.9965  0.7475  0.6094
10956TIP3   OH254282   2.194   2.911  14.362 -0.6239  0.6777 -0.2208
10956TIP3    H154283   2.233   2.834  14.321  0.9779  0.8668  0.8499
10956TIP3    H254284   2.238   2.985  14.321 -2.6285  1.1087 -1.7263
10957TIP3   OH254285   4.535   4.307   2.506  0.3093  0.3954  0.1645
10957TIP3    H154286   4.576   4.365   2.442 -0.2662  0.5604 -0.0571
10957TIP3    H254287   4.605   4.247   2.532  0.0318 -1.0717 -2.2029
10958TIP3   OH254288   0.980   5.424  16.134 -0.1737 -0.3498 -0.8920
10958TIP3    H154289   1.047   5.357  16.123  0.6065  0.2877 -0.2134
10958TIP3    H254290   1.028   5.501  16.165 -1.0552  0.5016 -1.5637
10959TIP3   OH254291   5.099   4.317  16.426 -0.0929 -0.5316  0.4856
10959TIP3    H154292   5.014   4.277  16.406 -1.0928  0.9326  1.6013
10959TIP3    H254293   5.087   4.410  16.405  1.8879 -0.5966 -1.2165
10960TIP3   OH254294   4.490   3.784   3.844 -0.2574 -0.0705  0.8851
10960TIP3    H154295   4.505   3.740   3.759  0.7146  0.0580  0.9722
10960TIP3    H254296   4.564   3.756   3.898 -0.2505  0.7593  1.3196
10961TIP3   OH254297   2.574   2.318   5.606 -0.4847  0.0152  1.0298
10961TIP3    H154298   2.527   2.328   5.523 -0.8033 -0.2977  1.1740
10961TIP3    H254299   2.530   2.379   5.666 -0.0061  0.5327  0.8677
10962TIP3   OH254300   2.574   2.557  15.344  0.5272  0.0915  0.0381
10962TIP3    H154301   2.501   2.594  15.393 -1.3722  1.8345 -3.6658
10962TIP3    H254302   2.625   2.633  15.315  1.7051 -0.8497 -0.4671
10963TIP3   OH254303   3.820   4.964  15.278 -0.5145  0.2442 -0.0587
10963TIP3    H154304   3.851   5.031  15.217 -0.9843 -0.2540 -0.8630
10963TIP3    H254305   3.798   4.889  15.222 -1.8776  0.1160  0.6167
10964TIP3   OH254306   0.404   4.712  16.546  0.6239  0.7572  0.0582
10964TIP3    H154307   0.340   4.663  16.494  0.4182  0.8699  0.2051
10964TIP3    H254308   0.352   4.756  16.613  1.0389 -0.6882  1.3889
10965TIP3   OH254309   0.233   4.749  15.263  0.7862 -0.1909 -0.6000
10965TIP3    H154310   0.169   4.707  15.206 -0.6965  1.1204  0.0296
10965TIP3    H254311   0.245   4.836  15.225  0.1936  0.5025  0.7446
10966TIP3   OH254312   6.388   2.855   0.346  0.2267  0.3698 -0.3062
10966TIP3    H154313   6.406   2.915   0.418  0.3745  0.2625 -0.2529
10966TIP3    H254314   6.466   2.800   0.341  0.4375  0.7157 -0.8897
10967TIP3   OH254315   2.879   3.760   2.644 -0.6275 -0.2149  0.0998
10967TIP3    H154316   2.848   3.787   2.730 -0.6358 -1.3061  0.4582
10967TIP3    H254317   2.803   3.767   2.587 -1.4938 -2.3836  0.8613
10968TIP3   OH254318   5.514   4.060   0.505  0.7197 -0.2447  0.1845
10968TIP3    H154319   5.460   4.119   0.452  0.6482  0.0597  0.5960
10968TIP3    H254320   5.536   4.111   0.583  3.8067  0.6724 -1.0839
10969TIP3   OH254321   4.831   4.613   2.492 -0.0901 -0.4723  0.1156
10969TIP3    H154322   4.897   4.545   2.501  1.2748  0.2486 -3.1867
10969TIP3    H254323   4.760   4.571   2.443 -0.2890 -0.1501  0.1223
10970TIP3   OH254324   6.148   6.378   0.498 -0.7425  0.0297  0.2173
10970TIP3    H154325   6.168   6.394   0.406 -3.0659  0.7126 -0.2363
10970TIP3    H254326   6.229   6.344   0.535  1.2332  2.6563 -1.3483
10971TIP3   OH254327   6.282   4.023   5.805  0.7633  0.5481 -0.2704
10971TIP3    H154328   6.324   4.082   5.742  1.5863 -0.3396 -0.5817
10971TIP3    H254329   6.198   4.002   5.766  0.5111  1.4049 -0.2128
10972TIP3   OH254330   1.523   4.497  11.855  0.1631 -0.2451 -0.3169
10972TIP3    H154331   1.479   4.500  11.940 -0.4539 -0.8235 -0.6035
10972TIP3    H254332   1.453   4.478  11.792  0.3403  1.7491 -1.1838
10973TIP3   OH254333   6.149   4.535   1.502  0.5493 -0.4783  0.5539
10973TIP3    H154334   6.232   4.529   1.453  0.3674  0.7724  0.0639
10973TIP3    H254335   6.175   4.558   1.591  0.7193 -0.0244  0.3851
10974TIP3   OH254336   5.023   2.013   2.641 -0.5413 -0.1126 -0.1083
10974TIP3    H154337   5.066   2.081   2.694 -0.8773 -0.4434  0.6081
10974TIP3    H254338   5.055   2.027   2.552 -1.1615  1.4445 -0.1120
10975TIP3   OH254339   0.172   6.033   3.806 -0.3423 -0.1618  0.4422
10975TIP3    H154340   0.201   6.089   3.733  0.6663  0.8500  1.5739
10975TIP3    H254341   0.093   5.990   3.773 -1.1150  1.8742 -0.5175
10976TIP3   OH254342   6.340   0.869  13.251 -0.8109 -0.2206 -0.5516
10976TIP3    H154343   6.385   0.933  13.306 -0.7159  0.7876 -1.7605
10976TIP3    H254344   6.280   0.824  13.310  1.0994 -0.9949  0.9370
10977TIP3   OH254345   4.708   4.967   3.266  0.4078 -0.0104 -0.1596
10977TIP3    H154346   4.617   4.974   3.294 -0.0743 -2.4340 -0.8924
10977TIP3    H254347   4.749   4.912   3.332  0.5124 -1.5686 -1.4721
10978TIP3   OH254348   5.087   4.435  13.637 -0.4591 -0.0537 -0.1698
10978TIP3    H154349   5.164   4.381  13.619 -0.2210  0.0027  0.6446
10978TIP3    H254350   5.119   4.525  13.635 -0.1961 -0.0809  1.5083
10979TIP3   OH254351   5.145   5.901  15.220  1.1363 -0.2680 -0.1486
10979TIP3    H154352   5.175   5.862  15.302  0.7776  1.7873  1.0344
10979TIP3    H254353   5.199   5.860  15.152  3.2893 -0.0929  1.3808
10980TIP3   OH254354   6.303   2.260  10.308 -0.3566 -0.1588  0.5696
10980TIP3    H154355   6.374   2.320  10.329  0.3701 -0.8386  0.1395
10980TIP3    H254356   6.333   2.175  10.342 -0.6413 -0.5924 -0.2347
10981TIP3   OH254357   3.582   6.369   5.091 -0.0780 -0.3394 -0.0430
10981TIP3    H154358   3.641   6.354   5.166  0.5521  1.5932 -0.1091
10981TIP3    H254359   3.512   6.423   5.127  0.1410  0.4574 -0.7977
10982TIP3   OH254360   3.047   0.088  13.921 -0.0675 -0.4596 -0.2115
10982TIP3    H154361   3.137   0.113  13.941 -0.3186 -1.5733  2.9313
10982TIP3    H254362   3.055   0.009  13.868  0.8413 -0.8897  0.5489
10983TIP3   OH254363   0.290   2.842   1.184 -0.7698  0.5657 -0.2184
10983TIP3    H154364   0.330   2.877   1.263 -0.2954 -2.0829  0.8160
10983TIP3    H254365   0.360   2.793   1.141 -1.2216  1.3057 -1.9182
10984TIP3   OH254366   5.473   3.896   2.465  0.2478 -0.1129  0.0102
10984TIP3    H154367   5.405   3.854   2.413 -0.1435 -1.0792  1.2571
10984TIP3    H254368   5.496   3.832   2.532  1.8648  0.4773  0.0839
10985TIP3   OH254369   4.509   3.134  13.825 -0.0863 -0.2694  0.1625
10985TIP3    H154370   4.510   3.229  13.813  0.8466 -0.5314 -2.4620
10985TIP3    H254371   4.537   3.099  13.741  0.1643 -2.8853  1.2424
10986TIP3   OH254372   1.883   4.320  15.756 -0.0577  0.2085  0.3359
10986TIP3    H154373   1.898   4.245  15.700 -1.2155  0.2223 -0.0170
10986TIP3    H254374   1.816   4.291  15.819  0.5796  0.4658  1.1555
10987TIP3   OH254375   4.614   6.078  14.081  0.2537 -0.2760  0.0709
10987TIP3    H154376   4.521   6.077  14.105 -0.0756 -0.1352 -1.1151
10987TIP3    H254377   4.631   6.169  14.057  0.6745 -0.3252  0.1875
10988TIP3   OH254378   6.686   0.954  16.106 -0.1826  0.3547 -0.3675
10988TIP3    H154379   6.608   0.900  16.122  0.7747 -1.2985 -1.0795
10988TIP3    H254380   6.698   0.951  16.012  1.3957 -0.3849 -0.1630
10989TIP3   OH254381   0.545   6.066  11.860 -0.3134  0.4759  0.1369
10989TIP3    H154382   0.591   6.002  11.914 -1.6742 -0.9181 -0.2805
10989TIP3    H254383   0.610   6.094  11.795  0.5294  0.1167  0.8078
10990TIP3   OH254384   1.802   0.894  15.007  0.3310  0.2682 -0.7745
10990TIP3    H154385   1.841   0.809  15.028 -0.9914  0.0441  1.0900
10990TIP3    H254386   1.806   0.943  15.089 -0.6761  1.2907 -1.3064
10991TIP3   OH254387   5.359   6.461  11.191  0.4746 -0.3827 -0.4767
10991TIP3    H154388   5.313   6.517  11.128  1.9799  0.6971 -0.6687
10991TIP3    H254389   5.326   6.487  11.276  0.4109  0.0635 -0.6381
10992TIP3   OH254390   4.082   5.860  14.569 -0.0092  0.4113 -0.4811
10992TIP3    H154391   4.126   5.777  14.585 -0.4029 -0.1631 -2.2262
10992TIP3    H254392   4.049   5.854  14.479 -0.9765  2.0325 -0.2854
10993TIP3   OH254393   4.256   5.660   3.213 -0.3036  0.6178 -0.0207
10993TIP3    H154394   4.176   5.677   3.264  0.0885  0.9280  0.5004
10993TIP3    H254395   4.313   5.613   3.274  0.0491  0.7191 -0.2738
10994TIP3   OH254396   3.574   4.310  12.192 -0.2340 -0.0181 -0.0030
10994TIP3    H154397   3.584   4.215  12.192 -1.1813 -0.1237  0.1419
10994TIP3    H254398   3.481   4.325  12.173  0.3228  0.9298 -2.3792
10995TIP3   OH254399   6.364   0.677   2.999  0.5666 -0.5306 -0.3150
10995TIP3    H154400   6.375   0.719   3.084 -0.5534  0.9115 -0.8421
10995TIP3    H254401   6.453   0.660   2.968  1.0186  0.3663  0.4595
10996TIP3   OH254402   0.644   0.487  16.203 -0.2571  0.2174  0.3599
10996TIP3    H154403   0.602   0.437  16.272  0.6398  0.1056  0.8345
10996TIP3    H254404   0.584   0.560  16.186 -0.2763  0.4869  1.5529
10997TIP3   OH254405   0.228   2.919   1.873  0.1556  0.5768  0.2413
10997TIP3    H154406   0.161   2.987   1.870 -0.5485  0.0828  2.6745
10997TIP3    H254407   0.197   2.857   1.938  2.4304 -0.2734  0.6269
10998TIP3   OH254408   3.833   3.809   5.473  0.2696 -0.3787  0.5181
10998TIP3    H154409   3.764   3.792   5.409  0.4255 -2.4759  0.8406
10998TIP3    H254410   3.897   3.740   5.458  1.8804  0.9676  0.8659
10999TIP3   OH254411   5.685   1.541  14.099  0.1436  0.7526  0.7101
10999TIP3    H154412   5.763   1.552  14.045 -0.2980 -0.9349 -0.3313
10999TIP3    H254413   5.612   1.562  14.041 -0.3056 -0.5027  0.7788
11000TIP3   OH254414   4.931   2.043   1.992  0.6079  0.3939 -0.7143
11000TIP3    H154415   4.911   1.991   1.914  0.5973 -1.3441  0.3930
11000TIP3    H254416   5.026   2.058   1.987  0.4053  1.5314 -1.7460
11001TIP3   OH254417   0.284   6.458   0.156  0.8091  0.3179 -0.0717
11001TIP3    H154418   0.297   6.366   0.179 -1.4098  0.0870  0.4979
11001TIP3    H254419   0.203   6.459   0.106  0.3313  2.0555  0.6534
11002TIP3   OH254420   1.450   1.549  15.787  0.6171 -0.1018  0.0552
11002TIP3    H154421   1.501   1.567  15.867 -0.3219  0.5240  0.5366
11002TIP3    H254422   1.418   1.460  15.799  2.6413 -1.0182 -0.8578
11003TIP3   OH254423   6.614   2.558  14.574 -0.4222 -0.2250  0.0159
11003TIP3    H154424   6.541   2.590  14.627 -0.2364 -0.9953  0.7529
11003TIP3    H254425   6.630   2.628  14.511 -2.2818 -0.3524 -0.6478
11004TIP3   OH254426   1.099   6.575  12.331 -0.3653 -0.6243  0.1585
11004TIP3    H154427   1.102   6.482  12.306 -1.7813 -0.1192 -2.2992
11004TIP3    H254428   1.009   6.587  12.363  0.0983 -0.2752  1.3502
11005TIP3   OH254429   1.190   6.241   3.490 -0.2349  0.3266 -0.2610
11005TIP3    H154430   1.242   6.287   3.424  0.2549  0.2096  0.0404
11005TIP3    H254431   1.133   6.183   3.440  0.4834 -0.1248 -0.5673
11006TIP3   OH254432   2.286   0.937  16.383  0.4586 -0.1153 -0.1893
11006TIP3    H154433   2.304   1.020  16.427 -0.1288  0.5390 -1.1383
11006TIP3    H254434   2.259   0.878  16.453 -1.0049  1.0567  0.2856
11007TIP3   OH254435   2.041   5.333  10.931  0.1598  0.6850  0.1190
11007TIP3    H154436   2.083   5.322  11.017 -2.4144  0.9792  1.4990
11007TIP3    H254437   2.017   5.244  10.905 -0.4542  0.7425  0.4705
11008TIP3   OH254438   2.131   3.179  14.006 -0.4843  0.2454  0.0689
11008TIP3    H154439   2.178   3.104  13.970  1.4674  1.4244 -0.0315
11008TIP3    H254440   2.147   3.250  13.943 -3.3064  0.4833 -0.4795
11009TIP3   OH254441   6.400   4.316   3.073  0.0003 -0.2565 -0.9359
11009TIP3    H154442   6.357   4.393   3.035  1.5745  0.3254 -1.6378
11009TIP3    H254443   6.335   4.246   3.066 -0.4969  0.3341 -2.9092
11010TIP3   OH254444   3.428   1.685   1.474 -0.1576 -0.4962 -0.1074
11010TIP3    H154445   3.344   1.670   1.517 -0.4955  1.1898 -0.1076
11010TIP3    H254446   3.415   1.654   1.385  0.1637 -2.8833  0.5905
11011TIP3   OH254447   1.421   1.115  14.539 -0.0181  0.1393 -0.1423
11011TIP3    H154448   1.359   1.073  14.479 -0.2533 -0.7144  0.6690
11011TIP3    H254449   1.435   1.202  14.502 -2.2732  0.6395  0.0565
11012TIP3   OH254450   6.708   3.662   2.447  0.5438  0.3791  0.2021
11012TIP3    H154451   6.761   3.607   2.504 -0.8795  0.0721  1.2738
11012TIP3    H254452   6.720   3.751   2.481  0.1309  0.2697  0.6345
11013TIP3   OH254453   3.113   6.096  10.779 -0.2882 -0.6158 -0.5376
11013TIP3    H154454   3.208   6.090  10.788 -0.5362 -1.6213  3.6293
11013TIP3    H254455   3.083   6.005  10.773 -1.0460 -0.6222  1.9564
11014TIP3   OH254456   0.693   2.840   1.143  0.0780 -1.0310 -0.3175
11014TIP3    H154457   0.787   2.854   1.155  0.3750 -1.3340 -2.0066
11014TIP3    H254458   0.675   2.757   1.187  0.8256 -1.5078 -0.8994
11015TIP3   OH254459   5.139   2.649   1.050  0.5182 -0.2321  0.1924
11015TIP3    H154460   5.089   2.698   0.985  0.2453  0.9605  1.2593
11015TIP3    H254461   5.078   2.582   1.081  0.6131 -0.7345 -0.6808
11016TIP3   OH254462   4.059   2.285   4.153  0.2034 -0.0229 -0.1062
11016TIP3    H154463   4.079   2.240   4.235  2.9938  1.7937  0.3508
11016TIP3    H254464   4.040   2.375   4.179 -1.8667 -0.0685 -1.2737
11017TIP3   OH254465   3.108   2.024  12.807  0.2212 -0.6878 -0.8061
11017TIP3    H154466   3.080   1.981  12.726  0.1318  0.2178 -1.2831
11017TIP3    H254467   3.203   2.026  12.801  0.3219 -2.1689 -0.0439
11018TIP3   OH254468   5.110   1.613  14.412 -0.2466  0.3735 -0.8460
11018TIP3    H154469   5.082   1.599  14.322 -0.1601 -0.1634 -0.7936
11018TIP3    H254470   5.204   1.599  14.410 -0.6144 -3.0333 -0.0772
11019TIP3   OH254471   4.623   0.351   5.299  0.2590  0.2368 -0.5720
11019TIP3    H154472   4.565   0.413   5.343  0.8776 -0.0273  0.6466
11019TIP3    H254473   4.617   0.375   5.207 -0.4906  1.2871 -0.2730
11020TIP3   OH254474   1.676   0.479  11.389 -0.3351  0.1740 -0.2039
11020TIP3    H154475   1.752   0.483  11.330  0.3546 -3.1142  0.2849
11020TIP3    H254476   1.702   0.534  11.463 -0.3504  2.6650 -1.9202
11021TIP3   OH254477   0.309   2.380   3.459  0.1530  0.3141  0.0248
11021TIP3    H154478   0.386   2.367   3.404  0.8552 -0.4103  1.1609
11021TIP3    H254479   0.248   2.312   3.431  0.8813 -0.6645  0.7802
11022TIP3   OH254480   2.417   4.129  16.826 -0.2780 -0.3422  0.6924
11022TIP3    H154481   2.355   4.196  16.856 -2.3087 -2.1927  0.9027
11022TIP3    H254482   2.435   4.152  16.735  0.0662  1.1620  1.1113
11023TIP3   OH254483   1.382   6.393  15.156  0.1069  0.1535  0.9009
11023TIP3    H154484   1.288   6.376  15.165  0.5203 -2.3366  1.0931
11023TIP3    H254485   1.403   6.369  15.066  0.5260  1.0345  0.7501
11024TIP3   OH254486   4.456   5.732  12.255 -0.1447  0.3754  0.2102
11024TIP3    H154487   4.398   5.745  12.180  0.3428 -0.6286 -0.3540
11024TIP3    H254488   4.449   5.638  12.275 -0.8659  0.7474  1.9280
11025TIP3   OH254489   2.908   2.871   4.470 -0.0637  0.9822 -0.2224
11025TIP3    H154490   2.871   2.788   4.500 -0.4414  1.6627  1.2965
11025TIP3    H254491   2.997   2.870   4.504  0.0633  1.0272 -0.5548
11026TIP3   OH254492   3.578   3.084  16.354 -0.3362 -0.0515  0.5954
11026TIP3    H154493   3.639   3.014  16.331  1.1113  0.8531  1.4315
11026TIP3    H254494   3.575   3.140  16.277 -1.2643 -0.8524  0.0337
11027TIP3   OH254495   3.439   1.585  16.830  0.9747  0.3457  0.0033
11027TIP3    H154496   3.401   1.673  16.825  0.0473  0.1006  2.0426
11027TIP3    H254497   3.489   1.585  16.911  0.6588 -1.1335  0.2124
11028TIP3   OH254498   1.641   4.004   4.715 -0.6849 -0.3989 -0.3709
11028TIP3    H154499   1.584   4.058   4.770 -0.4072 -0.9871  0.5141
11028TIP3    H254500   1.582   3.954   4.660 -0.9579  0.5009 -0.9214
11029TIP3   OH254501   4.691   6.717   2.852 -0.0203 -0.0835  0.6275
11029TIP3    H154502   4.660   6.628   2.836 -1.3337  0.6135 -0.8512
11029TIP3    H254503   4.640   6.747   2.927  0.0389 -0.3749  0.7866
11030TIP3   OH254504   4.495   3.275   0.740  0.7736  0.0455  0.1514
11030TIP3    H154505   4.507   3.186   0.707 -3.4203  0.1641 -2.4280
11030TIP3    H254506   4.406   3.276   0.775  1.2627  2.8651  1.6081
11031TIP3   OH254507   2.402   4.536  10.939  0.2534 -0.6439  0.0762
11031TIP3    H154508   2.322   4.584  10.920 -0.5310 -2.6284 -2.1580
11031TIP3    H254509   2.457   4.549  10.862  1.4082 -0.6449  0.8733
11032TIP3   OH254510   3.287   0.282   3.631  0.3147 -1.2815  0.0416
11032TIP3    H154511   3.223   0.251   3.567 -1.1437 -0.0297  0.8374
11032TIP3    H254512   3.357   0.321   3.578  0.0734 -1.9801 -0.8194
11033TIP3   OH254513   6.405   5.525   5.676 -0.7726 -0.6183  0.0287
11033TIP3    H154514   6.451   5.601   5.640  0.1656 -1.3557 -0.3737
11033TIP3    H254515   6.391   5.547   5.768  2.1536 -1.1219  0.6914
11034TIP3   OH254516   4.859   6.011  16.797 -0.1788 -0.9438 -0.0270
11034TIP3    H154517   4.935   6.069  16.792 -1.6379  1.0622 -0.0813
11034TIP3    H254518   4.895   5.923  16.782  2.3153 -0.2592  1.3581
11035TIP3   OH254519   4.596   0.670  16.846  0.5571  0.5140  0.0903
11035TIP3    H154520   4.656   0.711  16.784  0.7167  1.1320  0.6475
11035TIP3    H254521   4.634   0.583  16.862 -0.2465 -0.2247 -1.7594
11036TIP3   OH254522   2.215   1.568  14.422 -0.1531  0.0330  0.1373
11036TIP3    H154523   2.209   1.472  14.414  1.0428 -0.1593  1.1093
11036TIP3    H254524   2.235   1.599  14.334  0.2364 -0.6932 -0.0350
11037TIP3   OH254525   6.408   1.587  16.356 -0.4448 -0.1267 -0.4996
11037TIP3    H154526   6.406   1.661  16.296 -1.9197 -0.1911 -0.5650
11037TIP3    H254527   6.484   1.535  16.328 -0.4888  0.3959 -1.6236
11038TIP3   OH254528   4.400   0.382  15.942  0.2905  0.0811 -0.3026
11038TIP3    H154529   4.359   0.391  15.856 -0.8465 -1.9048 -0.0227
11038TIP3    H254530   4.462   0.310  15.932  0.2491 -0.0788  0.4986
11039TIP3   OH254531   1.583   5.687  11.684  0.1064 -0.2143 -0.2492
11039TIP3    H154532   1.588   5.738  11.603 -0.2500  0.6710  0.2733
11039TIP3    H254533   1.640   5.734  11.746 -2.1474  1.0650  1.0081
11040TIP3   OH254534   5.246   2.359   1.864  0.8005  0.1771 -0.1895
11040TIP3    H154535   5.209   2.278   1.900 -0.3573  1.1333  0.8694
11040TIP3    H254536   5.332   2.333   1.831 -0.9612 -2.3630 -3.5067
11041TIP3   OH254537   0.753   5.142   4.359  0.1502 -0.1391  0.1138
11041TIP3    H154538   0.773   5.205   4.429 -1.4904  0.0565  0.4320
11041TIP3    H254539   0.788   5.184   4.280 -1.7104  1.6588  0.1667
11042TIP3   OH254540   1.657   0.120   1.510  0.0446 -0.0973 -0.4132
11042TIP3    H154541   1.678   0.198   1.562  2.2740 -3.3725  4.2637
11042TIP3    H254542   1.571   0.093   1.540 -1.0592  0.7998 -2.5719
11043TIP3   OH254543   6.602   3.857  15.155  0.3620 -0.2327 -0.2572
11043TIP3    H154544   6.663   3.914  15.202 -0.2938 -0.5703  1.0650
11043TIP3    H254545   6.520   3.906  15.154  0.1724 -0.5499 -0.3829
11044TIP3   OH254546   1.794   3.849   3.403  0.2372 -0.3723 -0.8018
11044TIP3    H154547   1.740   3.840   3.481 -0.1839 -0.6871 -1.1185
11044TIP3    H254548   1.739   3.897   3.341  0.4695 -0.3522 -0.9941
11045TIP3   OH254549   0.297   4.926   1.112  0.0663 -0.8523  0.1432
11045TIP3    H154550   0.301   4.832   1.126 -1.3904 -0.6644  2.2356
11045TIP3    H254551   0.211   4.941   1.072  0.9864 -0.5192 -1.8738
11046TIP3   OH254552   3.080   1.109  12.042  0.0651  0.3078 -0.3797
11046TIP3    H154553   3.091   1.198  12.077  1.8352 -0.1224  0.2277
11046TIP3    H254554   3.047   1.123  11.953 -1.3509  1.5040  0.2732
11047TIP3   OH254555   0.754   0.235  16.521 -0.1795  0.1789 -0.4676
11047TIP3    H154556   0.665   0.228  16.486 -0.6441 -0.9840  0.8625
11047TIP3    H254557   0.778   0.146  16.544  1.2179  0.5308 -0.4760
11048TIP3   OH254558   0.412   1.106  12.124  0.3728  0.1754 -0.3559
11048TIP3    H154559   0.418   1.144  12.212  0.3701  1.3750 -0.8637
11048TIP3    H254560   0.450   1.018  12.134 -1.1501 -0.3789  1.2143
11049TIP3   OH254561   3.828   1.418   3.292 -0.1978 -0.5746  0.7836
11049TIP3    H154562   3.879   1.464   3.359 -0.8690 -1.1626  1.7104
11049TIP3    H254563   3.892   1.397   3.224  0.0793  2.0432  0.1206
11050TIP3   OH254564   0.275   2.820  17.097  0.8629  0.4799  0.5789
11050TIP3    H154565   0.252   2.728  17.109  1.0936  0.6917  3.0806
11050TIP3    H254566   0.371   2.819  17.088  0.7491  0.3883 -0.9108
11051TIP3   OH254567   3.072   2.490   3.897 -0.1410 -0.1800  0.3894
11051TIP3    H154568   2.982   2.515   3.917 -0.5707 -2.2592  1.2471
11051TIP3    H254569   3.122   2.571   3.907 -1.3589  0.3141  3.3972
11052TIP3   OH254570   0.359   3.631   2.698 -0.1882  0.0774  0.1394
11052TIP3    H154571   0.328   3.683   2.623 -0.0959  0.0565  0.0867
11052TIP3    H254572   0.283   3.624   2.755  0.2247  1.6678  0.9407
11053TIP3   OH254573   0.712   5.781   0.406 -0.0715  0.0959  0.0178
11053TIP3    H154574   0.661   5.740   0.336  0.5752 -0.5500 -0.0809
11053TIP3    H254575   0.799   5.792   0.370 -0.1021  1.1209  0.2188
11054TIP3   OH254576   3.198   1.072   2.589  0.0029 -0.1138 -0.3078
11054TIP3    H154577   3.282   1.075   2.634 -0.1367 -0.1389 -0.0472
11054TIP3    H254578   3.216   1.109   2.502 -0.1440  1.7610  0.4097
11055TIP3   OH254579   0.285   5.308  14.623  0.3241  0.1361  0.0616
11055TIP3    H154580   0.318   5.394  14.650  1.8866 -0.1679 -0.7474
11055TIP3    H254581   0.284   5.311  14.528  0.2253 -0.6749  0.0271
11056TIP3   OH254582   0.683   1.765  14.491 -0.3991 -0.1292 -0.4019
11056TIP3    H154583   0.708   1.674  14.477 -0.5630 -0.3221  0.5421
11056TIP3    H254584   0.595   1.760  14.528  0.7577  0.2589  2.6180
11057TIP3   OH254585   1.803   4.328  13.305 -0.3477 -0.4539  0.0152
11057TIP3    H154586   1.887   4.371  13.313 -0.2947 -0.7939  1.8061
11057TIP3    H254587   1.752   4.361  13.379 -1.0262 -1.8393  0.2102
11058TIP3   OH254588   0.082   6.672   0.143  0.7612 -0.9079  0.2549
11058TIP3    H154589   0.101   6.721   0.223 -1.5079  0.2381  0.1656
11058TIP3    H254590   0.013   6.610   0.168  1.5817 -2.0913 -0.3231
11059TIP3   OH254591   6.271   0.216   4.186 -0.3329 -0.1401  0.1513
11059TIP3    H154592   6.231   0.255   4.108 -0.0056  2.0742  1.0075
11059TIP3    H254593   6.238   0.126   4.188 -0.0160 -0.4103 -2.7430
11060TIP3   OH254594   4.700   0.150   3.860  0.0018  0.0856 -0.1916
11060TIP3    H154595   4.722   0.100   3.939 -0.3615 -0.1736 -0.2514
11060TIP3    H254596   4.713   0.088   3.788  2.8381  1.0204 -0.6194
11061TIP3   OH254597   4.541   5.692   4.995 -0.3732 -0.2198  0.3453
11061TIP3    H154598   4.497   5.750   5.059 -1.2967 -1.6184  1.0427
11061TIP3    H254599   4.624   5.735   4.977 -1.1457  1.4822  0.5886
11062TIP3   OH254600   5.725   6.099   6.729  0.0822  0.2286 -0.2535
11062TIP3    H154601   5.803   6.061   6.689  0.5430 -0.9225  1.6073
11062TIP3    H254602   5.752   6.189   6.752  0.9853 -0.2349  0.6036
11063TIP3   OH254603   3.297   2.397  13.674  0.4769 -0.2281 -0.3025
11063TIP3    H154604   3.244   2.337  13.622 -1.0391  2.4081 -2.0095
11063TIP3    H254605   3.282   2.371  13.765  1.1670 -3.3454 -0.9849
11064TIP3   OH254606   5.518   0.829   0.014 -0.2579 -0.3146  1.1547
11064TIP3    H154607   5.424   0.844   0.001 -0.3638 -0.2473  1.9728
11064TIP3    H254608   5.526   0.734   0.020 -0.0621 -0.4220 -0.4216
11065TIP3   OH254609   5.802   5.473  11.750  0.4887 -0.1335  0.3407
11065TIP3    H154610   5.776   5.474  11.842 -1.5477  2.4398 -0.1569
11065TIP3    H254611   5.886   5.519  11.748 -0.0104  0.8176  0.8015
11066TIP3   OH254612   4.994   4.752  13.918 -0.2939  1.3141 -0.0924
11066TIP3    H154613   5.038   4.749  13.833  1.0253  1.9797  0.5383
11066TIP3    H254614   4.984   4.845  13.937  1.6166  1.2700  1.5238
11067TIP3   OH254615   1.957   6.112   3.954 -0.0614 -0.2843  0.5859
11067TIP3    H154616   1.900   6.040   3.980  1.5307 -0.7008  3.3964
11067TIP3    H254617   1.910   6.191   3.981 -0.4108 -0.4580  0.4890
11068TIP3   OH254618   5.725   5.094  16.200  0.1069  0.4976  0.5649
11068TIP3    H154619   5.757   5.168  16.148  1.2890  0.2161  0.8716
11068TIP3    H254620   5.651   5.060  16.150  0.7022  0.7545 -0.5116
11069TIP3   OH254621   3.916   0.651  13.143  0.3036  0.3947 -0.1826
11069TIP3    H154622   3.978   0.597  13.094  1.7402  1.0193  0.8475
11069TIP3    H254623   3.871   0.703  13.076  0.2950 -0.6698 -1.0225
11070TIP3   OH254624   4.585   1.768  13.318  0.2344  0.3338 -0.5900
11070TIP3    H154625   4.531   1.815  13.383 -1.0583 -1.0903 -0.5779
11070TIP3    H254626   4.648   1.720  13.370  0.3982  0.6390 -0.5025
11071TIP3   OH254627   2.066   1.764   4.724 -0.4702  0.6122  1.1842
11071TIP3    H154628   2.022   1.688   4.761  0.1322 -0.0376  0.5989
11071TIP3    H254629   2.141   1.779   4.781 -0.1572  0.2829  0.8677
11072TIP3   OH254630   5.475   1.900  16.091 -0.2881  0.6017 -0.2640
11072TIP3    H154631   5.552   1.956  16.084  0.1842 -0.0911 -0.6608
11072TIP3    H254632   5.402   1.959  16.069  0.3518  0.6973 -2.4336
11073TIP3   OH254633   0.222   1.391  16.109  0.2973 -0.7982 -0.9900
11073TIP3    H154634   0.184   1.310  16.145  0.2616 -0.8423 -1.1269
11073TIP3    H254635   0.171   1.461  16.150  1.5074 -0.7676  0.5540
11074TIP3   OH254636   0.485   4.409  11.801 -0.5033  0.0508  0.2558
11074TIP3    H154637   0.493   4.342  11.734 -1.3052  0.3745 -0.1695
11074TIP3    H254638   0.462   4.489  11.753  1.9358  1.0396  0.5485
11075TIP3   OH254639   5.686   4.080  12.283  0.3991 -0.1138  0.2949
11075TIP3    H154640   5.718   4.004  12.233  1.9689  1.3874 -1.1312
11075TIP3    H254641   5.755   4.096  12.348 -0.2128 -0.2612  0.9845
11076TIP3   OH254642   3.504   0.829  16.155  0.1950 -0.6501  0.5012
11076TIP3    H154643   3.512   0.747  16.204  0.3672 -1.2601 -0.5140
11076TIP3    H254644   3.521   0.805  16.064  1.2180  0.6753  0.2984
11077TIP3   OH254645   6.604   5.798  14.961  0.1816 -0.1087  0.1980
11077TIP3    H154646   6.529   5.855  14.975  0.1739 -0.2084  0.5909
11077TIP3    H254647   6.581   5.717  15.006 -0.2538 -0.8117 -1.2214
11078TIP3   OH254648   2.253   5.897   1.440  0.5360 -0.0832 -0.6657
11078TIP3    H154649   2.234   5.871   1.350 -0.7280 -0.1861 -0.3826
11078TIP3    H254650   2.264   5.814   1.486 -1.9142 -0.1590 -0.0980
11079TIP3   OH254651   3.050   5.220  12.891 -0.1437  0.2740 -0.4235
11079TIP3    H154652   3.026   5.148  12.833 -1.0508  0.1612  0.0765
11079TIP3    H254653   2.989   5.214  12.965 -0.8615  2.1041 -0.7985
11080TIP3   OH254654   5.992   3.452  16.683 -0.1474 -0.4548 -0.1576
11080TIP3    H154655   5.904   3.415  16.675  0.0763 -1.6318  1.9935
11080TIP3    H254656   5.979   3.533  16.733 -0.0015 -0.8444  0.5319
11081TIP3   OH254657   5.439   5.752  12.302  0.3915 -0.1281  0.0850
11081TIP3    H154658   5.347   5.749  12.329  0.4624 -1.1018  0.2625
11081TIP3    H254659   5.483   5.800  12.373  0.1687 -0.5067  0.4906
11082TIP3   OH254660   2.460   5.725  16.975 -0.4987 -0.0097 -0.1623
11082TIP3    H154661   2.517   5.703  16.901 -0.5208 -1.1630  0.1480
11082TIP3    H254662   2.371   5.719  16.940 -0.4778  0.7749 -0.3777
11083TIP3   OH254663   6.182   5.983  16.387  0.3823 -0.0797 -0.0931
11083TIP3    H154664   6.233   5.990  16.468  0.5833 -0.8924 -0.1398
11083TIP3    H254665   6.233   5.923  16.332 -0.5219 -0.7707 -0.2055
11084TIP3   OH254666   0.341   0.749   3.406  0.4259  0.5829  0.6364
11084TIP3    H154667   0.334   0.654   3.416  0.5297  0.5198  0.0919
11084TIP3    H254668   0.354   0.780   3.496 -1.0278  0.2151  0.9912
11085TIP3   OH254669   5.796   2.963   5.987 -0.3762  0.4307  0.3015
11085TIP3    H154670   5.710   2.952   5.946 -0.6677  1.8186  0.4854
11085TIP3    H254671   5.782   2.942   6.079  0.1462 -2.1110 -0.1443
11086TIP3   OH254672   3.410   2.492  10.709  0.2395  0.1734  0.3571
11086TIP3    H154673   3.482   2.430  10.721  0.7050 -0.0310 -2.8097
11086TIP3    H254674   3.339   2.440  10.672 -1.3001  0.5819  2.5275
11087TIP3   OH254675   5.501   5.764  12.774 -0.3350 -0.5101  0.8149
11087TIP3    H154676   5.429   5.718  12.817 -0.8330 -0.2688  0.2559
11087TIP3    H254677   5.518   5.714  12.694 -0.5475 -0.0085  0.4511
11088TIP3   OH254678   0.318   4.559   4.898 -0.1424 -0.3910 -0.6221
11088TIP3    H154679   0.351   4.649   4.901  0.4394 -0.4730 -2.9618
11088TIP3    H254680   0.235   4.563   4.946  0.9129  0.8517  1.2693
11089TIP3   OH254681   4.405   5.283  15.100 -0.0106  0.7604 -0.2753
11089TIP3    H154682   4.465   5.254  15.032 -0.2459  0.5277 -0.3834
11089TIP3    H254683   4.390   5.206  15.154 -0.5482  0.7069 -0.4988
11090TIP3   OH254684   1.528   6.208   2.093  0.3661  0.6215 -0.3130
11090TIP3    H154685   1.504   6.118   2.074  0.9372  0.0853  1.3675
11090TIP3    H254686   1.583   6.235   2.019  1.4023 -0.8979 -0.1297
11091TIP3   OH254687   4.034   5.764   0.337 -0.0030 -0.4947 -0.7126
11091TIP3    H154688   4.035   5.773   0.242 -1.2509  1.2523 -0.6090
11091TIP3    H254689   4.126   5.750   0.361  0.6016  0.9944 -2.0160
11092TIP3   OH254690   4.333   6.029  12.884  0.5094  0.5747 -0.0642
11092TIP3    H154691   4.322   5.935  12.870  0.7985  0.4660  0.4335
11092TIP3    H254692   4.390   6.058  12.812  0.2223  0.4175 -0.3565
11093TIP3   OH254693   3.961   1.669   4.336 -0.3595 -0.1093 -0.0394
11093TIP3    H154694   3.987   1.745   4.283 -0.0376  0.6632  1.1882
11093TIP3    H254695   4.039   1.649   4.389 -1.6649  1.3360  2.6418
11094TIP3   OH254696   5.011   3.905  16.362 -0.1518  0.1249  0.0376
11094TIP3    H154697   5.016   3.809  16.365 -0.1340  0.1243 -0.0097
11094TIP3    H254698   5.028   3.927  16.271  1.4799  0.2745  0.3572
11095TIP3   OH254699   5.309   3.952   3.806  0.0256 -0.1857  0.1876
11095TIP3    H154700   5.270   4.039   3.812  0.8676  0.2781 -0.7131
11095TIP3    H254701   5.361   3.943   3.886 -0.1669  0.0912  0.3437
11096TIP3   OH254702   4.714   0.343  16.934 -0.6708 -0.3224  0.0168
11096TIP3    H154703   4.678   0.356  17.021 -2.4516  2.3358 -0.9825
11096TIP3    H254704   4.808   0.332  16.948 -1.0782 -1.5004  2.3098
11097TIP3   OH254705   3.055   5.906  13.039  0.3994 -0.2536 -0.2699
11097TIP3    H154706   3.143   5.869  13.039  0.7740  0.5896  0.3815
11097TIP3    H254707   3.023   5.891  12.950  0.0964 -3.0369  0.2244
11098TIP3   OH254708   1.132   3.198  11.528 -0.0963  0.0039 -0.5726
11098TIP3    H154709   1.081   3.243  11.460 -0.9001 -0.2998 -0.1874
11098TIP3    H254710   1.218   3.239  11.524 -0.5496  0.9860 -0.8150
11099TIP3   OH254711   4.507   3.026  14.429  0.4909 -0.0360 -0.3549
11099TIP3    H154712   4.535   3.093  14.366 -1.9060  0.3428 -1.1126
11099TIP3    H254713   4.415   3.046  14.446  0.2911 -1.8936  1.0386
11100TIP3   OH254714   4.462   1.824  15.586 -0.0163  0.2551  0.6041
11100TIP3    H154715   4.407   1.745  15.594  0.0196  0.2248  0.5531
11100TIP3    H254716   4.401   1.892  15.559  0.3638 -0.3193 -1.9660
11101TIP3   OH254717   0.227   4.548   0.977  0.0873 -0.2518 -0.3350
11101TIP3    H154718   0.178   4.565   0.897  0.0593  0.4972 -0.1675
11101TIP3    H254719   0.315   4.582   0.959  0.4800 -1.3471 -0.5417
11102TIP3   OH254720   0.851   4.786  15.666 -0.0859 -0.2782  0.1900
11102TIP3    H154721   0.784   4.845  15.631 -0.6498  0.7133  2.7315
11102TIP3    H254722   0.802   4.714  15.705  0.1396  0.9661  2.9939
11103TIP3   OH254723   2.546   3.387   2.882 -0.1693  0.3143 -0.1060
11103TIP3    H154724   2.466   3.388   2.935  1.0667  1.2066  1.8664
11103TIP3    H254725   2.549   3.472   2.840  0.1388  0.6111  0.4994
11104TIP3   OH254726   6.484   1.291  12.208 -0.4431  0.0377  0.0901
11104TIP3    H154727   6.523   1.347  12.275 -1.5212  0.1933  0.5995
11104TIP3    H254728   6.463   1.210  12.254  0.5131 -0.5650 -0.4950
11105TIP3   OH254729   6.317   5.800  14.044 -0.2324 -0.7764 -0.3750
11105TIP3    H154730   6.287   5.822  13.956  0.8530 -0.6531 -0.7211
11105TIP3    H254731   6.276   5.866  14.100 -0.6714 -0.6601 -0.8208
11106TIP3   OH254732   5.446   2.471   4.846  0.2136 -0.5507  0.6645
11106TIP3    H154733   5.490   2.478   4.931 -2.0937 -2.4621  2.1495
11106TIP3    H254734   5.413   2.381   4.844 -0.7205 -0.2287 -1.8214
11107TIP3   OH254735   2.146   4.393   1.861 -0.5787  0.0266  0.3261
11107TIP3    H154736   2.207   4.363   1.794  0.6361 -1.1226  1.8667
11107TIP3    H254737   2.061   4.360   1.833 -0.1100 -0.3891 -0.6608
11108TIP3   OH254738   6.725   6.260  11.507 -0.3937  0.3664 -0.5514
11108TIP3    H154739   6.682   6.305  11.434 -0.5631  2.0138  0.5114
11108TIP3    H254740   6.818   6.271  11.490 -0.4327  0.7632 -0.5238
11109TIP3   OH254741   5.602   5.756  11.359  0.6236 -0.3435 -0.3578
11109TIP3    H154742   5.555   5.678  11.330 -2.5502  1.8059 -1.5791
11109TIP3    H254743   5.649   5.786  11.282 -1.8123  1.2815 -1.3358
11110TIP3   OH254744   2.721   2.223   1.445  0.0120 -0.4377 -0.2931
11110TIP3    H154745   2.785   2.268   1.500  0.2282 -1.5105  0.3655
11110TIP3    H254746   2.676   2.162   1.505 -0.2115 -1.1531 -1.1584
11111TIP3   OH254747   5.375   0.015   0.277  0.5505  0.1795  0.3026
11111TIP3    H154748   5.408   0.094   0.320 -1.7674  1.2537  0.2508
11111TIP3    H254749   5.331  -0.034   0.347  1.7323 -0.9554  0.2751
11112TIP3   OH254750   1.436   1.043   4.027 -0.5016 -0.2458  0.1012
11112TIP3    H154751   1.369   1.105   4.055  0.2305  0.3080  0.6737
11112TIP3    H254752   1.394   0.957   4.034 -0.7439 -0.0259  1.7715
11113TIP3   OH254753   0.056   0.101   5.309 -0.6949  0.1685 -0.9148
11113TIP3    H154754  -0.033   0.074   5.283 -1.0285  0.1870  0.1908
11113TIP3    H254755   0.054   0.196   5.307 -0.6734  0.1683 -0.9560
11114TIP3   OH254756   5.012   6.512  11.413 -0.3157  0.1052 -0.2957
11114TIP3    H154757   4.987   6.487  11.502 -0.0082 -0.6747 -0.4239
11114TIP3    H254758   4.955   6.460  11.357 -0.0008  0.0454 -0.5628
11115TIP3   OH254759   6.305   6.609  11.134  0.0451  0.7457 -0.4780
11115TIP3    H154760   6.221   6.654  11.124 -0.1314  1.7659  3.6004
11115TIP3    H254761   6.356   6.666  11.192  2.3596 -1.3326 -0.2877
11116TIP3   OH254762   3.361   4.921  13.921 -0.6820 -0.2373 -0.0658
11116TIP3    H154763   3.350   4.865  13.844 -1.1949  2.3086 -1.9916
11116TIP3    H254764   3.451   4.953  13.915 -1.3442  1.6285 -0.9056
11117TIP3   OH254765   1.311   2.178   2.509  0.9783  0.2628 -0.5365
11117TIP3    H154766   1.293   2.266   2.541 -0.5028  0.2157 -1.1510
11117TIP3    H254767   1.282   2.179   2.418 -0.8208 -1.3303 -0.0709
11118TIP3   OH254768   5.255   0.897   0.025 -0.3117 -0.3790  0.1160
11118TIP3    H154769   5.192   0.881   0.095 -0.4057 -0.4210  0.0221
11118TIP3    H254770   5.243   0.989   0.002  0.4375 -0.0767  0.8641
11119TIP3   OH254771   2.782   0.274   4.695  0.8326 -0.0467 -0.2378
11119TIP3    H154772   2.772   0.189   4.651  1.9020 -0.4801  0.3254
11119TIP3    H254773   2.700   0.285   4.744  1.0367 -1.1802  0.4028
11120TIP3   OH254774   3.519   5.357   0.239 -0.0631  0.9028  0.1316
11120TIP3    H154775   3.593   5.417   0.250 -0.9409  2.1569 -0.5459
11120TIP3    H254776   3.519   5.336   0.146 -0.0755  0.2455  0.2761
11121TIP3   OH254777   4.200   3.807  16.777  0.4035  0.0459  0.3236
11121TIP3    H154778   4.134   3.770  16.836  2.1811 -0.4313  2.0962
11121TIP3    H254779   4.190   3.756  16.696 -3.4343  2.0436 -0.7018
11122TIP3   OH254780   2.035   0.633   1.989 -0.0422 -0.4714  0.1288
11122TIP3    H154781   2.038   0.714   2.040  0.0674  0.6755 -1.6140
11122TIP3    H254782   2.096   0.574   2.033 -0.1318  0.3744  1.4352
11123TIP3   OH254783   6.624   3.582  15.228  0.1480 -0.2436  0.2619
11123TIP3    H154784   6.552   3.576  15.291 -2.8007 -1.4152 -2.8894
11123TIP3    H254785   6.619   3.672  15.195  1.2388  0.1618  1.1535
11124TIP3   OH254786   0.234   5.665  13.010 -0.4159 -0.4491 -0.0076
11124TIP3    H154787   0.261   5.654  12.918  0.4425  0.0798  0.1726
11124TIP3    H254788   0.205   5.756  13.016 -0.0118 -0.3431  0.3590
11125TIP3   OH254789   5.344   5.309  14.746  0.7626  0.4687  0.2793
11125TIP3    H154790   5.393   5.283  14.824  1.6926  0.8906 -0.1386
11125TIP3    H254791   5.392   5.385  14.712  0.3459  0.3239 -0.6681
11126TIP3   OH254792   1.213   6.328   0.790  0.0441 -0.2708  0.4180
11126TIP3    H154793   1.158   6.263   0.748  0.6908 -0.9975  0.6774
11126TIP3    H254794   1.211   6.306   0.883  0.4169 -0.0425  0.4868
11127TIP3   OH254795   2.600   0.396  11.930 -0.0457 -0.0552 -0.0944
11127TIP3    H154796   2.615   0.491  11.936 -0.3767 -0.0050 -0.0344
11127TIP3    H254797   2.629   0.361  12.014 -1.0678  0.1506  0.3534
11128TIP3   OH254798   5.767   0.479  16.572  0.0306 -0.3752  0.0824
11128TIP3    H154799   5.772   0.390  16.608  0.1150 -0.6050 -0.4806
11128TIP3    H254800   5.752   0.535  16.648 -1.0402 -0.9756  0.3385
11129TIP3   OH254801   0.343   6.687  11.782 -0.4451 -0.1714  0.1743
11129TIP3    H154802   0.316   6.739  11.706 -0.2155  0.1334  0.3018
11129TIP3    H254803   0.298   6.728  11.856 -2.5947 -1.8751 -0.0675
11130TIP3   OH254804   5.355   2.692  16.531  0.1269  0.1260 -0.9278
11130TIP3    H154805   5.386   2.677  16.442  0.0063  1.9870 -1.3143
11130TIP3    H254806   5.299   2.616  16.549  0.2305 -0.3346 -2.3907
11131TIP3   OH254807   4.510   1.906   2.721 -0.0103  0.8197 -0.0869
11131TIP3    H154808   4.518   1.959   2.800  0.6507  1.0067 -0.2761
11131TIP3    H254809   4.576   1.837   2.731  0.1376  0.8961 -0.5106
11132TIP3   OH254810   6.605   0.836  11.746 -0.0610 -0.0592  0.7279
11132TIP3    H154811   6.600   0.765  11.682  2.1690 -1.2430  1.7263
11132TIP3    H254812   6.654   0.905  11.700  1.2351 -0.7717  0.9757
11133TIP3   OH254813   3.772   6.628   5.336 -0.0728 -0.0315 -0.2566
11133TIP3    H154814   3.714   6.686   5.385 -0.5652  0.8088 -1.7506
11133TIP3    H254815   3.728   6.615   5.252  0.8902 -1.1397 -0.6258
11134TIP3   OH254816   2.660   1.929   0.868  0.6732  0.6993 -0.9629
11134TIP3    H154817   2.693   1.839   0.881  1.9553  0.7878 -3.0661
11134TIP3    H254818   2.726   1.984   0.910  1.5291  0.7375 -2.2949
11135TIP3   OH254819   4.892   4.624  16.646 -0.2965 -0.0823  0.4938
11135TIP3    H154820   4.882   4.648  16.554  0.5139  0.4222  0.5254
11135TIP3    H254821   4.942   4.696  16.684  2.4473 -1.8736  0.5702
11136TIP3   OH254822   0.990   1.355   5.298  0.7299 -0.0543 -0.4602
11136TIP3    H154823   1.057   1.423   5.304 -0.1049  0.8493 -1.0388
11136TIP3    H254824   1.039   1.272   5.299  1.7765  0.5570  0.0121
11137TIP3   OH254825   1.600   3.362   2.299  0.3571  0.1800 -0.4255
11137TIP3    H154826   1.670   3.415   2.338  0.3878  0.4972 -0.9053
11137TIP3    H254827   1.635   3.273   2.299  0.0894  0.0604  0.8955
11138TIP3   OH254828   4.331   1.681   0.084 -0.9523 -0.3347 -0.3405
11138TIP3    H154829   4.344   1.605   0.140 -0.0080 -0.1464 -0.2903
11138TIP3    H254830   4.389   1.749   0.120 -1.4681  0.2738 -0.6320
11139TIP3   OH254831   5.364   4.460  12.895 -0.5250  0.0314 -0.0891
11139TIP3    H154832   5.456   4.487  12.899 -0.1844 -1.0938  0.1509
11139TIP3    H254833   5.316   4.539  12.870  0.6631  0.3015 -1.6252
11140TIP3   OH254834   3.844   1.719  17.181  0.1810  0.0941  0.3557
11140TIP3    H154835   3.844   1.701  17.088 -0.7904 -0.6440  0.4864
11140TIP3    H254836   3.817   1.811  17.188  0.9578  0.3692 -0.1059
11141TIP3   OH254837   5.499   3.819   0.372 -0.2074  0.4584 -0.3633
11141TIP3    H154838   5.411   3.782   0.386 -0.0744  0.4689  0.5518
11141TIP3    H254839   5.501   3.897   0.427  0.8680 -0.3336  0.7644
11142TIP3   OH254840   1.388   6.482   4.801  0.2189 -0.1246  0.2608
11142TIP3    H154841   1.317   6.478   4.865  0.1938  0.1070  0.2490
11142TIP3    H254842   1.445   6.409   4.823  0.5148  0.2864  0.9037
11143TIP3   OH254843   2.547   0.617  15.402 -0.1832  0.5462  0.2863
11143TIP3    H154844   2.637   0.643  15.422  0.1167 -0.5370  0.4284
11143TIP3    H254845   2.500   0.629  15.484  0.6006 -1.9975  1.1958
11144TIP3   OH254846   0.080   5.179  14.108  0.0476 -0.3408  0.1573
11144TIP3    H154847   0.015   5.112  14.128  0.3329 -1.2764 -1.8604
11144TIP3    H254848   0.033   5.262  14.121 -1.3568 -0.9865 -0.6184
11145TIP3   OH254849   0.833   6.636   3.237  0.2801  0.5682 -0.6520
11145TIP3    H154850   0.765   6.653   3.302  1.0489  0.4813  0.1907
11145TIP3    H254851   0.901   6.701   3.255  1.4538 -0.7610  0.0279
11146TIP3   OH254852   4.457   4.052  16.526  0.2785  0.4373 -0.1401
11146TIP3    H154853   4.466   4.057  16.621 -0.2091  0.6749 -0.1091
11146TIP3    H254854   4.370   4.016  16.511 -1.0289  3.4543 -0.5199
11147TIP3   OH254855   0.608   4.047  16.750 -0.1797  0.3270 -0.2854
11147TIP3    H154856   0.667   4.041  16.825  0.7674 -0.9077 -1.0862
11147TIP3    H254857   0.655   4.102  16.687 -2.0670  3.6123  0.9155
11148TIP3   OH254858   5.617   4.278  12.087  0.1794 -0.0824  0.1106
11148TIP3    H154859   5.674   4.308  12.017 -0.9883 -0.5142 -1.0617
11148TIP3    H254860   5.673   4.222  12.141  1.7034  2.0208  0.8827
11149TIP3   OH254861   2.546   5.555   2.192 -0.2895  0.3557  0.0661
11149TIP3    H154862   2.621   5.509   2.230 -0.6409  0.4538  0.9162
11149TIP3    H254863   2.580   5.641   2.168  0.2898 -0.2035 -1.2181
11150TIP3   OH254864   6.063   5.384  11.516  0.4765  0.0325  0.8578
11150TIP3    H154865   6.107   5.314  11.468 -1.3530 -0.3445 -0.3691
11150TIP3    H254866   5.993   5.340  11.563  1.7326  0.5148  3.3638
11151TIP3   OH254867   5.991   5.408  13.615 -0.2289  0.0533  0.0705
11151TIP3    H154868   5.948   5.484  13.654  0.1624 -0.0835  0.7736
11151TIP3    H254869   6.084   5.419  13.635  0.1023  0.3746 -1.4828
11152TIP3   OH254870   5.136   0.628  16.405  0.2271 -0.1827 -0.6639
11152TIP3    H154871   5.203   0.645  16.472 -2.3829 -0.2431  2.1903
11152TIP3    H254872   5.165   0.547  16.362  1.1607 -1.1872  1.6779
11153TIP3   OH254873   5.006   5.785  14.065  0.5875 -0.4369  0.0628
11153TIP3    H154874   5.082   5.728  14.063  1.8349  1.1671 -1.8696
11153TIP3    H254875   4.954   5.759  13.989  0.1758 -0.2771  0.2839
11154TIP3   OH254876   0.359   2.703  13.959  0.3858 -0.6067 -0.0698
11154TIP3    H154877   0.390   2.690  14.049  1.3452 -2.3725 -0.6065
11154TIP3    H254878   0.425   2.661  13.904 -0.3823  0.0886 -1.6033
11155TIP3   OH254879   3.750   0.164  11.919  0.2143  0.0275 -0.4196
11155TIP3    H154880   3.785   0.076  11.909  0.4382  0.0917 -0.2071
11155TIP3    H254881   3.674   0.154  11.977  0.4501  0.0250 -0.1102
11156TIP3   OH254882   1.728   6.237  13.729  0.1801 -0.1236  0.0640
11156TIP3    H154883   1.731   6.331  13.745  0.3393  0.1893 -1.6806
11156TIP3    H254884   1.641   6.210  13.758 -0.3700  0.8104 -0.6890
11157TIP3   OH254885   2.816   0.949   6.161 -0.1225  0.5953 -0.0099
11157TIP3    H154886   2.857   1.028   6.124 -1.2063  1.7904  1.2466
11157TIP3    H254887   2.729   0.947   6.120  0.4821 -0.9419 -1.3242
11158TIP3   OH254888   5.790   1.391   1.519  0.6655 -0.3586  0.1973
11158TIP3    H154889   5.756   1.469   1.564  0.3440 -0.0569 -0.5579
11158TIP3    H254890   5.780   1.320   1.582  0.0967  0.0361  0.5525
11159TIP3   OH254891   0.534   5.592   6.058  0.0063 -0.0544  0.0312
11159TIP3    H154892   0.477   5.598   6.135 -3.6244 -1.0977 -2.3649
11159TIP3    H254893   0.610   5.543   6.090 -1.0160  0.0895  3.0822
11160TIP3   OH254894   1.592   5.820   2.353  0.2710  0.2295 -0.4647
11160TIP3    H154895   1.548   5.880   2.413 -0.6844  0.8875 -1.7661
11160TIP3    H254896   1.676   5.801   2.394  0.6080  2.4531 -0.0038
11161TIP3   OH254897   3.881   6.207  12.332 -0.1089  0.2842  0.3499
11161TIP3    H154898   3.955   6.211  12.393 -0.2246 -0.9017  0.5958
11161TIP3    H254899   3.806   6.183  12.387 -0.1311 -1.2652 -0.3048
11162TIP3   OH254900   6.133   3.695  11.593  0.1989 -0.1406  1.4675
11162TIP3    H154901   6.229   3.688  11.596  0.3009  1.0771  1.1566
11162TIP3    H254902   6.103   3.612  11.631  1.3347 -2.1138 -1.5845
11163TIP3   OH254903   5.571   4.851   3.967 -0.3906  0.0188 -0.0789
11163TIP3    H154904   5.569   4.804   4.050  1.7628 -0.7268 -0.4002
11163TIP3    H254905   5.611   4.936   3.988  1.6508 -0.7632 -0.5527
11164TIP3   OH254906   4.465   5.930  15.465 -0.5411  0.1472 -0.2907
11164TIP3    H154907   4.377   5.893  15.462 -1.4034  1.8530  1.7304
11164TIP3    H254908   4.516   5.864  15.513 -0.5392 -1.0582 -1.8660
11165TIP3   OH254909   2.429   0.377   4.131 -0.1186  0.2649 -0.3565
11165TIP3    H154910   2.359   0.441   4.123 -0.0168  0.6960  1.6380
11165TIP3    H254911   2.500   0.424   4.175 -0.4255 -1.4164  2.1543
11166TIP3   OH254912   2.306   6.743   2.810  0.0782  0.6466  0.5854
11166TIP3    H154913   2.325   6.702   2.895  2.1884 -3.0806 -1.4461
11166TIP3    H254914   2.238   6.687   2.772  1.6463  0.0481 -1.5201
11167TIP3   OH254915   6.443   4.627  13.946  0.1303  0.0856 -0.3695
11167TIP3    H154916   6.475   4.594  13.862  0.7299  1.7743 -0.8515
11167TIP3    H254917   6.519   4.624  14.004 -0.0345 -0.1718 -0.1617
11168TIP3   OH254918   2.620   0.095  13.362  0.1960  0.1516 -0.2471
11168TIP3    H154919   2.532   0.059  13.377  0.4825 -0.0635  1.0588
11168TIP3    H254920   2.675   0.018  13.349  0.5154  0.1793  0.8660
11169TIP3   OH254921   2.493   1.592   0.512 -0.6471  0.3591  0.7172
11169TIP3    H154922   2.404   1.602   0.479 -1.2342 -0.9615  1.7913
11169TIP3    H254923   2.491   1.631   0.600  0.4955  2.4950 -0.1387
11170TIP3   OH254924   4.686   3.494   4.272  0.0753 -0.3047  0.3067
11170TIP3    H154925   4.592   3.510   4.260 -0.2840 -2.5903 -0.3272
11170TIP3    H254926   4.691   3.437   4.349  0.9109 -0.5667  0.0619
11171TIP3   OH254927   3.457   0.050   5.650  0.0141 -0.9054 -0.3976
11171TIP3    H154928   3.369   0.014   5.643  0.3276 -1.8031  0.1200
11171TIP3    H254929   3.446   0.144   5.636 -1.4412 -0.5563  2.4248
11172TIP3   OH254930   3.593   5.220   1.533 -0.0948 -0.7227  0.7020
11172TIP3    H154931   3.648   5.295   1.555 -0.5490 -0.3744  0.6550
11172TIP3    H254932   3.541   5.204   1.612  0.3802 -1.3269  0.8999
11173TIP3   OH254933   2.238   3.095   2.826  0.3617  0.1680 -0.1636
11173TIP3    H154934   2.166   3.034   2.843 -0.8958  2.0928  2.0358
11173TIP3    H254935   2.297   3.084   2.901  0.7594  0.7335 -0.3865
11174TIP3   OH254936   2.453   3.021   5.638 -0.2473  0.1300 -0.5301
11174TIP3    H154937   2.465   3.091   5.702  0.2155 -1.4063  1.1466
11174TIP3    H254938   2.366   3.036   5.602 -0.2144  1.4708 -0.1095
11175TIP3   OH254939   5.579   6.368  13.190 -0.3568 -0.2643  0.5908
11175TIP3    H154940   5.658   6.423  13.188 -0.6756  0.2642  1.6364
11175TIP3    H254941   5.520   6.408  13.127  0.1238 -0.5320 -0.0345
11176TIP3   OH254942   6.260   0.681  12.137 -0.2394  0.5082  0.3565
11176TIP3    H154943   6.336   0.723  12.097 -1.0119  0.8682 -0.7779
11176TIP3    H254944   6.185   0.714  12.088 -0.9089 -2.0223 -0.4605
11177TIP3   OH254945   6.149   0.754  14.107  0.1137  0.6320  0.1918
11177TIP3    H154946   6.070   0.750  14.160  0.8271  1.8268  1.3974
11177TIP3    H254947   6.221   0.750  14.170  0.9851  2.4253 -0.6385
11178TIP3   OH254948   6.736   3.037  13.032 -0.3706 -0.0248  0.7490
11178TIP3    H154949   6.669   3.102  13.055  1.0116  1.7318  0.0417
11178TIP3    H254950   6.749   2.987  13.113 -3.5790 -1.5060  0.4992
11179TIP3   OH254951   5.799   0.057  11.551  0.0848 -0.0041 -0.0759
11179TIP3    H154952   5.849   0.001  11.609 -0.3652 -1.5857 -1.1458
11179TIP3    H254953   5.792   0.141  11.597  1.3709 -0.6020  1.2549
11180TIP3   OH254954   1.955   6.119   5.478  0.0576  0.3267 -0.8124
11180TIP3    H154955   1.973   6.079   5.564  1.3612 -0.0724 -1.2522
11180TIP3    H254956   1.956   6.213   5.496 -0.7050  0.2324 -0.2049
11181TIP3   OH254957   3.737   4.720  13.668  1.2512 -0.1188 -0.1664
11181TIP3    H154958   3.667   4.674  13.621  1.0980  1.1877 -1.2813
11181TIP3    H254959   3.810   4.721  13.606  1.4958  0.4853  0.1262
11182TIP3   OH254960   4.775   6.296  14.334  0.4855  0.5131  0.3452
11182TIP3    H154961   4.718   6.351  14.280 -1.3525 -1.4059  0.2215
11182TIP3    H254962   4.784   6.345  14.416  2.6521  3.0954 -1.2337
11183TIP3   OH254963   3.083   6.683  11.101  0.7995 -0.5576  0.6362
11183TIP3    H154964   3.000   6.727  11.079 -0.8237 -2.9938  1.4527
11183TIP3    H254965   3.064   6.590  11.090  3.5747 -1.1988  0.5580
11184TIP3   OH254966   5.583   1.504  13.121 -0.4185  0.0765  0.2559
11184TIP3    H154967   5.507   1.480  13.069 -0.7722 -0.3981  0.9652
11184TIP3    H254968   5.645   1.541  13.058 -1.0990  0.1561 -0.3796
11185TIP3   OH254969   2.591   1.674  12.107  0.1223  0.1936  0.3697
11185TIP3    H154970   2.674   1.627  12.101  0.5315  0.8886  0.4502
11185TIP3    H254971   2.565   1.691  12.016  0.0919  0.0210  0.3458
11186TIP3   OH254972   6.623   4.076   4.772  0.2736  0.1902  0.1103
11186TIP3    H154973   6.688   4.139   4.744 -0.4042  0.2114 -1.4970
11186TIP3    H254974   6.630   4.075   4.868 -0.2540  3.3027  0.2686
11187TIP3   OH254975   1.204   4.722  15.635 -0.2561  0.3962 -0.2384
11187TIP3    H154976   1.129   4.762  15.591  0.9178  3.0239 -0.0834
11187TIP3    H254977   1.242   4.663  15.569 -0.7707  1.2796 -1.3669
11188TIP3   OH254978   2.466   4.719   4.151 -0.0378  0.2088  0.1598
11188TIP3    H154979   2.466   4.630   4.187  0.0744 -0.1531 -0.7101
11188TIP3    H254980   2.412   4.769   4.211 -1.4966 -0.8239 -0.2411
11189TIP3   OH254981   2.892   2.374  14.609  0.0592 -0.2219  0.2148
11189TIP3    H154982   2.834   2.434  14.657  2.0643  0.5858  1.7834
11189TIP3    H254983   2.835   2.302  14.583 -1.8125  0.9117  0.9508
11190TIP3   OH254984   1.201   5.322  15.140 -0.3687  0.0925  0.6754
11190TIP3    H154985   1.229   5.241  15.097 -0.8812  0.5978 -0.6652
11190TIP3    H254986   1.236   5.392  15.085 -0.5932  0.7745  1.3864
11191TIP3   OH254987   1.990   1.354   1.463 -0.0143 -0.6005  0.1165
11191TIP3    H154988   2.045   1.430   1.484 -1.2800  0.6256 -0.8379
11191TIP3    H254989   1.942   1.381   1.385 -0.3804 -2.4726 -0.3306
11192TIP3   OH254990   4.229   6.272  11.984  0.5667 -0.3703 -0.1732
11192TIP3    H154991   4.244   6.336  11.914  1.7269 -0.5797 -0.1278
11192TIP3    H254992   4.173   6.318  12.047  1.7429  0.7615  0.0716
11193TIP3   OH254993   5.848   6.727   0.331 -0.6441  0.6618 -0.0420
11193TIP3    H154994   5.781   6.676   0.284 -0.6130 -0.5380  1.1686
11193TIP3    H254995   5.885   6.666   0.394  0.5188  1.7624  0.3780
11194TIP3   OH254996   1.044   4.822   4.231  0.1740 -0.1937 -0.0040
11194TIP3    H154997   1.066   4.751   4.172  1.4701  0.3032 -0.1562
11194TIP3    H254998   1.010   4.891   4.174 -0.4836 -0.4521  0.0712
11195TIP3   OH254999   1.398   1.025   5.505  0.6006  0.1044 -0.2695
11195TIP3    H155000   1.394   1.072   5.588  0.5847 -1.1352  0.4592
11195TIP3    H255001   1.489   0.997   5.497  0.7732  0.8538 -1.0516
11196TIP3   OH255002   4.710   1.750  16.913  0.2007  0.4911  0.2007
11196TIP3    H155003   4.716   1.837  16.874  0.8299 -0.6706 -2.5058
11196TIP3    H255004   4.798   1.713  16.902 -0.2596 -0.7637  0.6140
11197TIP3   OH255005   2.752   1.221  12.210 -0.0353  0.8575  0.2827
11197TIP3    H155006   2.688   1.275  12.255 -1.4937  0.2689 -0.9879
11197TIP3    H255007   2.704   1.142  12.187  1.1486  0.4118 -0.7486
11198TIP3   OH255008   2.580   0.924  13.787  0.2652 -0.8121  0.1992
11198TIP3    H155009   2.503   0.870  13.773  0.0721 -0.6036  0.4393
11198TIP3    H255010   2.554   0.987  13.854  0.1739  0.1750 -0.7252
11199TIP3   OH255011   4.154   4.512  12.550 -0.1704 -0.6195 -0.1475
11199TIP3    H155012   4.075   4.562  12.571 -0.5144 -1.0180 -0.4697
11199TIP3    H255013   4.184   4.478  12.634  0.7099  1.0277  0.2625
11200TIP3   OH255014   4.083   6.212   0.672 -0.2518 -0.0618 -0.3968
11200TIP3    H155015   4.066   6.177   0.759 -0.6497  0.2612 -0.3444
11200TIP3    H255016   4.064   6.140   0.613 -0.2085 -0.2078 -0.2332
11201TIP3   OH255017   4.566   5.174   1.019  0.1804 -0.2145  0.2711
11201TIP3    H155018   4.606   5.200   0.936  1.2771 -2.9967 -0.1927
11201TIP3    H255019   4.483   5.132   0.994  1.2983 -2.6366  0.2760
11202TIP3   OH255020   5.610   4.727   0.929  0.5286  0.3406  0.0133
11202TIP3    H155021   5.585   4.751   1.018 -1.0940 -1.1092  0.0134
11202TIP3    H255022   5.618   4.810   0.882  0.7950  1.0926  1.3478
11203TIP3   OH255023   0.183   6.450  14.405  0.4126 -0.2015  0.1897
11203TIP3    H155024   0.172   6.427  14.312 -0.7692 -0.3826  0.3656
11203TIP3    H255025   0.111   6.405  14.450  0.6226  0.3730  1.1210
11204TIP3   OH255026   0.723   0.307  13.310 -0.3525  0.7874 -0.0815
11204TIP3    H155027   0.743   0.399  13.326  1.5310  0.2648  0.8801
11204TIP3    H255028   0.663   0.282  13.380  1.4774  0.5909  1.5261
11205TIP3   OH255029   4.564   2.080  13.133  0.1662 -0.2246 -0.3179
11205TIP3    H155030   4.601   2.039  13.212 -1.4302 -1.7169 -0.2865
11205TIP3    H255031   4.472   2.056  13.134 -0.0349  0.2651 -2.3146
11206TIP3   OH255032   3.044   1.608   1.428  0.2601 -0.0236 -0.2524
11206TIP3    H155033   2.977   1.628   1.493  0.5711  1.3838 -0.3338
11206TIP3    H255034   3.124   1.593   1.479  1.0281  3.1887 -0.3008
11207TIP3   OH255035   1.599   1.393  12.357  0.1341 -0.4628 -0.1369
11207TIP3    H155036   1.512   1.359  12.335  1.0361 -3.0807 -0.0620
11207TIP3    H255037   1.594   1.410  12.451 -0.1514 -1.1303 -0.0225
11208TIP3   OH255038   6.083   5.603  15.066 -0.1996 -0.2247 -0.0785
11208TIP3    H155039   6.074   5.591  15.161 -0.3361  0.9146  0.0690
11208TIP3    H255040   6.171   5.571  15.046 -0.7282 -1.8950  0.1692
11209TIP3   OH255041   5.663   6.574   1.161 -0.2134 -0.5077 -0.2788
11209TIP3    H155042   5.624   6.642   1.106 -2.5232 -1.2897  0.2892
11209TIP3    H255043   5.701   6.512   1.098  2.0552  1.2720 -0.8010
11210TIP3   OH255044   2.383   2.307  12.323 -0.1786 -0.2424  0.4802
11210TIP3    H155045   2.335   2.286  12.243  1.1222  1.7818 -0.9253
11210TIP3    H255046   2.316   2.309  12.391 -1.2245 -2.6815 -0.3847
11211TIP3   OH255047   5.982   3.326  15.256 -0.2892  0.0039  0.3289
11211TIP3    H155048   6.015   3.274  15.183  0.6381  0.2167  0.5802
11211TIP3    H255049   5.937   3.400  15.216 -0.2447 -0.1625 -0.0255
11212TIP3   OH255050   6.786   4.624  12.136  0.1654  0.2869  0.8407
11212TIP3    H155051   6.844   4.691  12.098 -0.2094 -1.2766 -2.8626
11212TIP3    H255052   6.832   4.595  12.215  3.3577  0.6815 -0.7179
11213TIP3   OH255053   5.875   3.800  15.706 -0.8482 -0.2517  0.0109
11213TIP3    H155054   5.848   3.710  15.727  0.1248 -0.3259  1.0136
11213TIP3    H255055   5.877   3.845  15.791 -0.6930  0.5432 -0.4044
11214TIP3   OH255056   1.218   3.373   0.372 -0.2320 -0.5734 -0.0708
11214TIP3    H155057   1.266   3.445   0.330  0.9267 -0.7930  0.8191
11214TIP3    H255058   1.283   3.333   0.430 -1.1672 -1.6808  0.2237
11215TIP3   OH255059   2.628   3.953   1.199 -0.3008  0.2784 -0.0220
11215TIP3    H155060   2.711   3.905   1.200 -0.0295  0.7525  0.4307
11215TIP3    H255061   2.637   4.018   1.268  0.0579  2.1964 -1.7979
11216TIP3   OH255062   6.386   6.058   2.126  0.2736 -0.6870  0.0529
11216TIP3    H155063   6.308   6.013   2.159 -0.7058 -0.2985 -1.6294
11216TIP3    H255064   6.388   6.039   2.032  2.1407 -0.5656  0.0170
11217TIP3   OH255065   3.122   3.355   3.891  0.6428 -0.4030  0.3066
11217TIP3    H155066   3.141   3.384   3.980 -0.7358 -0.3765  0.6207
11217TIP3    H255067   3.128   3.260   3.895 -1.3292 -0.5480  0.9578
11218TIP3   OH255068   1.996   2.861   4.174  0.1314  0.1197 -0.1215
11218TIP3    H155069   1.914   2.814   4.161  0.4532 -1.2981  2.4191
11218TIP3    H255070   2.041   2.853   4.090 -1.5437 -0.6171 -1.0039
11219TIP3   OH255071   1.365   6.591   4.547 -0.4935 -0.0219 -0.4867
11219TIP3    H155072   1.456   6.620   4.547 -0.5712  0.2350  0.1523
11219TIP3    H255073   1.350   6.557   4.635 -1.6343  1.9395  0.1406
11220TIP3   OH255074   6.432   0.711   2.209 -0.0737  0.4259 -0.7403
11220TIP3    H155075   6.453   0.629   2.165  0.4113 -0.4142  0.9593
11220TIP3    H255076   6.346   0.695   2.249  0.4998  0.3254  0.5035
11221TIP3   OH255077   6.543   1.484   5.807  0.3546 -1.3949 -0.0793
11221TIP3    H155078   6.639   1.479   5.799  0.4145 -1.8126  0.8333
11221TIP3    H255079   6.511   1.447   5.724  0.9764 -1.3928 -0.3298
11222TIP3   OH255080   3.899   0.560   6.466  0.3191  0.4502  0.5474
11222TIP3    H155081   3.838   0.633   6.476 -0.7700 -0.4365  0.5982
11222TIP3    H255082   3.867   0.493   6.526  1.1807 -0.1580  0.3564
11223TIP3   OH255083   3.076   0.653   0.864 -0.0014 -0.1400  0.0610
11223TIP3    H155084   3.166   0.665   0.832  0.1922  1.0544  0.9682
11223TIP3    H255085   3.052   0.739   0.898 -0.1563 -1.3070  3.1937
11224TIP3   OH255086   5.236   2.944   1.988 -1.0004  0.1401  0.1777
11224TIP3    H155087   5.233   3.038   2.004 -1.6510  0.3981 -1.3373
11224TIP3    H255088   5.178   2.907   2.055 -2.2534  1.0094 -0.3973
11225TIP3   OH255089   2.525   1.782  16.720 -0.2476 -0.2878  0.1810
11225TIP3    H155090   2.591   1.773  16.651  0.1665  0.2652  0.4976
11225TIP3    H255091   2.479   1.699  16.719 -0.4913 -0.1608 -1.0083
11226TIP3   OH255092   2.589   6.407   3.490  0.6793  0.2367  0.3388
11226TIP3    H155093   2.627   6.320   3.476 -2.0235 -1.3721  2.1211
11226TIP3    H255094   2.510   6.409   3.436  1.3589  2.1728 -0.6881
11227TIP3   OH255095   3.396   2.300   3.767  0.4020  0.8416  0.1889
11227TIP3    H155096   3.425   2.221   3.812  1.7642 -0.5881 -2.9044
11227TIP3    H255097   3.301   2.300   3.777  0.3015 -1.5865 -0.2405
11228TIP3   OH255098   3.623   2.488  16.204  0.2217  0.2092  1.1320
11228TIP3    H155099   3.660   2.407  16.170 -0.2283  0.9426 -1.3153
11228TIP3    H255100   3.671   2.557  16.157 -0.2446  1.3350  2.2556
11229TIP3   OH255101   0.564   4.254   5.311  0.3380  0.2277  0.0752
11229TIP3    H155102   0.498   4.301   5.362  0.1106 -0.3004  0.2774
11229TIP3    H255103   0.554   4.287   5.222  0.2900  0.6728  0.2437
11230TIP3   OH255104   4.466   5.602  12.936  0.1955  0.1609  0.1198
11230TIP3    H155105   4.434   5.532  12.879  0.7122  0.8527 -1.0788
11230TIP3    H255106   4.495   5.671  12.875  0.1651  1.2083  1.2473
11231TIP3   OH255107   3.303   6.189  11.370 -0.1407 -0.6341  0.3408
11231TIP3    H155108   3.299   6.102  11.409  1.1231 -1.5234 -1.3817
11231TIP3    H255109   3.212   6.212  11.354 -0.4804 -1.8406  0.4256
11232TIP3   OH255110   2.004   5.290   1.700 -0.1493 -0.0664 -0.6063
11232TIP3    H155111   1.994   5.299   1.605 -1.0006 -0.3666 -0.5505
11232TIP3    H255112   1.916   5.270   1.732  0.3451 -1.1852  0.1065
11233TIP3   OH255113   1.740   5.179  11.594  0.0387  0.7548  0.0644
11233TIP3    H155114   1.814   5.120  11.610 -1.5199 -1.0383  1.1364
11233TIP3    H255115   1.739   5.237  11.670  0.2591  0.6927  0.1162
11234TIP3   OH255116   5.440   3.170  16.256 -0.4634  0.0577 -0.0959
11234TIP3    H155117   5.465   3.078  16.251  0.5513  0.3964 -1.7681
11234TIP3    H255118   5.432   3.198  16.165  1.1682  2.1242  0.3342
11235TIP3   OH255119   4.709   3.895  16.856  0.4487 -0.1892 -0.3079
11235TIP3    H155120   4.669   3.971  16.899  0.7559  1.4853 -2.7587
11235TIP3    H255121   4.635   3.844  16.824  0.2047  0.9262 -1.6016
11236TIP3   OH255122   2.916   6.619  12.757  0.1189  0.1712  0.6993
11236TIP3    H155123   2.919   6.677  12.681  1.5405  0.9614  1.3142
11236TIP3    H255124   2.823   6.612  12.779 -0.1335  1.6809  0.2062
11237TIP3   OH255125   6.385   3.579  12.654  0.2263  0.0178 -0.4022
11237TIP3    H155126   6.336   3.582  12.572  0.8423 -0.4694 -0.7965
11237TIP3    H255127   6.432   3.662  12.657  1.4885 -0.6353 -1.3636
11238TIP3   OH255128   6.083   6.123  15.697  0.0724 -0.2637  0.6928
11238TIP3    H155129   6.064   6.196  15.638  1.4402 -0.7740 -0.4279
11238TIP3    H255130   6.064   6.044  15.645 -1.3525 -0.7292  1.8724
11239TIP3   OH255131   1.352   3.041  11.127  0.0638  0.3420 -0.2042
11239TIP3    H155132   1.332   2.970  11.189  0.4886 -1.1387 -1.6840
11239TIP3    H255133   1.309   3.015  11.046  2.4622  0.3564 -1.5818
11240TIP3   OH255134   3.426   0.356   2.326 -0.0978  0.1642  0.3481
11240TIP3    H155135   3.431   0.278   2.381 -0.8395 -0.9355 -1.0763
11240TIP3    H255136   3.419   0.429   2.388  1.2679 -0.8123  1.7271
11241TIP3   OH255137   5.982   4.003  14.026 -0.5676 -0.1097 -0.3747
11241TIP3    H155138   5.892   4.004  14.060 -0.3580  1.6832  0.2335
11241TIP3    H255139   6.001   3.910  14.012 -1.5431 -0.7588  2.0882
11242TIP3   OH255140   2.466   5.172   3.936 -0.1197 -0.5578 -0.2964
11242TIP3    H155141   2.554   5.149   3.907 -0.1480 -1.2996  0.1856
11242TIP3    H255142   2.468   5.159   4.031 -0.3373  0.7983 -0.0740
11243TIP3   OH255143   6.428   0.598   0.462  0.0768  0.5267 -0.0087
11243TIP3    H155144   6.454   0.537   0.532  0.1235  2.1113  1.4221
11243TIP3    H255145   6.491   0.582   0.392  1.9339  0.9074  1.4804
11244TIP3   OH255146   3.095   2.600  16.204  0.1403 -0.1176 -0.0987
11244TIP3    H155147   3.089   2.663  16.276 -0.9762 -0.9900  0.6013
11244TIP3    H255148   3.004   2.585  16.178  0.5485  0.6684 -2.1438
11245TIP3   OH255149   4.626   5.006   1.400 -0.3736  0.1289 -0.0937
11245TIP3    H155150   4.663   5.013   1.312  0.5311 -1.0172  0.1634
11245TIP3    H255151   4.547   4.953   1.389 -0.4032  0.2050 -0.2486
11246TIP3   OH255152   3.633   3.376  14.582 -0.4791 -0.0847  0.7637
11246TIP3    H155153   3.576   3.311  14.622 -0.4372 -0.5031  0.1561
11246TIP3    H255154   3.721   3.339  14.593 -0.3508  0.3865  1.3753
11247TIP3   OH255155   5.892   0.464   6.011 -0.1001 -0.0676  0.0471
11247TIP3    H155156   5.888   0.550   6.054  0.0835  0.4178 -0.8773
11247TIP3    H255157   5.949   0.411   6.067  1.5181  1.0630 -0.4691
11248TIP3   OH255158   6.292   5.264   1.974  0.7556  0.3004  0.1318
11248TIP3    H155159   6.303   5.350   2.016 -0.5541 -0.1414  1.4864
11248TIP3    H255160   6.267   5.206   2.046  1.3307 -1.1558 -0.8201
11249TIP3   OH255161   4.377   5.955  12.390  0.3784 -0.1691  0.6357
11249TIP3    H155162   4.452   6.015  12.390 -0.0749  0.5342 -2.3969
11249TIP3    H255163   4.411   5.873  12.356 -0.1396  0.0672 -0.4838
11250TIP3   OH255164   5.739   1.664   0.922 -0.3272 -0.9726 -0.0267
11250TIP3    H155165   5.784   1.622   0.849 -1.0865  0.6686 -1.5299
11250TIP3    H255166   5.802   1.661   0.994  1.7876  0.2106 -1.6930
11251TIP3   OH255167   4.043   0.313   5.618  0.1976  0.2532  0.2432
11251TIP3    H155168   4.081   0.243   5.672 -0.2177 -0.2186 -0.0687
11251TIP3    H255169   3.993   0.267   5.551 -2.4050  0.8333  1.6477
11252TIP3   OH255170   5.583   4.452  13.295 -0.2209 -0.0155  0.1603
11252TIP3    H155171   5.541   4.517  13.351  0.2426 -1.0790  1.7934
11252TIP3    H255172   5.576   4.370  13.343 -0.5203 -1.1381 -1.7272
11253TIP3   OH255173   5.879   2.030  13.604  0.2554  0.1932 -0.3391
11253TIP3    H155174   5.884   1.949  13.655  0.3198 -0.1088 -0.8143
11253TIP3    H255175   5.958   2.028  13.550  1.3087  1.5523  1.0624
11254TIP3   OH255176   2.433   2.064  13.370 -0.2322  0.5183 -0.4060
11254TIP3    H155177   2.483   2.056  13.451 -0.9811  0.5661  0.0746
11254TIP3    H255178   2.450   2.154  13.341  1.7640 -0.1484 -1.4936
11255TIP3   OH255179   5.301   1.588  15.692 -0.2978 -0.1499  0.0785
11255TIP3    H155180   5.368   1.644  15.652 -1.3129  0.6198 -0.5823
11255TIP3    H255181   5.321   1.589  15.786 -0.1686  1.1377  0.0428
11256TIP3   OH255182   0.299   5.600   1.486 -0.3253  0.2336  0.3280
11256TIP3    H155183   0.309   5.674   1.426 -0.6613  1.4228  1.6840
11256TIP3    H255184   0.266   5.529   1.431  1.6126  0.5497 -1.3416
11257TIP3   OH255185   2.710   2.297  16.352 -0.4778  0.3003  0.0325
11257TIP3    H155186   2.773   2.274  16.420  0.2445  0.5988 -0.5125
11257TIP3    H255187   2.669   2.214  16.328 -0.0660  0.0524  0.1788
11258TIP3   OH255188   1.612   1.897   4.353  0.0256 -0.5166  0.1724
11258TIP3    H155189   1.668   1.942   4.289 -0.1998 -0.1631  0.2201
11258TIP3    H255190   1.553   1.965   4.385 -1.2387 -1.1124 -0.7591
11259TIP3   OH255191   0.248   1.715   4.309  1.6599 -0.6508 -0.3577
11259TIP3    H155192   0.267   1.698   4.217  0.6736  0.5547 -0.8085
11259TIP3    H255193   0.184   1.786   4.308  0.5151 -1.5779  1.2006
11260TIP3   OH255194   4.023   1.985  13.142 -0.8088 -0.1774  0.3473
11260TIP3    H155195   4.015   1.936  13.224 -0.3962  0.8379  1.0108
11260TIP3    H255196   4.037   2.076  13.170 -0.9298  0.2192 -0.8516
11261TIP3   OH255197   5.437   4.533  17.124  0.2537  0.7184  0.1313
11261TIP3    H155198   5.513   4.585  17.153  3.0879 -2.9839  0.0548
11261TIP3    H255199   5.430   4.551  17.031  1.7571  0.4315 -0.0738
11262TIP3   OH255200   1.954   4.508   2.709  0.2016 -0.4069 -0.2741
11262TIP3    H155201   1.966   4.452   2.786 -0.5330 -1.8883 -1.1892
11262TIP3    H255202   1.968   4.597   2.741 -1.8823 -0.7887  2.0130
11263TIP3   OH255203   5.187   0.086  12.177  0.4024  0.5974 -0.6097
11263TIP3    H155204   5.106   0.136  12.189 -0.7415 -0.7909 -2.0203
11263TIP3    H255205   5.178   0.012  12.237  0.6585  0.4983 -0.6943
11264TIP3   OH255206   2.211   1.171   0.890 -0.6057  0.7543  0.6337
11264TIP3    H155207   2.254   1.216   0.962 -0.0486  0.5806  0.4110
11264TIP3    H255208   2.274   1.105   0.862 -2.2494 -1.7416  2.4403
11265TIP3   OH255209   0.674   5.048   5.515  0.1450  0.0222 -0.2546
11265TIP3    H155210   0.686   5.099   5.435 -0.7259 -1.8875 -1.6824
11265TIP3    H255211   0.630   5.108   5.575  1.4932  1.7397 -0.8779
11266TIP3   OH255212   3.370   1.212  11.077 -0.2829  0.6439 -0.4234
11266TIP3    H155213   3.451   1.162  11.071 -1.8722 -1.9098 -3.8215
11266TIP3    H255214   3.315   1.162  11.137 -0.2658  0.9508 -0.1465
11267TIP3   OH255215   6.097   3.291   3.647 -0.0679  0.5114 -0.2074
11267TIP3    H155216   6.185   3.274   3.612 -0.9144  2.3672 -3.7259
11267TIP3    H255217   6.043   3.221   3.610 -0.6157  1.2797 -0.8950
11268TIP3   OH255218   6.035   5.432  16.911 -0.5131  0.0474 -1.0163
11268TIP3    H155219   6.105   5.409  16.972  0.2892  0.4997 -1.7389
11268TIP3    H255220   6.037   5.362  16.845 -0.2122  0.4585 -1.4550
11269TIP3   OH255221   2.874   0.483  12.160  0.0492 -0.5530 -0.0164
11269TIP3    H155222   2.955   0.467  12.208  0.6791  0.3615 -0.7479
11269TIP3    H255223   2.890   0.445  12.074 -0.0826  0.1298 -0.3452
11270TIP3   OH255224   5.163   5.689   4.115  0.3375  0.4358  0.5980
11270TIP3    H155225   5.123   5.749   4.051 -1.1711  0.0416  1.1125
11270TIP3    H255226   5.252   5.676   4.084  0.2679  1.8542 -0.2947
11271TIP3   OH255227   3.962   5.096  16.097 -0.1735 -0.0205  0.4284
11271TIP3    H155228   3.915   5.179  16.090 -1.7827 -0.9693 -0.9505
11271TIP3    H255229   3.900   5.031  16.063  2.1565 -1.3653 -1.5124
11272TIP3   OH255230   4.620   6.387  13.343  0.2747 -0.2364  0.0652
11272TIP3    H155231   4.528   6.399  13.322  0.2698  1.0260  0.7253
11272TIP3    H255232   4.655   6.476  13.349  1.2542 -0.6626  1.0570
11273TIP3   OH255233   5.115   3.733   4.043  0.0254  0.9136  0.2845
11273TIP3    H155234   5.128   3.697   3.955  3.8357 -0.1751  1.1015
11273TIP3    H255235   5.066   3.665   4.089  1.0847 -0.1399 -0.0958
11274TIP3   OH255236   3.115   1.428  13.054  0.2125  0.1655 -0.1502
11274TIP3    H155237   3.106   1.333  13.045  1.2404  0.0914 -0.5942
11274TIP3    H255238   3.083   1.464  12.971 -2.1814  0.3896  0.7932
11275TIP3   OH255239   3.225   2.569  13.241  0.7402 -0.4680 -0.1371
11275TIP3    H155240   3.314   2.544  13.267  1.5655  0.6792 -1.6650
11275TIP3    H255241   3.213   2.656  13.279  0.6993 -0.1758 -0.7972
11276TIP3   OH255242   0.706   0.467   6.582  0.4386  0.2345  0.2644
11276TIP3    H155243   0.764   0.518   6.638  1.1756  0.3750 -0.6007
11276TIP3    H255244   0.630   0.524   6.566  0.2961  0.2509  0.9738
11277TIP3   OH255245   0.845   2.289  12.367  0.4595 -0.4084  0.1985
11277TIP3    H155246   0.931   2.261  12.335  1.3134  0.3284  1.7723
11277TIP3    H255247   0.831   2.374  12.326  0.9912 -0.0291  0.7873
11278TIP3   OH255248   3.017   5.524   5.090 -0.5892  0.1826  0.1228
11278TIP3    H155249   2.934   5.563   5.063 -0.6543 -0.1888 -0.2140
11278TIP3    H255250   3.079   5.597   5.092 -0.5501  0.1964 -1.1538
11279TIP3   OH255251   6.447   1.428   2.900 -0.1978  0.6946  0.1879
11279TIP3    H155252   6.378   1.410   2.965  0.4332 -1.1304  0.4021
11279TIP3    H255253   6.504   1.492   2.943 -0.4665  0.4367  0.9519
11280TIP3   OH255254   2.120   5.855  14.299  0.5853 -0.0623  0.1371
11280TIP3    H155255   2.041   5.895  14.262  0.6545 -0.5540 -0.5586
11280TIP3    H255256   2.186   5.863  14.230  0.1028 -3.0077 -0.8080
11281TIP3   OH255257   1.687   5.885   3.784 -0.3673 -0.1029  0.6074
11281TIP3    H155258   1.697   5.880   3.688  2.2431  0.0437  0.7835
11281TIP3    H255259   1.726   5.804   3.816 -1.0498 -0.0660  1.5544
11282TIP3   OH255260   2.101   0.132  16.486  0.2000 -0.2420  0.0488
11282TIP3    H155261   2.176   0.147  16.544 -1.2562  1.6477  1.5943
11282TIP3    H255262   2.117   0.189  16.411 -0.3386  1.3547  1.0876
11283TIP3   OH255263   3.911   4.762   6.855  0.1075 -0.2453 -0.9542
11283TIP3    H155264   3.904   4.667   6.868  1.9765 -0.2059  0.8695
11283TIP3    H255265   3.971   4.772   6.780  0.7277 -0.5367 -0.5091
11284TIP3   OH255266   1.211   5.495   4.026 -0.3641 -0.0430  0.2311
11284TIP3    H155267   1.151   5.562   3.992 -1.1066  0.8233  2.9588
11284TIP3    H255268   1.237   5.445   3.949 -4.0611 -0.0417 -1.2239
11285TIP3   OH255269   2.716   5.873  16.792  0.1194  0.3116 -0.7194
11285TIP3    H155270   2.649   5.822  16.746 -1.4259  0.1139  1.5434
11285TIP3    H255271   2.690   5.868  16.884  1.3229  3.1441 -0.1218
11286TIP3   OH255272   6.025   5.125   3.959 -0.0194 -0.1899  0.2348
11286TIP3    H155273   6.077   5.045   3.947 -1.6297 -1.1194 -0.9790
11286TIP3    H255274   6.085   5.186   4.002  1.3361 -1.9722  1.0432
11287TIP3   OH255275   0.462   1.105   3.631 -0.6026 -0.1819  0.0508
11287TIP3    H155276   0.472   1.109   3.536  1.8537 -2.3487  0.1116
11287TIP3    H255277   0.550   1.121   3.665 -1.6097  1.4903  2.0508
11288TIP3   OH255278   5.964   2.413   1.831  0.0351  0.1345  0.1962
11288TIP3    H155279   5.899   2.394   1.764  0.7497  0.0015 -0.4801
11288TIP3    H255280   6.039   2.449   1.783  1.0039 -1.0274  0.7801
11289TIP3   OH255281   4.179   0.726  12.801 -0.1384 -0.4671 -0.3368
11289TIP3    H155282   4.093   0.685  12.797  1.0898 -3.2210 -0.5957
11289TIP3    H255283   4.225   0.680  12.871  1.6128 -0.0797 -1.1623
11290TIP3   OH255284   1.852   0.899  14.074 -0.8223  0.5871  0.2120
11290TIP3    H155285   1.857   0.828  14.139 -1.2370  0.4536  0.1007
11290TIP3    H255286   1.886   0.976  14.120 -1.5750  0.6042  0.7512
11291TIP3   OH255287   3.576   6.167   1.530  0.2058  0.1789  0.0238
11291TIP3    H155288   3.589   6.156   1.624 -0.1299  0.1147  0.0633
11291TIP3    H255289   3.654   6.127   1.490 -0.9392 -2.4046  0.1600
11292TIP3   OH255290   5.281   5.764  15.009  0.2972  0.0584 -0.0687
11292TIP3    H155291   5.288   5.778  14.914 -1.6986 -0.0585 -0.2878
11292TIP3    H255292   5.250   5.674  15.017  0.6985 -0.0177  0.7231
11293TIP3   OH255293   4.096   4.091   2.139 -0.6794 -0.2895  0.1463
11293TIP3    H155294   4.069   4.029   2.206  0.1863 -0.4417  0.3672
11293TIP3    H255295   4.140   4.038   2.073 -1.0621 -0.0751 -0.2840
11294TIP3   OH255296   1.555   0.936   5.853  0.1338 -0.0765  0.3343
11294TIP3    H155297   1.534   1.026   5.878  0.0459  0.2098 -0.7307
11294TIP3    H255298   1.471   0.895   5.835  0.2917  0.8597 -3.2120
11295TIP3   OH255299   6.593   6.562  14.489 -0.0728 -0.5057  0.0568
11295TIP3    H155300   6.612   6.477  14.449  2.1297 -0.2371  0.3935
11295TIP3    H255301   6.593   6.623  14.415  2.3509 -0.2561  0.1875
11296TIP3   OH255302   0.909   5.952   5.319  0.0833  0.3174  0.1447
11296TIP3    H155303   0.978   5.987   5.376 -0.1489  2.4091 -0.7712
11296TIP3    H255304   0.949   5.875   5.279  1.4147  0.7011  0.6506
11297TIP3   OH255305   1.103   6.244   4.298  0.1150 -0.1710 -0.2941
11297TIP3    H155306   1.033   6.188   4.330  0.6089  0.3494  1.8420
11297TIP3    H255307   1.123   6.209   4.211 -1.4322 -1.5645 -0.1425
11298TIP3   OH255308   1.324   0.585  12.622 -0.0925 -0.6067  0.4543
11298TIP3    H155309   1.379   0.642  12.568 -1.0096  0.4702  0.6153
11298TIP3    H255310   1.262   0.645  12.663 -1.0027 -1.7245  0.7389
11299TIP3   OH255311   3.254   2.940  16.143 -0.1809 -0.4363 -0.3016
11299TIP3    H155312   3.178   2.938  16.202  0.0266 -1.4922 -0.0510
11299TIP3    H255313   3.303   3.017  16.171 -1.0950  0.1892 -0.3839
11300TIP3   OH255314   2.239   3.540   5.554  0.1905  0.5890 -0.1734
11300TIP3    H155315   2.306   3.577   5.612 -1.3380  2.3842  0.5692
11300TIP3    H255316   2.269   3.561   5.466  0.7816  1.1096  0.1419
11301TIP3   OH255317   6.133   5.110   2.708 -0.1276 -0.4810  0.0239
11301TIP3    H155318   6.109   5.202   2.694  2.1126  0.3221  0.9620
11301TIP3    H255319   6.075   5.081   2.778 -1.1864  0.0647 -0.6065
11302TIP3   OH255320   2.598   2.185   4.837 -0.1816 -0.9841  0.2520
11302TIP3    H155321   2.558   2.155   4.755 -1.6442 -1.6530  1.1825
11302TIP3    H255322   2.563   2.273   4.849 -0.7386 -1.2526  0.6379
11303TIP3   OH255323   1.718   4.033  12.439 -0.1439 -0.1673  0.1868
11303TIP3    H155324   1.670   4.055  12.518 -0.4436  0.2082 -0.0984
11303TIP3    H255325   1.805   4.007  12.470 -0.8398 -1.8636  0.7863
11304TIP3   OH255326   6.326   0.981   0.266  0.7564 -0.1772 -0.6294
11304TIP3    H155327   6.418   1.007   0.259  1.1262 -1.0568  0.6340
11304TIP3    H255328   6.324   0.892   0.231  0.9236 -1.1510  1.6697
11305TIP3   OH255329   0.387   1.731   0.560  0.2865 -0.1994  0.6927
11305TIP3    H155330   0.419   1.641   0.555  0.2107 -0.2424  0.9529
11305TIP3    H255331   0.313   1.733   0.500  1.6702  0.2979 -1.1056
11306TIP3   OH255332   0.479   6.662   1.120 -0.8447  0.4385 -0.2564
11306TIP3    H155333   0.568   6.658   1.153 -0.9666 -0.1831  0.0094
11306TIP3    H255334   0.476   6.598   1.048 -1.6047 -1.0982  1.0723
11307TIP3   OH255335   1.702   6.742  12.582  0.0967  0.0933  0.1845
11307TIP3    H155336   1.693   6.664  12.636  0.2518 -0.8880 -1.1434
11307TIP3    H255337   1.794   6.742  12.556  0.6552  1.9501  1.8936
11308TIP3   OH255338   0.641   3.579  11.910  0.3235 -0.3403  0.0299
11308TIP3    H155339   0.610   3.670  11.905  2.8285  0.5570 -1.0546
11308TIP3    H255340   0.640   3.558  12.003 -3.1690 -0.3697  0.1088
11309TIP3   OH255341   2.975   1.899   3.172 -0.1976 -0.4968 -0.5784
11309TIP3    H155342   2.987   1.807   3.149 -1.8370 -1.0017  0.4109
11309TIP3    H255343   2.923   1.897   3.252 -0.4641  1.2956 -0.6702
11310TIP3   OH255344   2.639   6.253  15.414 -0.3735  0.2834 -0.0229
11310TIP3    H155345   2.567   6.278  15.472  0.1573  1.2095  0.2444
11310TIP3    H255346   2.606   6.274  15.326 -0.4466  0.6863  0.0982
11311TIP3   OH255347   1.454   3.657  13.151 -0.4926 -0.3972 -0.3686
11311TIP3    H155348   1.434   3.579  13.202 -0.8640 -0.2015 -0.2135
11311TIP3    H255349   1.375   3.711  13.156 -0.1465  0.1141 -0.2454
11312TIP3   OH255350   5.425   0.107  11.885 -0.0548 -0.5077 -0.5032
11312TIP3    H155351   5.332   0.085  11.879 -0.0032 -0.4798 -1.8596
11312TIP3    H255352   5.445   0.104  11.978 -0.8878 -2.7074 -0.3391
11313TIP3   OH255353   3.775   2.755   1.754  0.1491 -0.1593 -0.3253
11313TIP3    H155354   3.854   2.808   1.751  0.8697 -1.1703 -0.0006
11313TIP3    H255355   3.704   2.817   1.766  0.8634  0.7935 -0.9310
11314TIP3   OH255356   2.259   4.121  15.657 -0.2836  0.2647  0.1455
11314TIP3    H155357   2.247   4.066  15.580 -1.0423  1.6914 -0.7993
11314TIP3    H255358   2.238   4.209  15.627 -0.2777  0.9045  1.9139
11315TIP3   OH255359   2.660   5.598  12.473  0.1219 -1.0352 -0.5953
11315TIP3    H155360   2.748   5.582  12.506  0.3294  1.3718  0.1717
11315TIP3    H255361   2.673   5.630  12.384  0.0489 -0.4546 -0.4001
11316TIP3   OH255362   4.958   1.290   2.918 -0.3164  0.0546  0.2696
11316TIP3    H155363   4.922   1.292   2.830  0.9627 -2.0767 -0.3839
11316TIP3    H255364   5.026   1.357   2.918  1.5622 -1.7089 -1.3528
11317TIP3   OH255365   3.879   4.374   6.136 -0.1167  0.7200  0.5508
11317TIP3    H155366   3.966   4.369   6.176 -0.3153 -0.2744  0.8844
11317TIP3    H255367   3.819   4.350   6.206 -0.5315 -0.2459 -0.1069
11318TIP3   OH255368   5.181   5.401   1.058  0.4135  0.9313 -0.5460
11318TIP3    H155369   5.221   5.322   1.021 -0.2308 -0.6881  1.9486
11318TIP3    H255370   5.255   5.458   1.079  0.9158  0.8474 -1.9978
11319TIP3   OH255371   2.772   1.057   1.407 -0.1026  0.1253  0.4659
11319TIP3    H155372   2.756   1.119   1.477 -1.1633 -0.4567  0.7731
11319TIP3    H255373   2.788   0.974   1.452 -3.0502 -0.7782  0.0955
11320TIP3   OH255374   4.955   5.275   3.485 -0.5060  0.0997 -0.0137
11320TIP3    H155375   4.869   5.295   3.448 -1.6444 -1.0922  1.8430
11320TIP3    H255376   5.017   5.306   3.419 -2.3233  1.5184 -1.1446
11321TIP3   OH255377   2.545   5.171  13.895 -0.7544  0.2658 -0.5600
11321TIP3    H155378   2.592   5.222  13.829 -1.3892 -0.8937 -1.9620
11321TIP3    H255379   2.605   5.100  13.917 -1.5228 -0.8594 -1.8951
11322TIP3   OH255380   1.478   3.176  13.429 -0.8443  0.8045  0.1471
11322TIP3    H155381   1.484   3.133  13.343 -0.2601 -1.5183  1.2729
11322TIP3    H255382   1.544   3.245  13.426  2.7111 -2.2941  0.2809
11323TIP3   OH255383   6.720   3.071  16.083 -1.1252  0.0582  0.5278
11323TIP3    H155384   6.689   2.981  16.095 -0.2168 -0.3743 -0.2854
11323TIP3    H255385   6.808   3.071  16.121  0.1856 -0.2806 -2.2773
11324TIP3   OH255386   5.340   5.735   1.822 -0.4345 -0.6724  0.6354
11324TIP3    H155387   5.247   5.739   1.800 -0.3721 -0.7488  0.3643
11324TIP3    H255388   5.342   5.738   1.918 -0.7205 -0.7977  0.6441
11325TIP3   OH255389   3.168   2.230  11.362 -0.4108 -0.4400  0.5332
11325TIP3    H155390   3.229   2.162  11.390  0.6388  0.4851  0.5426
11325TIP3    H255391   3.082   2.193  11.381  0.1764 -1.0161  2.3116
11326TIP3   OH255392   3.772   3.875   3.942  0.3546  0.3079 -0.0563
11326TIP3    H155393   3.746   3.952   3.891 -2.2220 -1.7901 -2.1887
11326TIP3    H255394   3.840   3.833   3.890 -1.2276 -1.0430 -1.1059
11327TIP3   OH255395   1.367   3.551   0.663 -0.1128  0.2842 -0.0744
11327TIP3    H155396   1.358   3.626   0.604 -0.8856 -0.5276 -1.0198
11327TIP3    H255397   1.367   3.590   0.751  0.8026  1.4885 -0.5719
11328TIP3   OH255398   6.687   2.855   2.651 -0.5846 -0.3399 -0.1361
11328TIP3    H155399   6.771   2.888   2.683  0.9806 -0.8410 -3.3142
11328TIP3    H255400   6.621   2.907   2.698  1.5868  2.4706  0.0972
11329TIP3   OH255401   5.279   5.601  12.823 -0.4237 -0.7675  0.2879
11329TIP3    H155402   5.225   5.615  12.901 -1.6410  1.0635 -0.8346
11329TIP3    H255403   5.223   5.551  12.764 -0.8209  0.8507 -0.7500
11330TIP3   OH255404   2.421   0.212  16.337  0.3017 -0.6102 -0.1577
11330TIP3    H155405   2.403   0.282  16.400  1.9655 -0.2402 -0.0546
11330TIP3    H255406   2.334   0.176  16.316 -0.5025  0.8442  0.5010
11331TIP3   OH255407   3.932   5.030   4.224  0.3605 -1.0071  0.8012
11331TIP3    H155408   4.001   4.965   4.239  0.8306 -0.5962  0.4396
11331TIP3    H255409   3.898   5.049   4.312  1.1270 -0.7563  1.0543
11332TIP3   OH255410   3.282   0.811  15.575  0.3499 -0.0009  0.8736
11332TIP3    H155411   3.247   0.853  15.654  0.2977  1.6810 -0.0056
11332TIP3    H255412   3.368   0.779  15.601  0.4877  0.8599  1.5305
11333TIP3   OH255413   5.387   3.031   3.686  0.5632  0.2817 -0.2337
11333TIP3    H155414   5.478   3.055   3.703  0.1214  2.0585 -0.2722
11333TIP3    H255415   5.335   3.098   3.730 -0.7762 -1.1432  0.4627
11334TIP3   OH255416   3.410   4.715  11.516 -0.0817 -0.7985  0.7728
11334TIP3    H155417   3.395   4.795  11.465 -0.4684 -1.2143  0.2276
11334TIP3    H255418   3.343   4.655  11.486  1.0896 -1.8283  0.1393
11335TIP3   OH255419   3.970   0.940   3.660  0.3255  0.1012  0.0509
11335TIP3    H155420   3.940   1.027   3.632  1.0489 -0.1964 -1.7543
11335TIP3    H255421   4.023   0.957   3.738 -0.5816  1.1248  0.4725
11336TIP3   OH255422   4.356   3.729   1.461  0.4139  0.2943 -0.1934
11336TIP3    H155423   4.362   3.686   1.375 -1.0257 -1.9198  0.7329
11336TIP3    H255424   4.441   3.713   1.502  0.1216 -1.2316 -0.1135
11337TIP3   OH255425   2.429   1.658   2.048 -0.6894  0.3669 -0.0716
11337TIP3    H155426   2.496   1.666   1.980 -1.9072  0.8330 -1.2750
11337TIP3    H255427   2.478   1.647   2.129  0.9758  3.4867 -0.4812
11338TIP3   OH255428   3.509   3.903  15.881 -0.4072 -0.1511  0.2823
11338TIP3    H155429   3.578   3.867  15.825 -1.3839 -0.1038 -0.9805
11338TIP3    H255430   3.469   3.827  15.922 -0.5894 -0.2905 -0.1532
11339TIP3   OH255431   6.216   0.144   5.944  0.1080  0.0524  0.4929
11339TIP3    H155432   6.287   0.093   5.982  1.1742  1.4343  0.4399
11339TIP3    H255433   6.179   0.193   6.017 -1.3169 -1.2108  0.6573
11340TIP3   OH255434   5.927   3.455  14.001  0.1702 -0.3621 -0.1245
11340TIP3    H155435   5.999   3.515  14.018  1.2276 -1.4416 -0.5834
11340TIP3    H255436   5.966   3.368  14.008 -0.8335 -0.9683 -1.4424
11341TIP3   OH255437   0.566   3.768   3.957  0.3971 -0.6262  0.3288
11341TIP3    H155438   0.567   3.833   3.887 -1.3031 -1.7737 -0.8360
11341TIP3    H255439   0.534   3.816   4.034  1.3333  0.4038  0.1099
11342TIP3   OH255440   2.877   3.749   1.809 -0.2802  0.1068 -0.0235
11342TIP3    H155441   2.849   3.834   1.844 -2.1513  0.0033 -1.1701
11342TIP3    H255442   2.919   3.770   1.725  0.8762  0.0200  0.5068
11343TIP3   OH255443   0.798   6.050   4.003 -0.0199 -0.1628  0.1600
11343TIP3    H155444   0.769   6.057   4.094 -0.4444  0.1430  0.0059
11343TIP3    H255445   0.817   5.957   3.992 -0.6731 -0.3307  0.3552
11344TIP3   OH255446   5.613   6.356  11.130 -0.6393 -0.1822  0.5106
11344TIP3    H155447   5.640   6.432  11.079  0.8164 -1.5518 -0.8698
11344TIP3    H255448   5.529   6.381  11.168 -0.7582  1.6731 -0.8353
11345TIP3   OH255449   0.298   2.990  16.645  0.2221  0.3686  0.2943
11345TIP3    H155450   0.328   2.923  16.584 -1.6238  0.8544 -1.2476
11345TIP3    H255451   0.334   3.072  16.611 -1.5041  0.7539 -0.7027
11346TIP3   OH255452   1.754   5.227   1.795 -0.2125  0.5062 -0.1263
11346TIP3    H155453   1.700   5.241   1.873 -2.3433 -0.8988 -1.2514
11346TIP3    H255454   1.708   5.159   1.745  2.0199  0.0613 -1.7633
11347TIP3   OH255455   5.030   4.257   5.586 -0.0361 -0.0985 -0.7984
11347TIP3    H155456   4.986   4.325   5.534  1.7399  1.1903 -0.7130
11347TIP3    H255457   4.958   4.204   5.622 -1.6709  2.9623  0.8434
11348TIP3   OH255458   2.130   1.862  13.395 -0.6066  0.1557 -0.1520
11348TIP3    H155459   2.113   1.910  13.476 -0.9767 -0.5599  0.2125
11348TIP3    H255460   2.055   1.803  13.387  0.9868 -2.1457  0.7690
11349TIP3   OH255461   4.595   5.850   2.188  0.0221  0.0213 -0.1652
11349TIP3    H155462   4.543   5.923   2.221 -1.2969 -1.1123  0.3301
11349TIP3    H255463   4.561   5.773   2.232  1.1831 -0.9638 -0.8977
11350TIP3   OH255464   4.806   2.023  16.498 -0.5042 -0.3008 -0.1444
11350TIP3    H155465   4.897   1.995  16.508 -0.4238 -0.1849 -0.5273
11350TIP3    H255466   4.787   2.071  16.578 -0.7881 -1.8243  0.7228
11351TIP3   OH255467   5.459   0.206   0.516  0.1030 -0.7169 -0.3207
11351TIP3    H155468   5.388   0.262   0.547 -0.1594 -0.5978 -1.1188
11351TIP3    H255469   5.489   0.159   0.594 -0.3116 -0.1718  0.1710
11352TIP3   OH255470   1.511   6.625   1.790  0.3251  0.3815  0.1973
11352TIP3    H155471   1.509   6.680   1.868 -0.6146  0.3197  0.2208
11352TIP3    H255472   1.442   6.660   1.734 -0.2254 -0.7187  0.1766
11353TIP3   OH255473   0.189   5.936  14.040  0.0989  0.3858  0.1253
11353TIP3    H155474   0.282   5.953  14.021  0.0965  0.0238 -0.2289
11353TIP3    H255475   0.153   6.022  14.061  0.3222  0.6633 -0.5927
11354TIP3   OH255476   2.812   0.746   4.799  1.0805 -0.0352  0.3269
11354TIP3    H155477   2.832   0.723   4.890  2.6198  0.3369  0.1022
11354TIP3    H255478   2.783   0.837   4.802  1.8657  0.2258  0.3812
11355TIP3   OH255479   6.360   2.517  14.815  0.5930  0.0863 -0.5123
11355TIP3    H155480   6.353   2.432  14.858 -0.9089  0.0392 -0.8162
11355TIP3    H255481   6.280   2.563  14.837  0.8446  0.9675 -1.3399
11356TIP3   OH255482   6.316   2.293   4.929  0.0042 -0.5734  0.5456
11356TIP3    H155483   6.389   2.282   4.990 -0.6813 -2.5690  1.0566
11356TIP3    H255484   6.274   2.207   4.925 -0.8998 -0.0889 -1.5695
11357TIP3   OH255485   3.410   6.257  15.045 -0.0008 -0.4914 -0.0641
11357TIP3    H155486   3.430   6.266  14.951  0.0304 -0.9040 -0.0965
11357TIP3    H255487   3.374   6.169  15.053  1.4681 -1.0724  0.5644
11358TIP3   OH255488   6.262   1.647  16.568 -0.0221 -0.1670  0.3953
11358TIP3    H155489   6.302   1.608  16.490  1.4337  1.1785  0.4235
11358TIP3    H255490   6.168   1.646  16.550  0.1562 -1.4752 -0.6058
11359TIP3   OH255491   0.205   0.421  12.214  0.0199  0.8620 -0.1607
11359TIP3    H155492   0.175   0.506  12.182 -0.8480  0.5693 -0.1278
11359TIP3    H255493   0.298   0.435  12.234 -0.7699  2.6719  2.8241
11360TIP3   OH255494   5.454   1.000  15.842  0.7208 -0.0573  0.3199
11360TIP3    H155495   5.456   1.093  15.816  0.9362  0.5636  2.4105
11360TIP3    H255496   5.541   0.984  15.878  1.3796 -1.6734 -1.8033
11361TIP3   OH255497   4.421   5.529  14.205 -0.2739  0.6071 -0.9955
11361TIP3    H155498   4.397   5.621  14.194 -0.0530  0.7983  0.0185
11361TIP3    H255499   4.355   5.494  14.263 -0.1525  0.2143 -1.0929
11362TIP3   OH255500   2.378   3.194  13.694  0.1943 -0.2866 -0.6868
11362TIP3    H155501   2.470   3.171  13.682  0.1214 -0.8727 -0.1279
11362TIP3    H255502   2.340   3.185  13.607  0.1623 -2.3114 -0.5063
11363TIP3   OH255503   0.548   5.048  14.960 -0.0547  0.3495  0.2150
11363TIP3    H155504   0.516   5.103  14.889 -0.9561 -0.4972 -0.0414
11363TIP3    H255505   0.625   5.004  14.924  1.2209  2.0619  0.6979
11364TIP3   OH255506   0.393   3.115   4.211  0.1273  0.4854  0.3401
11364TIP3    H155507   0.323   3.179   4.226  0.2978  0.5059  1.0874
11364TIP3    H255508   0.372   3.042   4.270 -0.0291 -0.1332 -0.4584
11365TIP3   OH255509   3.900   1.209   3.567 -1.1077  0.4134 -0.5543
11365TIP3    H155510   3.861   1.259   3.638  0.4848  0.2807  0.4592
11365TIP3    H255511   3.967   1.267   3.530 -1.3857  0.1901 -1.4323
11366TIP3   OH255512   3.694   5.324   4.055  0.0253  0.3847  0.0703
11366TIP3    H155513   3.692   5.257   4.124 -1.0051  0.1852 -0.1402
11366TIP3    H255514   3.676   5.275   3.974  0.8120  0.6834 -0.2878
11367TIP3   OH255515   1.342   1.023  16.115  0.0102  0.1831 -0.2772
11367TIP3    H155516   1.248   1.014  16.129  0.0002  0.4349 -0.1631
11367TIP3    H255517   1.369   1.088  16.180  0.8286 -2.2190  1.9763
11368TIP3   OH255518   2.907   5.707  12.857 -0.2150  0.3808  0.2908
11368TIP3    H155519   2.873   5.753  12.779 -0.2667  1.8304  1.1287
11368TIP3    H255520   2.985   5.662  12.826 -1.1225 -0.3899 -0.9577
11369TIP3   OH255521   4.726   5.919  13.251  1.0576 -0.3552  0.8032
11369TIP3    H155522   4.672   5.846  13.221 -0.1246  0.9906 -0.4752
11369TIP3    H255523   4.766   5.886  13.332 -0.5766 -1.9028  1.0676
11370TIP3   OH255524   3.897   3.855  16.514 -0.1369 -0.1687  0.1884
11370TIP3    H155525   3.942   3.772  16.527 -0.1858 -0.1644  0.3844
11370TIP3    H255526   3.963   3.921  16.531 -0.1216 -0.1659  0.1203
11371TIP3   OH255527   1.559   5.607   3.422  0.3076 -0.7998  0.0885
11371TIP3    H155528   1.626   5.593   3.488  0.0166 -0.1144  0.5456
11371TIP3    H255529   1.603   5.656   3.353  0.4358 -0.9084  0.0929
11372TIP3   OH255530   0.078   2.930   5.661 -0.0964 -0.2587 -0.0422
11372TIP3    H155531   0.111   2.915   5.750 -1.2021 -0.7631  0.3049
11372TIP3    H255532   0.063   2.843   5.625 -0.2009 -0.0512 -0.5114
11373TIP3   OH255533   1.260   5.712   0.289  0.4259 -0.3021  0.1199
11373TIP3    H155534   1.329   5.701   0.223 -0.2729  0.1232 -0.6998
11373TIP3    H255535   1.297   5.672   0.368  1.9119  0.5659 -0.0908
11374TIP3   OH255536   5.564   5.184   0.394  0.0136 -0.0205  0.2674
11374TIP3    H155537   5.480   5.189   0.439  0.4268  0.9310  0.9866
11374TIP3    H255538   5.573   5.093   0.368 -0.0988 -0.7195  2.4428
11375TIP3   OH255539   5.694   0.180  14.602  0.2267  0.1098  0.7320
11375TIP3    H155540   5.624   0.159  14.539  0.9419  1.1503 -0.4633
11375TIP3    H255541   5.671   0.266  14.635 -0.4084 -0.6380  2.3426
11376TIP3   OH255542   6.607   2.131  13.978  0.5053  0.0445  0.0387
11376TIP3    H155543   6.654   2.204  14.019  0.0790 -0.5487  1.6608
11376TIP3    H255544   6.591   2.069  14.049  0.2055 -1.3125 -1.1506
11377TIP3   OH255545   1.407   2.436  12.508 -0.2278  0.0425  0.1222
11377TIP3    H155546   1.443   2.352  12.481  0.6071  0.5037 -0.2147
11377TIP3    H255547   1.374   2.420  12.597  0.9496 -0.3477  0.5010
11378TIP3   OH255548   0.185   3.035  15.338  0.5325 -0.1677  0.0746
11378TIP3    H155549   0.239   3.061  15.413 -0.2509  1.7644  0.0133
11378TIP3    H255550   0.189   2.939  15.338  3.7874 -0.1609  0.1893
11379TIP3   OH255551   1.678   1.729   4.080  0.0909 -0.3023  0.4290
11379TIP3    H155552   1.667   1.712   4.174  0.2340  0.5670  0.6087
11379TIP3    H255553   1.639   1.653   4.038 -2.1735  0.3664  1.1611
11380TIP3   OH255554   6.766   1.421  11.704  0.4143  0.4960  0.1432
11380TIP3    H155555   6.850   1.443  11.742 -0.7414  1.3486  2.3930
11380TIP3    H255556   6.730   1.504  11.673  0.4659  0.1042 -1.0313
11381TIP3   OH255557   1.469   3.038   1.379 -0.1295 -0.3849  0.5379
11381TIP3    H155558   1.564   3.052   1.385 -0.1550  0.4337 -0.5093
11381TIP3    H255559   1.436   3.122   1.347 -1.3139 -0.3943  1.6901
11382TIP3   OH255560   1.461   2.378  16.310  0.0265  0.3894  0.8210
11382TIP3    H155561   1.457   2.456  16.364 -2.4347  0.4051  0.7360
11382TIP3    H255562   1.475   2.306  16.373  4.2112  0.8820  0.7574
11383TIP3   OH255563   6.632   4.457   3.997 -0.1346 -0.6324 -0.2114
11383TIP3    H155564   6.710   4.445   4.051  0.4099 -0.4569 -0.9441
11383TIP3    H255565   6.666   4.473   3.910 -0.8404  3.0442  0.0487
11384TIP3   OH255566   1.177   2.415   3.436  0.3874 -0.6179 -0.0016
11384TIP3    H155567   1.089   2.383   3.457  0.5686 -0.3789  1.2070
11384TIP3    H255568   1.190   2.391   3.344 -0.9186 -0.6910 -0.1858
11385TIP3   OH255569   3.936   2.094  14.258 -0.2217 -0.0302 -0.3419
11385TIP3    H155570   4.025   2.058  14.258  0.3113  1.2318  0.6623
11385TIP3    H255571   3.884   2.028  14.212  0.7824 -1.8579  1.0326
11386TIP3   OH255572   6.184   0.985   5.429 -0.3456 -0.2940  0.3265
11386TIP3    H155573   6.125   1.015   5.498 -3.7055 -0.3225 -2.2893
11386TIP3    H255574   6.139   1.007   5.347  3.3376 -0.3389 -1.9509
11387TIP3   OH255575   0.768   4.203   0.923 -0.4446 -0.2022  0.1988
11387TIP3    H155576   0.765   4.150   0.844  0.2690 -0.7856  0.5461
11387TIP3    H255577   0.800   4.288   0.894  1.7818 -1.0001  0.1303
11388TIP3   OH255578   4.176   0.022  12.612 -0.3351  0.8236  0.3632
11388TIP3    H155579   4.245  -0.041  12.633 -1.9814 -1.0803  0.3997
11388TIP3    H255580   4.223   0.100  12.582  1.8517  0.3063  2.1689
11389TIP3   OH255581   2.346   4.828   6.108 -0.0249 -0.0267  0.0720
11389TIP3    H155582   2.413   4.759   6.109 -0.9175 -1.0886 -2.9836
11389TIP3    H255583   2.354   4.869   6.194  2.5231 -2.0228  0.9470
11390TIP3   OH255584   4.464   5.854  15.976 -0.1833 -0.2063 -0.2410
11390TIP3    H155585   4.539   5.836  16.033 -0.6737  0.5485  0.6809
11390TIP3    H255586   4.419   5.927  16.018 -1.8520 -1.0974 -0.3793
11391TIP3   OH255587   2.844   1.103   2.022 -0.3881 -0.0153  0.5435
11391TIP3    H155588   2.755   1.091   1.988 -0.2265 -0.7901  0.3763
11391TIP3    H255589   2.896   1.124   1.945 -0.5971  1.4698  0.7801
11392TIP3   OH255590   2.899   6.270  15.320 -0.2481  0.0019  0.0994
11392TIP3    H155591   2.822   6.262  15.376  0.8343  0.4764  1.7490
11392TIP3    H255592   2.900   6.190  15.268 -1.6241 -0.1914  0.3386
11393TIP3   OH255593   4.561   4.405   4.634  0.0212 -0.2111 -0.3505
11393TIP3    H155594   4.568   4.373   4.544  1.3600 -1.9806  0.3194
11393TIP3    H255595   4.474   4.376   4.663  0.5785 -1.9307 -0.2872
11394TIP3   OH255596   0.799   5.117   3.859 -0.0165  0.0819  0.3969
11394TIP3    H155597   0.730   5.172   3.821  0.7689 -0.8306 -2.6667
11394TIP3    H255598   0.753   5.042   3.896 -0.7690 -0.1454 -0.9230
11395TIP3   OH255599   5.647   5.834  11.035 -0.2572 -0.4701  0.3972
11395TIP3    H155600   5.720   5.886  11.005 -0.1957 -0.1935  1.0014
11395TIP3    H255601   5.617   5.786  10.958  0.3546 -0.3441  0.0778
11396TIP3   OH255602   1.059   6.736  15.887 -0.1429 -0.5138 -0.5886
11396TIP3    H155603   0.994   6.666  15.876  0.4668 -1.1794 -0.0753
11396TIP3    H255604   1.007   6.817  15.888 -1.0672 -1.0847  0.6627
11397TIP3   OH255605   5.849   2.451   0.446  0.0734  0.1590 -0.2173
11397TIP3    H155606   5.879   2.362   0.467 -1.1130 -0.4946 -1.1208
11397TIP3    H255607   5.904   2.508   0.499  0.8404 -1.1160  0.4226
11398TIP3   OH255608   0.279   2.617  15.843  0.0780 -0.1521  0.0032
11398TIP3    H155609   0.204   2.561  15.821  0.8523 -0.6565 -1.5171
11398TIP3    H255610   0.289   2.674  15.767 -0.1413  1.4947  1.1591
11399TIP3   OH255611   3.708   0.251   5.678  0.0179 -0.0829  0.0195
11399TIP3    H155612   3.721   0.337   5.639 -0.6911 -0.5793 -1.3940
11399TIP3    H255613   3.625   0.259   5.726  0.9768  0.5775  1.6301
11400TIP3   OH255614   2.043   1.638  14.634  0.1544  0.2898 -0.1605
11400TIP3    H155615   2.084   1.604  14.713 -2.0879 -0.1391  0.8710
11400TIP3    H255616   2.101   1.609  14.563  1.6960 -0.1268  1.2128
11401TIP3   OH255617   0.775   0.212   2.319 -0.5078  0.3685 -0.0128
11401TIP3    H155618   0.698   0.186   2.268 -0.6782 -0.3830  0.6058
11401TIP3    H255619   0.762   0.171   2.404  0.0709  1.1020  0.4449
11402TIP3   OH255620   4.309   5.496  10.781  0.6243 -0.4638  0.3276
11402TIP3    H155621   4.294   5.588  10.759  1.8757 -0.1585  0.6655
11402TIP3    H255622   4.395   5.475  10.744 -0.6270 -2.2189 -1.8295
11403TIP3   OH255623   3.669   4.658   2.766 -0.6491 -0.7194 -0.2034
11403TIP3    H155624   3.700   4.673   2.855  0.0117  0.2466 -0.5793
11403TIP3    H255625   3.574   4.669   2.771 -0.5172  0.3081  0.2009
11404TIP3   OH255626   3.716   2.391  12.864 -0.6583  0.1362 -0.0631
11404TIP3    H155627   3.766   2.424  12.939  1.1784 -1.3655 -0.5381
11404TIP3    H255628   3.674   2.468  12.827  2.9247  1.9370 -0.8045
11405TIP3   OH255629   2.877   3.464  12.097  0.3402  0.3113 -0.5761
11405TIP3    H155630   2.792   3.464  12.052  0.3492  0.4991 -0.5932
11405TIP3    H255631   2.941   3.470  12.027  0.4145 -0.9923 -0.6446
11406TIP3   OH255632   0.557   1.187   0.100  0.8992 -0.2067 -0.4657
11406TIP3    H155633   0.537   1.203   0.007  0.7343 -1.6405 -0.6943
11406TIP3    H255634   0.567   1.275   0.137 -0.6954  0.4450 -1.4624
11407TIP3   OH255635   0.972   2.880   4.138  0.3414  0.7258 -0.3632
11407TIP3    H155636   1.044   2.838   4.091  0.8511  2.0009 -0.7623
11407TIP3    H255637   0.997   2.972   4.142  0.0872  0.7680  1.9780
11408TIP3   OH255638   0.067   5.467  13.805 -0.7807 -0.5855 -0.1515
11408TIP3    H155639   0.045   5.404  13.737 -1.1192 -0.3465 -0.2653
11408TIP3    H255640  -0.005   5.530  13.804  0.4345  0.8948 -1.3557
11409TIP3   OH255641   6.236   2.634   2.966 -0.3509  0.2682  0.8214
11409TIP3    H155642   6.319   2.590   2.983 -0.2673  0.2375  0.3453
11409TIP3    H255643   6.210   2.603   2.879 -1.7145 -1.0751  1.6420
11410TIP3   OH255644   2.430   0.180  14.037 -0.3692 -0.3545  0.7481
11410TIP3    H155645   2.470   0.103  13.996 -1.4988 -0.3961 -0.3547
11410TIP3    H255646   2.453   0.173  14.129  1.3268 -0.8697  0.3325
11411TIP3   OH255647   1.888   5.964  14.192 -0.1919  0.3125 -0.4477
11411TIP3    H155648   1.883   6.015  14.111  0.4096  1.9172  0.4775
11411TIP3    H255649   1.829   5.890  14.177 -0.2116  0.6526 -2.2855
11412TIP3   OH255650   1.000   0.722  14.401 -0.2650 -0.8912 -0.1518
11412TIP3    H155651   0.927   0.777  14.429  1.0226  0.7459  0.0973
11412TIP3    H255652   1.078   0.774  14.418  0.8994 -1.9350 -1.9390
11413TIP3   OH255653   3.866   2.862  14.087 -0.1278  0.1910  0.1455
11413TIP3    H155654   3.774   2.883  14.101 -0.6721 -2.0915  0.4273
11413TIP3    H255655   3.893   2.820  14.169  0.7657 -0.3768 -0.4287
11414TIP3   OH255656   4.202   4.465  12.837  0.7404 -0.4253  0.1619
11414TIP3    H155657   4.185   4.558  12.856  2.3619 -0.1414  0.4333
11414TIP3    H255658   4.229   4.429  12.922  1.8700 -0.6852 -0.2848
11415TIP3   OH255659   1.991   0.038   2.784 -0.1385 -0.0480  0.3939
11415TIP3    H155660   2.036  -0.041   2.754  0.4602 -0.3105  1.9075
11415TIP3    H255661   1.899   0.010   2.792 -0.2006 -0.1464 -0.5218
11416TIP3   OH255662   4.662   5.908  15.262 -0.0151 -0.3121 -0.1883
11416TIP3    H155663   4.751   5.922  15.293 -0.2730  0.4570  0.2358
11416TIP3    H255664   4.607   5.927  15.337 -0.5613 -0.1731 -0.6176
11417TIP3   OH255665   4.157   1.569   5.889  0.5754  0.0595  0.1596
11417TIP3    H155666   4.063   1.563   5.870  0.6603 -0.5886 -0.0968
11417TIP3    H255667   4.162   1.626   5.966  0.0981  1.4035 -0.7648
11418TIP3   OH255668   3.225   0.783  16.177 -0.7533  0.1025  0.3239
11418TIP3    H155669   3.192   0.728  16.106  2.6740  0.5325 -1.8243
11418TIP3    H255670   3.258   0.722  16.243 -2.1845 -0.2963  0.7135
11419TIP3   OH255671   1.399   1.481  14.326  0.1174 -0.5884  0.1555
11419TIP3    H155672   1.409   1.570  14.360 -1.0326 -0.5052  0.3192
11419TIP3    H255673   1.428   1.425  14.398 -1.0972 -0.3802  0.8442
11420TIP3   OH255674   0.379   0.334   2.148  0.5269 -0.3075  0.0175
11420TIP3    H155675   0.438   0.263   2.124  0.8312  0.6025 -2.1335
11420TIP3    H255676   0.348   0.369   2.065 -1.7484  0.3548  1.0558
11421TIP3   OH255677   0.707   4.849  12.757 -0.1986 -0.3467 -0.9258
11421TIP3    H155678   0.668   4.932  12.784 -0.3744 -0.7742  0.2224
11421TIP3    H255679   0.801   4.862  12.770 -0.3455 -0.9729  1.3732
11422TIP3   OH255680   1.013   5.618   3.827  0.3263 -0.6467  0.3858
11422TIP3    H155681   1.014   5.686   3.760  0.0868 -0.8689  0.1543
11422TIP3    H255682   1.003   5.536   3.778  1.0363 -0.8867  0.6294
11423TIP3   OH255683   4.594   2.876   3.104 -0.3520 -0.1647  0.0551
11423TIP3    H155684   4.513   2.838   3.138 -0.4731 -1.0365 -1.1448
11423TIP3    H255685   4.663   2.834   3.156 -0.5673 -1.0291 -0.3294
11424TIP3   OH255686   6.595   4.411  11.836  0.2400  0.6371  0.1605
11424TIP3    H155687   6.536   4.487  11.842 -0.9045 -0.3674  3.2485
11424TIP3    H255688   6.539   4.336  11.852  1.8083 -0.6755 -0.2944
11425TIP3   OH255689   6.473   3.706  12.039  0.1942 -0.1524  0.3194
11425TIP3    H155690   6.539   3.638  12.029 -0.5943 -1.1314  1.4153
11425TIP3    H255691   6.475   3.728  12.132 -0.0161  0.8558  0.0958
11426TIP3   OH255692   5.943   2.119  16.867  0.2966 -0.1304 -0.2411
11426TIP3    H155693   5.985   2.036  16.845 -0.4511 -0.7724  0.6269
11426TIP3    H255694   5.957   2.128  16.962  1.4500  1.3830 -0.5159
11427TIP3   OH255695   3.962   1.896  16.454 -0.2128  0.1223 -0.2628
11427TIP3    H155696   3.981   1.943  16.372  0.9962  0.0992 -0.0122
11427TIP3    H255697   3.872   1.863  16.442 -0.4210  0.9617 -1.1687
11428TIP3   OH255698   6.703   6.092   5.027 -0.0043 -0.1194 -0.2402
11428TIP3    H155699   6.706   6.134   5.113 -0.5770 -0.9191  0.1854
11428TIP3    H255700   6.795   6.086   5.000  0.2925 -0.8984  0.8428
11429TIP3   OH255701   3.443   0.989  15.066 -0.2503  0.1565  0.1419
11429TIP3    H155702   3.460   0.914  15.123 -2.4948 -1.7563 -1.4904
11429TIP3    H255703   3.405   1.055  15.123  0.3189 -0.5455  1.3622
11430TIP3   OH255704   5.493   4.755   4.668  0.4740 -0.1996  0.1220
11430TIP3    H155705   5.440   4.801   4.732 -0.2219  1.5122 -1.5976
11430TIP3    H255706   5.439   4.681   4.641  0.1397 -0.0573  0.3946
11431TIP3   OH255707   5.167   1.374  13.549 -0.7646 -0.0180 -0.0513
11431TIP3    H155708   5.140   1.324  13.472 -0.4430  0.9036 -0.7771
11431TIP3    H255709   5.125   1.329  13.622 -0.7998 -1.1092 -0.7202
11432TIP3   OH255710   3.395   0.480   5.222 -0.5501  0.0414  0.1427
11432TIP3    H155711   3.365   0.469   5.132  0.2265  1.1132 -0.2542
11432TIP3    H255712   3.489   0.494   5.215 -0.1359 -1.7679  1.2731
11433TIP3   OH255713   3.260   5.406   1.757  0.1063  0.0348 -0.2622
11433TIP3    H155714   3.214   5.371   1.834 -1.3860  0.2417 -1.0170
11433TIP3    H255715   3.254   5.337   1.691  0.9489  0.0486 -0.3677
11434TIP3   OH255716   3.319   5.312   0.725 -0.2759 -0.0490 -0.6304
11434TIP3    H155717   3.365   5.339   0.645 -0.5837  1.9364 -0.1936
11434TIP3    H255718   3.237   5.363   0.724 -0.8640 -0.9314  0.3333
11435TIP3   OH255719   1.273   0.180   1.283  0.2648  0.3429 -0.2584
11435TIP3    H155720   1.340   0.229   1.235  0.2663 -1.5551 -2.4026
11435TIP3    H255721   1.313   0.162   1.368  0.6508  3.0351  0.1919
11436TIP3   OH255722   3.043   0.176   0.367 -0.2219  0.3254  0.6295
11436TIP3    H155723   3.088   0.240   0.313  0.1413 -0.0090  0.5298
11436TIP3    H255724   3.113   0.121   0.402 -0.4735  0.3539  1.2022
11437TIP3   OH255725   6.127   5.720   1.430 -0.4191 -0.2442 -0.4286
11437TIP3    H155726   6.183   5.797   1.437  0.3472 -0.9276  1.6547
11437TIP3    H255727   6.068   5.726   1.504  0.5161 -2.2697  0.5735
11438TIP3   OH255728   2.952   1.897   5.031  0.2567 -0.1313 -0.1514
11438TIP3    H155729   2.889   1.826   5.042  0.2255 -0.0670  0.0777
11438TIP3    H255730   2.906   1.976   5.059  0.3586 -0.0481 -0.2141
11439TIP3   OH255731   1.735   3.095   5.456 -0.2436 -0.1469 -0.6588
11439TIP3    H155732   1.662   3.148   5.488 -0.5856 -2.1293  2.1734
11439TIP3    H255733   1.810   3.154   5.461 -0.4763  0.1070  3.0598
11440TIP3   OH255734   1.753   3.588   0.034  0.8597 -0.7377  0.1937
11440TIP3    H155735   1.800   3.618  -0.044  1.2068 -0.9384  0.3216
11440TIP3    H255736   1.681   3.535   0.000  0.6828 -0.3721 -0.0096
11441TIP3   OH255737   0.016   3.098   5.330 -0.0507  0.7608 -0.2425
11441TIP3    H155738   0.050   3.068   5.246 -0.1355  0.7147 -0.2602
11441TIP3    H255739   0.085   3.156   5.365  0.6450 -0.3969  0.3561
11442TIP3   OH255740   3.020   2.841  13.504 -0.3553 -0.0313 -0.8908
11442TIP3    H155741   3.047   2.751  13.520  0.0597  0.0802 -0.9445
11442TIP3    H255742   2.990   2.841  13.413 -3.0338 -0.7416 -0.0960
11443TIP3   OH255743   2.859   4.694   0.200 -0.0749  0.3378 -0.3961
11443TIP3    H155744   2.780   4.659   0.159  0.8657 -0.1935 -1.8412
11443TIP3    H255745   2.843   4.687   0.294 -1.0234 -1.4334 -0.6566
11444TIP3   OH255746   5.689   6.410   4.086 -0.1839 -0.2595 -0.7013
11444TIP3    H155747   5.760   6.369   4.037  0.8544 -0.3949  0.8455
11444TIP3    H255748   5.724   6.422   4.174 -2.4293 -1.2345  0.4056
11445TIP3   OH255749   3.977   5.006  14.350 -0.3464  0.1374 -0.0765
11445TIP3    H155750   4.062   4.983  14.387 -0.4795  0.9498  0.7831
11445TIP3    H255751   3.940   4.923  14.320 -0.1351 -0.5446  1.4443
11446TIP3   OH255752   0.558   2.948  12.864  0.2283 -1.1240 -0.7311
11446TIP3    H155753   0.608   2.870  12.890 -0.7848 -1.2100  1.1703
11446TIP3    H255754   0.493   2.915  12.802 -0.0444 -1.7709 -0.1181
11447TIP3   OH255755   3.109   3.538   0.684  0.0197  0.0616 -0.2856
11447TIP3    H155756   3.157   3.598   0.741 -1.6660  0.6017  0.6123
11447TIP3    H255757   3.156   3.542   0.601  0.8640  1.4239  0.2194
11448TIP3   OH255758   1.455   3.615  16.346 -0.1993 -0.5150 -0.2167
11448TIP3    H155759   1.387   3.610  16.413 -0.0041 -1.2188 -0.0669
11448TIP3    H255760   1.408   3.637  16.266 -0.6240 -1.0914 -0.1325
11449TIP3   OH255761   3.545   5.093  16.691 -0.1816  0.1741 -0.5248
11449TIP3    H155762   3.597   5.102  16.771 -0.4863  0.4041 -0.3532
11449TIP3    H255763   3.488   5.018  16.708  0.0235 -0.0173 -0.6753
11450TIP3   OH255764   5.981   2.811  15.937  0.7050  0.0454  0.0620
11450TIP3    H155765   5.991   2.794  16.031  1.2562 -1.2369 -0.2126
11450TIP3    H255766   5.907   2.756  15.910  0.5119  0.4509 -0.2416
11451TIP3   OH255767   2.706   3.819  17.129  0.8489 -0.0990 -0.0345
11451TIP3    H155768   2.666   3.895  17.085 -0.7737 -1.3375 -0.8175
11451TIP3    H255769   2.797   3.820  17.099 -0.1229 -0.7884 -3.4761
11452TIP3   OH255770   1.418   2.547   4.864  0.0616 -0.1926  0.1627
11452TIP3    H155771   1.328   2.526   4.889  0.6776 -4.2237 -0.2685
11452TIP3    H255772   1.470   2.531   4.943  0.6704 -0.6254 -0.3106
11453TIP3   OH255773   4.149   5.780   6.111  0.4644 -0.3819  0.2990
11453TIP3    H155774   4.212   5.814   6.175 -1.0487  1.0262  1.1104
11453TIP3    H255775   4.089   5.726   6.164 -1.1696  1.2976  0.2363
11454TIP3   OH255776   2.178   3.498  10.791  0.0837  0.3247 -0.7417
11454TIP3    H155777   2.134   3.577  10.761  0.5266  1.8370  2.1635
11454TIP3    H255778   2.109   3.432  10.797 -0.7645  1.1762 -1.0105
11455TIP3   OH255779   4.402   0.468  16.218 -0.4579  0.2441  0.1576
11455TIP3    H155780   4.367   0.448  16.131 -1.0886  2.0133 -0.0238
11455TIP3    H255781   4.491   0.499  16.201 -0.4045  0.1088  0.1904
11456TIP3   OH255782   2.122   5.150   1.923  0.0828 -0.5088 -0.9287
11456TIP3    H155783   2.130   5.057   1.901  0.6038 -0.2943 -1.6588
11456TIP3    H255784   2.078   5.189   1.848  1.9262  0.2408 -1.6730
11457TIP3   OH255785   1.430   0.383   0.578 -0.0285  0.8430 -0.1014
11457TIP3    H155786   1.407   0.343   0.662  1.8322 -1.2321 -0.4858
11457TIP3    H255787   1.512   0.429   0.596  0.5795  0.0729 -0.8122
11458TIP3   OH255788   3.143   1.684   2.515  0.9343 -0.0731  0.0164
11458TIP3    H155789   3.159   1.771   2.551 -0.3994  0.1896  0.0243
11458TIP3    H255790   3.177   1.688   2.426  2.4368 -0.1017  0.5630
11459TIP3   OH255791   2.311   4.191  14.084 -0.7706  0.2249 -0.0688
11459TIP3    H155792   2.331   4.269  14.136  0.1945 -0.9289  1.3605
11459TIP3    H255793   2.273   4.226  14.003  1.2779  2.2957 -0.2612
11460TIP3   OH255794   2.717   4.155   4.263 -0.4903  0.5104 -0.2297
11460TIP3    H155795   2.705   4.246   4.292  1.3012  0.2644  1.4903
11460TIP3    H255796   2.789   4.122   4.318  0.6011 -1.1838 -2.5298
11461TIP3   OH255797   5.658   5.787   0.782  0.6546 -0.0954 -0.5286
11461TIP3    H155798   5.681   5.767   0.691 -0.1902  0.2238 -0.8252
11461TIP3    H255799   5.741   5.812   0.823  1.0748 -0.4216 -1.1591
11462TIP3   OH255800   5.977   0.213   4.349 -0.1271 -0.1827 -0.4457
11462TIP3    H155801   6.000   0.287   4.293  0.3066  0.4303  0.5113
11462TIP3    H255802   5.997   0.136   4.297  1.7489  0.3529 -0.5864
11463TIP3   OH255803   2.963   3.193   1.547  0.1182  0.7084  0.4654
11463TIP3    H155804   2.998   3.280   1.527  0.1709  0.7585  0.7652
11463TIP3    H255805   2.944   3.154   1.462  4.1063 -0.6583 -0.0018
11464TIP3   OH255806   0.087   0.207  16.145 -0.1417 -0.3165 -0.3405
11464TIP3    H155807   0.016   0.271  16.135  0.4854  0.3369 -0.6758
11464TIP3    H255808   0.097   0.169  16.058 -1.4910 -1.9701  0.1562
11465TIP3   OH255809   2.801   2.936  15.838  0.3652 -0.6563 -1.0112
11465TIP3    H155810   2.789   3.031  15.846  0.3558 -0.6897 -0.6341
11465TIP3    H255811   2.737   2.898  15.898  0.0056 -0.9191 -1.5537
11466TIP3   OH255812   2.723   5.350  15.625  0.4879 -0.4348  0.2688
11466TIP3    H155813   2.700   5.357  15.718  0.3388 -1.9467  0.3751
11466TIP3    H255814   2.642   5.367  15.578  0.6601  0.7627  0.3930
11467TIP3   OH255815   4.844   6.674   4.791  0.9030 -0.4925  0.1128
11467TIP3    H155816   4.853   6.632   4.705 -1.3543  1.9047 -1.4501
11467TIP3    H255817   4.929   6.716   4.805  1.0060 -0.1147 -1.4469
11468TIP3   OH255818   1.799   6.608   4.627  0.0472  0.0751  0.1663
11468TIP3    H155819   1.776   6.517   4.607 -0.3075 -0.1204  1.4142
11468TIP3    H255820   1.725   6.659   4.592 -1.1148 -0.3532  1.8817
11469TIP3   OH255821   4.762   3.698   2.187  0.0287  0.2489  0.4603
11469TIP3    H155822   4.757   3.684   2.092  0.9374  1.1502  0.2630
11469TIP3    H255823   4.711   3.627   2.224  0.2664 -0.5463 -0.6808
11470TIP3   OH255824   2.490   5.911   0.513  0.1543 -0.7405 -0.2462
11470TIP3    H155825   2.403   5.884   0.482 -0.0098 -0.6686  0.1435
11470TIP3    H255826   2.491   6.006   0.500  0.5988 -0.8766 -1.2894
11471TIP3   OH255827   5.532   0.707  10.808 -0.3494 -0.2229  0.0022
11471TIP3    H155828   5.559   0.623  10.771  1.0637  0.5512 -0.7910
11471TIP3    H255829   5.585   0.717  10.887 -1.6668 -0.7825  0.9918
11472TIP3   OH255830   0.035   4.727  14.509  0.9218 -0.4068 -0.0144
11472TIP3    H155831  -0.012   4.803  14.475  1.8143  0.0272 -0.3174
11472TIP3    H255832   0.009   4.655  14.452 -0.4802 -0.4948  0.7090
11473TIP3   OH255833   6.709   4.956   5.577  0.3371  0.6254  0.3559
11473TIP3    H155834   6.670   4.900   5.645  0.2159 -1.5672 -1.4279
11473TIP3    H255835   6.799   4.968   5.606  0.6389 -1.3052  0.3629
11474TIP3   OH255836   3.294   0.291  11.176 -0.3522  0.1780  0.3800
11474TIP3    H155837   3.315   0.280  11.268  0.3976 -0.6121  0.1310
11474TIP3    H255838   3.338   0.218  11.132 -2.1522 -0.5163 -0.4010
11475TIP3   OH255839   4.197   6.090  13.311  0.8903 -0.0265 -0.5177
11475TIP3    H155840   4.170   6.038  13.387 -0.3468  1.4382  0.1015
11475TIP3    H255841   4.287   6.062  13.294  1.3798 -0.1092  1.7801
11476TIP3   OH255842   5.355   1.159   0.455 -0.4232 -0.7164 -0.2633
11476TIP3    H155843   5.283   1.180   0.515 -1.5278  0.5365 -1.9242
11476TIP3    H255844   5.312   1.146   0.371  1.3627  0.9893 -1.5197
11477TIP3   OH255845   2.742   3.342  16.147  0.1020  0.8034  0.2791
11477TIP3    H155846   2.751   3.253  16.179 -0.0008  0.9477  0.7210
11477TIP3    H255847   2.721   3.333  16.055 -0.9007  0.3450  0.5371
11478TIP3   OH255848   4.788   1.647  13.587  0.2802  0.4723 -0.4538
11478TIP3    H155849   4.699   1.666  13.618  0.3927 -0.8588  0.8126
11478TIP3    H255850   4.844   1.705  13.639  0.2959 -0.2211  0.3285
11479TIP3   OH255851   1.252   3.213   3.681  0.0432 -0.2644 -0.0104
11479TIP3    H155852   1.336   3.225   3.637 -0.3449 -0.2053 -0.7447
11479TIP3    H255853   1.273   3.163   3.760  0.8244  0.1019  0.0260
11480TIP3   OH255854   2.611   0.626  11.530 -0.0388  0.2787  0.0314
11480TIP3    H155855   2.522   0.594  11.518  0.0188 -0.8454  2.1060
11480TIP3    H255856   2.667   0.551  11.507  0.6453  1.7571 -3.9609
11481TIP3   OH255857   2.753   0.634   1.325  0.0437  0.2720  0.2329
11481TIP3    H155858   2.709   0.682   1.396  0.8302  1.9127 -0.3367
11481TIP3    H255859   2.829   0.594   1.368 -0.2926  0.0163  0.6005
11482TIP3   OH255860   1.956   2.437  12.232 -0.7687  0.2320 -0.2693
11482TIP3    H155861   1.956   2.448  12.137 -0.8031  2.2364 -0.0831
11482TIP3    H255862   2.008   2.510  12.265 -1.1744 -0.1341  1.2746
11483TIP3   OH255863   1.188   1.216   3.483 -0.3487  0.7096  0.0255
11483TIP3    H155864   1.264   1.165   3.512  0.7269  1.6037 -1.1158
11483TIP3    H255865   1.162   1.266   3.561  0.7550  1.0083  0.2156
11484TIP3   OH255866   3.948   1.575  15.116 -0.1687  0.2261  0.6267
11484TIP3    H155867   3.958   1.639  15.046  0.8335 -1.2857 -0.6828
11484TIP3    H255868   3.934   1.492  15.070 -0.3515 -0.6781  2.2458
11485TIP3   OH255869   0.562   5.492  13.521 -0.4186 -0.1058 -0.4080
11485TIP3    H155870   0.591   5.541  13.598 -0.5866 -0.1346 -0.3281
11485TIP3    H255871   0.624   5.518  13.453  0.0208 -0.4428 -0.1439
11486TIP3   OH255872   3.283   6.650  16.628  0.1806 -1.2503  0.5810
11486TIP3    H155873   3.372   6.616  16.641 -0.0362 -2.5047 -0.9215
11486TIP3    H255874   3.236   6.578  16.584 -1.2097 -0.1409  0.1873
11487TIP3   OH255875   0.586   2.713  15.577  0.4054  0.3491 -0.0923
11487TIP3    H155876   0.523   2.641  15.585  0.2637  0.6044  1.2576
11487TIP3    H255877   0.584   2.736  15.484 -1.9228  0.7067 -0.0112
11488TIP3   OH255878   3.276   3.749   0.056  0.3044  0.6500  0.1490
11488TIP3    H155879   3.250   3.841   0.052  0.1257  0.7171  2.0904
11488TIP3    H255880   3.353   3.749   0.112 -0.3078 -0.4941  1.0189
11489TIP3   OH255881   0.616   0.211   6.589 -0.5902 -0.0169 -0.4575
11489TIP3    H155882   0.643   0.302   6.594  1.3177 -0.5657  0.0567
11489TIP3    H255883   0.685   0.168   6.538 -0.8154 -1.3902  0.3283
11490TIP3   OH255884   6.696   1.534   1.228  0.6920  0.3331 -0.6759
11490TIP3    H155885   6.719   1.473   1.298  1.5074  0.7825 -0.5474
11490TIP3    H255886   6.604   1.557   1.245 -0.0476 -1.8097 -1.4511
11491TIP3   OH255887   1.010   3.738  14.363 -0.3522 -0.2342 -0.2797
11491TIP3    H155888   0.998   3.711  14.454  0.6526  0.1208 -0.0310
11491TIP3    H255889   0.921   3.740  14.327 -0.6817 -1.2456  0.4319
11492TIP3   OH255890   3.169   3.618   1.107  0.5503 -0.0615 -0.4549
11492TIP3    H155891   3.098   3.560   1.081  0.4501 -0.4537  0.6173
11492TIP3    H255892   3.246   3.562   1.109  0.4475 -0.1842  0.6217
11493TIP3   OH255893   0.455   5.027  13.783  0.0907  0.0779  0.1181
11493TIP3    H155894   0.498   4.949  13.818 -0.7172 -1.5181 -2.1829
11493TIP3    H255895   0.370   5.030  13.827 -0.9113 -1.8965 -1.4775
11494TIP3   OH255896   6.730   0.814  10.880  0.5396  0.1231  0.2921
11494TIP3    H155897   6.720   0.726  10.917 -2.4561 -0.5077 -1.6864
11494TIP3    H255898   6.820   0.816  10.848  0.8833 -1.9822  0.9715
11495TIP3   OH255899   3.823   0.294  16.842  0.4633 -0.0911  0.0038
11495TIP3    H155900   3.741   0.248  16.823  1.3539 -1.4763 -0.6248
11495TIP3    H255901   3.890   0.243  16.797  1.5805  1.5270 -0.2513
11496TIP3   OH255902   4.139   2.622  13.112 -0.1960 -0.3069  0.0138
11496TIP3    H155903   4.153   2.559  13.183 -0.7580 -1.5790 -0.9837
11496TIP3    H255904   4.199   2.595  13.043  0.4865  1.0453  0.0482
11497TIP3   OH255905   0.409   1.619   2.498  0.1829  0.5594  0.0164
11497TIP3    H155906   0.408   1.570   2.415 -1.5582  0.1006  0.2603
11497TIP3    H255907   0.340   1.685   2.487  1.1344  1.6469  0.4602
11498TIP3   OH255908   2.093   4.657   6.487  0.1537 -0.5582 -0.5291
11498TIP3    H155909   2.148   4.593   6.442 -0.5668 -1.6211  0.0801
11498TIP3    H255910   2.043   4.606   6.550 -0.4031  0.6178  0.0048
11499TIP3   OH255911   3.269   4.743   5.633  0.4085  0.0158 -0.5803
11499TIP3    H155912   3.205   4.812   5.615 -0.5523 -1.1388 -1.7377
11499TIP3    H255913   3.220   4.661   5.621  1.6152 -0.8842  0.4082
11500TIP3   OH255914   5.882   2.197  14.743 -0.6635 -0.4715 -0.1357
11500TIP3    H155915   5.814   2.259  14.716 -0.1624 -0.1008 -0.5897
11500TIP3    H255916   5.839   2.138  14.804 -1.2495  0.1060  0.0217
11501TIP3   OH255917   1.817   4.214  14.585  0.3004 -0.3292 -0.1387
11501TIP3    H155918   1.747   4.151  14.567  1.1143 -0.7061 -2.1744
11501TIP3    H255919   1.786   4.296  14.545  1.1301 -0.5777 -1.3237
11502TIP3   OH255920   2.020   2.944   0.793  0.5562  0.4215  0.4539
11502TIP3    H155921   2.072   2.896   0.858 -0.5686 -1.8526 -0.2232
11502TIP3    H255922   2.039   2.900   0.710 -2.0000 -0.1719  0.1093
11503TIP3   OH255923   3.730   1.712   1.291 -0.0410 -0.0893  0.2005
11503TIP3    H155924   3.798   1.682   1.232 -1.4211 -0.5677 -1.2024
11503TIP3    H255925   3.668   1.759   1.236 -0.2518  1.4385  1.6386
11504TIP3   OH255926   6.680   5.575   4.974  0.0779  0.6853 -0.5956
11504TIP3    H155927   6.642   5.657   5.006 -0.3846 -0.3394  1.7196
11504TIP3    H255928   6.612   5.538   4.919 -0.4733  0.9959 -0.1433
11505TIP3   OH255929   1.166   2.748   2.939 -0.1964  0.0141 -0.2211
11505TIP3    H155930   1.232   2.679   2.933 -0.5323 -0.2176 -1.2953
11505TIP3    H255931   1.216   2.829   2.923 -0.4525 -0.3041 -3.0781
11506TIP3   OH255932   4.957   1.471   3.720 -0.8958  0.3325  0.2059
11506TIP3    H155933   4.879   1.490   3.668 -0.9452  1.1458  0.5616
11506TIP3    H255934   5.030   1.497   3.664 -0.8164 -1.2330 -0.4708
11507TIP3   OH255935   0.658   3.112  11.013 -0.1522 -0.3380 -0.0984
11507TIP3    H155936   0.628   3.164  10.938  0.4065 -1.5118 -1.1726
11507TIP3    H255937   0.753   3.129  11.018 -0.4635  1.3076  1.6508
11508TIP3   OH255938   4.791   6.309   2.058  0.4447 -0.0017  0.4382
11508TIP3    H155939   4.713   6.345   2.017  0.6116 -0.3366 -0.2082
11508TIP3    H255940   4.802   6.358   2.139 -2.0002 -1.7842  1.9718
11509TIP3   OH255941   1.357   4.593   0.531  0.5015  0.1642 -0.0361
11509TIP3    H155942   1.410   4.650   0.587  1.8705 -1.2672  0.1825
11509TIP3    H255943   1.371   4.627   0.443 -0.0777  1.2058  0.2505
11510TIP3   OH255944   1.368   0.059   0.669  0.2506  0.2117  0.7981
11510TIP3    H155945   1.350   0.110   0.590 -0.0162 -2.5015 -1.0400
11510TIP3    H255946   1.459   0.032   0.658 -0.5322 -2.3783 -0.0541
11511TIP3   OH255947   0.237   0.515  15.525 -0.2906  0.0064 -0.3622
11511TIP3    H155948   0.147   0.546  15.523 -0.0924  0.6069 -0.2371
11511TIP3    H255949   0.230   0.420  15.513 -0.8931  0.1173 -0.9510
11512TIP3   OH255950   0.269   6.017  15.568 -0.0054  0.0674  0.1496
11512TIP3    H155951   0.205   6.055  15.508 -0.0314  2.9466  1.8242
11512TIP3    H255952   0.247   6.055  15.653  1.4517 -2.0628  1.5670
11513TIP3   OH255953   0.568   4.525  14.066 -0.4844  0.3413 -0.2176
11513TIP3    H155954   0.496   4.462  14.075 -1.1500  1.2336  1.1041
11513TIP3    H255955   0.566   4.575  14.147  1.1032  0.9685 -0.5252
11514TIP3   OH255956   3.778   4.991  13.750  0.4924  0.2896 -0.1640
11514TIP3    H155957   3.767   4.897  13.735  1.5125 -0.0980  1.2392
11514TIP3    H255958   3.731   5.033  13.678 -0.0048 -1.2899 -0.8062
11515TIP3   OH255959   3.591   6.469   5.943 -0.0723  0.4510  0.4093
11515TIP3    H155960   3.559   6.558   5.955 -2.0991 -0.2003  0.2821
11515TIP3    H255961   3.641   6.451   6.023 -1.4903  0.9820  1.4625
11516TIP3   OH255962   6.513   2.682  15.405  0.3230 -0.3536 -0.1860
11516TIP3    H155963   6.426   2.667  15.441  0.5947  2.4508  2.0445
11516TIP3    H255964   6.498   2.720  15.319 -0.6990 -0.1180  0.0787
11517TIP3   OH255965   6.713   4.065   2.239 -0.2633  0.3753  0.1577
11517TIP3    H155966   6.631   4.109   2.218  0.0203  2.0557  2.2381
11517TIP3    H255967   6.774   4.093   2.171 -1.0783  0.1113 -0.6924
11518TIP3   OH255968   4.067   5.031   1.602 -0.3924 -0.3219 -0.0844
11518TIP3    H155969   4.004   5.103   1.603 -0.9121 -0.7517  2.1868
11518TIP3    H255970   4.025   4.963   1.548 -1.0058  0.1132 -0.1589
11519TIP3   OH255971   0.222   2.695   3.427  0.0674  0.1300 -0.3499
11519TIP3    H155972   0.161   2.768   3.427 -0.7465 -0.4665 -2.4827
11519TIP3    H255973   0.304   2.731   3.392 -0.2818  0.0854 -1.2378
11520TIP3   OH255974   3.437   3.132  15.016 -0.0643 -0.1135  0.0126
11520TIP3    H155975   3.425   3.166  14.928  2.5575  0.1110 -0.3574
11520TIP3    H255976   3.487   3.051  15.004  3.4070  1.6078  1.2851
11521TIP3   OH255977   1.713   2.518  14.480 -0.0579  0.3816 -0.0772
11521TIP3    H155978   1.795   2.522  14.431  0.1975  1.0848  0.3829
11521TIP3    H255979   1.683   2.609  14.482  0.5899  0.5936  2.1529
11522TIP3   OH255980   6.736   3.731  10.946 -0.0153 -0.1419 -0.2817
11522TIP3    H155981   6.827   3.705  10.952 -0.2769 -0.7755  1.5081
11522TIP3    H255982   6.733   3.820  10.982  0.0671  0.3472 -1.4587
11523TIP3   OH255983   5.559   0.210  15.122  0.6029  0.6193 -0.2351
11523TIP3    H155984   5.621   0.146  15.157  0.4298  0.9850  0.7738
11523TIP3    H255985   5.478   0.194  15.171 -0.0130  0.3645 -1.3100
11524TIP3   OH255986   5.187   3.161  12.477 -0.5293 -1.0282 -0.3896
11524TIP3    H155987   5.253   3.092  12.478  0.3944 -0.1547 -0.1589
11524TIP3    H255988   5.183   3.189  12.385 -0.5187 -1.0219 -0.3880
11525TIP3   OH255989   1.988   0.612   0.503 -0.1363 -0.4084 -0.3245
11525TIP3    H155990   1.943   0.660   0.573 -1.9143  1.0264 -2.3128
11525TIP3    H255991   2.070   0.659   0.490 -1.1924  1.2683 -1.2352
11526TIP3   OH255992   5.299   4.032   1.586  0.1628 -0.4004  0.3397
11526TIP3    H155993   5.366   3.970   1.617  0.3836 -0.1137  0.4379
11526TIP3    H255994   5.223   4.013   1.641  0.4315 -0.1586  0.8081
11527TIP3   OH255995   2.226   4.396  12.110 -0.0119  0.3129 -0.1447
11527TIP3    H155996   2.251   4.357  12.026 -0.8101 -2.2261  0.7013
11527TIP3    H255997   2.131   4.396  12.110 -0.0673  2.7744 -0.2504
11528TIP3   OH255998   2.912   6.428   4.604  0.1597 -0.1608 -0.1247
11528TIP3    H155999   2.878   6.494   4.543  0.2495 -0.6975 -0.7553
11528TIP3    H256000   2.885   6.344   4.567 -1.2119 -0.4573  1.4338
11529TIP3   OH256001   4.541   5.529  16.769  0.0054  0.2423 -0.0916
11529TIP3    H156002   4.463   5.582  16.749 -1.1522 -1.9539 -1.8334
11529TIP3    H256003   4.542   5.461  16.701  2.2983 -1.0417  1.1105
11530TIP3   OH256004   1.474   6.775   2.841 -0.3056  0.0983 -0.2172
11530TIP3    H156005   1.428   6.855   2.816  0.4504  0.8643  0.7843
11530TIP3    H256006   1.509   6.792   2.928 -0.2364 -1.3767  0.0796
11531TIP3   OH256007   5.925   3.832  14.825 -0.4841  0.3516  0.4014
11531TIP3    H156008   5.855   3.890  14.795 -2.2629 -1.3189  1.1803
11531TIP3    H256009   5.881   3.762  14.872  1.6402 -1.3433  0.0261
11532TIP3   OH256010   4.816   1.086  11.148 -0.0388 -0.3186 -0.1699
11532TIP3    H156011   4.906   1.117  11.144 -0.1496  0.0774  0.2966
11532TIP3    H256012   4.806   1.050  11.236 -0.8584  1.3336  0.4671
11533TIP3   OH256013   0.697   4.315  15.953 -0.4027  0.1046 -0.2232
11533TIP3    H156014   0.754   4.250  15.994  1.1461  0.6334 -1.4556
11533TIP3    H256015   0.676   4.377  16.024 -2.0400 -1.7458  1.0152
11534TIP3   OH256016   3.784   4.781   0.408 -0.9250  0.0705  1.0320
11534TIP3    H156017   3.696   4.818   0.405 -1.1240 -0.4232  0.5279
11534TIP3    H256018   3.834   4.830   0.343 -1.7148 -1.8145 -1.1126
11535TIP3   OH256019   5.950   6.702  11.735 -0.3036 -0.6643 -0.0751
11535TIP3    H156020   6.007   6.625  11.742 -1.7232 -1.7271  0.2661
11535TIP3    H256021   5.910   6.711  11.822 -0.6384  0.0691 -0.2935
11536TIP3   OH256022   2.951   2.436  14.910  0.6579 -0.1370  0.7067
11536TIP3    H156023   2.869   2.485  14.900  1.4412  0.9060 -0.9602
11536TIP3    H256024   2.930   2.349  14.876  0.5391  0.4810 -0.8818
11537TIP3   OH256025   1.865   0.973  13.008 -0.5013  0.2050  0.2800
11537TIP3    H156026   1.851   1.062  12.976 -2.8991  0.7555  2.4402
11537TIP3    H256027   1.898   0.985  13.098 -0.2278 -1.1030  0.3750
11538TIP3   OH256028   5.616   1.887   0.114  0.2783 -0.4255  0.1357
11538TIP3    H156029   5.601   1.799   0.148 -1.1380  0.4937  2.1118
11538TIP3    H256030   5.690   1.878   0.054 -0.1347 -3.0196 -0.0807
11539TIP3   OH256031   0.509   6.439  13.100 -0.1441 -0.4830 -0.0119
11539TIP3    H156032   0.592   6.396  13.118 -0.1298 -0.6381 -0.4228
11539TIP3    H256033   0.510   6.518  13.153  0.2284 -0.5300  0.0503
11540TIP3   OH256034   2.104   6.065  11.406  0.4474 -0.3994  0.3933
11540TIP3    H156035   2.094   6.038  11.498 -3.1254  1.5016  0.7209
11540TIP3    H256036   2.118   6.160  11.410 -1.1927 -0.0561 -1.0197
11541TIP3   OH256037   3.135   0.536  15.718 -0.2786 -0.3507  0.2093
11541TIP3    H156038   3.227   0.562  15.713 -0.1339 -0.6178  1.2439
11541TIP3    H256039   3.131   0.454  15.668 -0.2573  0.3840 -1.0365
11542TIP3   OH256040   1.468   1.532   3.309 -0.1765 -0.1406  0.3641
11542TIP3    H156041   1.474   1.578   3.393  0.3823  0.4678 -0.0023
11542TIP3    H256042   1.374   1.517   3.297 -0.6190  2.6426 -0.4015
11543TIP3   OH256043   5.130   3.105  13.820  0.0185 -0.3460 -0.4191
11543TIP3    H156044   5.199   3.051  13.782  0.1303  0.3618 -1.2479
11543TIP3    H256045   5.153   3.194  13.795  0.3146  0.2179  1.6573
11544TIP3   OH256046   0.003   2.887   3.405 -0.2081  0.0016 -0.0197
11544TIP3    H156047  -0.033   2.861   3.490  0.4658  0.9074  0.5713
11544TIP3    H256048  -0.018   2.981   3.399  0.6281  0.1704 -0.3873
11545TIP3   OH256049   0.754   5.180  17.197 -0.5084 -0.2259 -0.2764
11545TIP3    H156050   0.793   5.172  17.284  1.6572 -0.4094 -1.1956
11545TIP3    H256051   0.737   5.273  17.186  0.2864 -0.0535 -0.0864
11546TIP3   OH256052   2.558   5.826   2.409  0.5555 -0.3706  0.1044
11546TIP3    H156053   2.566   5.829   2.314  0.9204 -0.0231  0.1450
11546TIP3    H256054   2.610   5.900   2.440  0.0252 -0.1776  0.5523
11547TIP3   OH256055   5.953   6.392  13.524 -0.4642 -0.3120 -0.2214
11547TIP3    H156056   6.036   6.436  13.502 -0.3010 -1.0135 -1.0469
11547TIP3    H256057   5.980   6.318  13.579 -0.5317 -0.6180 -0.6020
11548TIP3   OH256058   0.622   6.634   4.935  0.3751  0.3107  0.1854
11548TIP3    H156059   0.551   6.575   4.908 -2.2135  3.4958 -0.5334
11548TIP3    H256060   0.631   6.696   4.863 -0.1985  3.4604  2.6210
11549TIP3   OH256061   2.399   4.778  16.961 -0.2087  0.2548 -0.4975
11549TIP3    H156062   2.348   4.816  16.889 -1.4881 -1.6529 -0.6800
11549TIP3    H256063   2.433   4.853  17.008 -1.2085  1.5964 -1.7978
11550TIP3   OH256064   1.960   3.995   2.183 -0.0301 -0.0924  0.3356
11550TIP3    H156065   1.994   3.938   2.252 -1.1194 -1.6828 -0.3925
11550TIP3    H256066   2.033   4.055   2.164  1.4792 -1.7654  0.5460
11551TIP3   OH256067   0.430   3.543   4.016  0.0588 -0.0370  0.9464
11551TIP3    H156068   0.475   3.623   3.987 -2.2019  1.4425  1.2556
11551TIP3    H256069   0.344   3.574   4.046  0.0304 -2.2539  3.5066
11552TIP3   OH256070   5.543   1.243  13.252  0.1780 -0.2201 -0.3009
11552TIP3    H156071   5.485   1.272  13.322  1.8154 -0.2292  1.1463
11552TIP3    H256072   5.552   1.319  13.195  0.3128  0.4529  0.5822
11553TIP3   OH256073   2.723   2.288  13.063  0.5369 -0.1151 -0.0722
11553TIP3    H156074   2.770   2.369  13.084  1.1796 -1.0780  2.5873
11553TIP3    H256075   2.789   2.219  13.069 -0.5735 -1.1583  0.6930
11554TIP3   OH256076   5.566   2.074  17.125  0.0968 -0.6414 -0.0565
11554TIP3    H156077   5.564   1.982  17.150 -0.9141 -0.4056  0.8379
11554TIP3    H256078   5.537   2.120  17.204 -0.3109  0.3733 -0.7792
11555TIP3   OH256079   1.485   6.601   6.426  0.2328  0.0244 -0.2805
11555TIP3    H156080   1.532   6.674   6.467  0.8075  0.0772 -1.0224
11555TIP3    H256081   1.522   6.594   6.338 -0.7900 -0.2646 -0.7113
11556TIP3   OH256082   3.206   6.146   3.224  0.5590 -0.4788  0.0077
11556TIP3    H156083   3.214   6.088   3.300  0.9088  0.8025  0.9869
11556TIP3    H256084   3.273   6.213   3.239  1.9859 -1.2313 -2.4282
11557TIP3   OH256085   0.204   2.197   1.045 -0.2511 -0.1815  0.5603
11557TIP3    H156086   0.296   2.180   1.023  0.0235  0.4938  1.1295
11557TIP3    H256087   0.206   2.282   1.088 -1.6256  1.8806 -3.0043
11558TIP3   OH256088   6.351   5.406  11.878 -0.1142  0.2527  0.1984
11558TIP3    H156089   6.370   5.430  11.787  2.4648  1.4041  0.9392
11558TIP3    H256090   6.326   5.314  11.874 -0.2388  0.3339 -1.6843
11559TIP3   OH256091   4.879   2.210  12.468 -0.6803 -0.2266  0.2538
11559TIP3    H156092   4.813   2.208  12.398  0.0863 -3.9690 -0.5705
11559TIP3    H256093   4.838   2.161  12.540  0.2189 -0.3105  0.7195
11560TIP3   OH256094   6.221   2.736  12.189  0.3544 -0.4361  0.5138
11560TIP3    H156095   6.141   2.785  12.203 -0.1254 -1.3770  1.1758
11560TIP3    H256096   6.259   2.773  12.109 -1.0240 -0.3658 -0.1335
11561TIP3   OH256097   2.680   1.538   3.237 -0.3997 -0.2398  0.0663
11561TIP3    H156098   2.589   1.510   3.237 -0.0406 -1.4357 -0.1687
11561TIP3    H256099   2.706   1.536   3.329  0.5233 -3.8422 -0.1255
11562TIP3   OH256100   2.776   3.450   4.042 -0.5623  0.4091  0.1622
11562TIP3    H156101   2.765   3.485   3.954 -2.8591  1.6205  0.8577
11562TIP3    H256102   2.844   3.504   4.081 -0.1117  0.3919 -0.5748
11563TIP3   OH256103   2.865   5.334   1.226  0.2450  0.1083  0.4948
11563TIP3    H156104   2.960   5.332   1.236  0.4999  0.0360 -1.5316
11563TIP3    H256105   2.834   5.257   1.275  1.4205 -0.9599 -0.3737
11564TIP3   OH256106   0.981   5.562   0.650  0.4948 -0.0135  0.1532
11564TIP3    H156107   1.046   5.510   0.697  1.1191 -0.1164 -0.8071
11564TIP3    H256108   0.911   5.575   0.714  1.3078 -0.1673  1.1081
11565TIP3   OH256109   2.529   0.034  14.269 -0.2021 -0.6206 -0.0781
11565TIP3    H156110   2.567  -0.022  14.202  0.6968 -1.6480  1.2473
11565TIP3    H256111   2.436   0.012  14.269 -0.0267 -1.3838 -0.2450
11566TIP3   OH256112   5.118   6.697  16.272  0.0332  0.3473 -0.4214
11566TIP3    H156113   5.030   6.680  16.307  0.6146 -0.0788  0.9231
11566TIP3    H256114   5.145   6.779  16.315  0.3871  0.3461 -0.6415
11567TIP3   OH256115   4.427   2.421  14.482  1.2196 -0.3729 -0.3934
11567TIP3    H156116   4.475   2.487  14.431  2.7036 -0.9084  0.2421
11567TIP3    H256117   4.401   2.468  14.561  0.5145 -0.0298 -0.8200
11568TIP3   OH256118   3.278   0.686   1.958  0.0117  0.4386 -0.3253
11568TIP3    H156119   3.357   0.705   2.009 -0.4663 -2.9547  1.9972
11568TIP3    H256120   3.311   0.656   1.873  1.2655 -0.4834  0.4436
11569TIP3   OH256121   0.970   2.116  13.645  0.0696 -0.6062  0.7950
11569TIP3    H156122   0.918   2.040  13.618  1.2549 -1.2702  0.3218
11569TIP3    H256123   0.955   2.181  13.576 -3.4617  0.9026  2.7097
11570TIP3   OH256124   6.634   4.944  14.447 -0.4976  0.4956 -0.3288
11570TIP3    H156125   6.631   5.036  14.473 -0.3964  0.1581  0.9300
11570TIP3    H256126   6.553   4.930  14.398 -1.5167  0.7432  1.2476
11571TIP3   OH256127   3.692   6.247   1.771 -0.0672  0.4757  0.2309
11571TIP3    H156128   3.721   6.329   1.733  2.9904 -0.0042  1.2897
11571TIP3    H256129   3.628   6.272   1.838 -0.6284  1.7935 -0.7720
11572TIP3   OH256130   3.543   6.458   1.526  0.9900  0.1103  0.3566
11572TIP3    H156131   3.545   6.500   1.441  1.4408  0.9634  0.7705
11572TIP3    H256132   3.555   6.365   1.508  0.5142  0.2189 -0.5387
11573TIP3   OH256133   5.355   0.823   2.931 -0.1880 -0.1697 -0.0733
11573TIP3    H156134   5.405   0.742   2.927  0.1137  0.0184 -3.8390
11573TIP3    H256135   5.268   0.798   2.898 -0.4443  0.8168 -0.1627
11574TIP3   OH256136   6.601   3.132   0.124  0.0473  0.0114 -0.2890
11574TIP3    H156137   6.639   3.144   0.211 -1.8555  2.7043  0.3026
11574TIP3    H256138   6.634   3.206   0.072 -2.0102  0.7953 -0.5755
11575TIP3   OH256139   2.171   1.887   2.571 -0.4947 -0.1817 -0.1326
11575TIP3    H156140   2.114   1.872   2.495 -0.6556  0.1599 -0.0768
11575TIP3    H256141   2.123   1.849   2.645 -0.3641 -0.4628 -0.1923
11576TIP3   OH256142   3.303   5.329   4.087 -0.1442 -0.1037 -0.2335
11576TIP3    H156143   3.274   5.288   4.169 -0.6348 -0.6515 -0.6758
11576TIP3    H256144   3.265   5.275   4.018  0.7685 -0.0126 -0.8341
11577TIP3   OH256145   1.471   2.051   3.260 -0.2008  0.4317 -0.0413
11577TIP3    H156146   1.524   1.988   3.211 -0.5138 -0.7321  1.0583
11577TIP3    H256147   1.443   2.115   3.195 -0.5339 -1.0057 -1.3657
11578TIP3   OH256148   5.900   1.455   6.803  0.4754 -0.2391  0.0216
11578TIP3    H156149   5.875   1.542   6.833  0.6407 -0.6379  1.3688
11578TIP3    H256150   5.939   1.470   6.717 -1.2512  0.7747 -0.6208
11579TIP3   OH256151   5.058   6.700  13.382 -0.1359  0.2073 -0.6385
11579TIP3    H156152   5.066   6.767  13.450 -2.0143 -0.4960  0.3275
11579TIP3    H256153   5.082   6.618  13.426 -1.2237 -0.2308 -0.8288
11580TIP3   OH256154   3.157   3.257  12.341  0.3769 -0.4580 -0.0635
11580TIP3    H156155   3.153   3.245  12.246  0.3269 -3.3059  0.1888
11580TIP3    H256156   3.066   3.272  12.366  0.3452 -0.0129 -0.4387
11581TIP3   OH256157   5.601   2.614  12.084  0.3967 -0.0367 -0.1674
11581TIP3    H156158   5.534   2.546  12.078  0.0236  0.1615  1.3519
11581TIP3    H256159   5.555   2.689  12.123  1.8018 -0.3909  2.3791
11582TIP3   OH256160   3.184   5.612  16.563  0.5595  0.6065 -0.0618
11582TIP3    H156161   3.268   5.656  16.579  0.7399 -0.3026  1.6940
11582TIP3    H256162   3.201   5.520  16.581 -0.3788  0.1009 -1.5275
11583TIP3   OH256163   4.202   4.893  17.173  0.2762 -0.1639  0.4064
11583TIP3    H156164   4.190   4.822  17.235 -1.7969  0.6737  1.0612
11583TIP3    H256165   4.222   4.969  17.228  1.5993 -0.0312 -0.2190
11584TIP3   OH256166   6.266   0.565  14.335 -0.2759  0.2929  0.9346
11584TIP3    H156167   6.342   0.509  14.352  0.2575  0.7908  0.2187
11584TIP3    H256168   6.192   0.514  14.368  0.1667 -0.9494  0.0832
11585TIP3   OH256169   2.802   3.601   0.215 -0.1809 -0.0157  0.4059
11585TIP3    H156170   2.761   3.515   0.220 -1.2637  0.4767  0.3289
11585TIP3    H256171   2.864   3.594   0.143  0.0137 -0.8361  0.6425
11586TIP3   OH256172   3.412   2.620   0.126  0.1071 -0.7552 -0.1167
11586TIP3    H156173   3.497   2.606   0.168 -0.0255 -1.7428 -0.1500
11586TIP3    H256174   3.350   2.626   0.199  0.1554 -0.4237 -0.1041
11587TIP3   OH256175   0.589   1.519   0.928 -0.1313 -0.2232  0.2808
11587TIP3    H156176   0.562   1.559   1.011 -3.5224 -1.1588 -0.2323
11587TIP3    H256177   0.657   1.578   0.894 -0.8606  1.8872  2.2429
11588TIP3   OH256178   3.355   5.878   5.677  0.0397  0.2405 -0.2784
11588TIP3    H156179   3.261   5.891   5.668 -0.0742  1.6916  2.1694
11588TIP3    H256180   3.363   5.800   5.733  0.4242 -1.5379 -2.6690
11589TIP3   OH256181   4.680   1.003   6.823  0.2039  0.1865  0.3031
11589TIP3    H156182   4.754   0.986   6.765  1.1315 -3.7793  2.3155
11589TIP3    H256183   4.605   1.012   6.764  1.3444 -2.0810 -1.6736
11590TIP3   OH256184   2.508   2.311  14.823  0.3890 -0.2419  0.0102
11590TIP3    H156185   2.515   2.234  14.767 -1.3218 -0.2158 -0.3013
11590TIP3    H256186   2.559   2.378  14.778 -1.0679 -0.1757 -1.6874
11591TIP3   OH256187   5.347   6.005  13.880 -0.2273  0.0060 -0.0770
11591TIP3    H156188   5.335   5.920  13.838 -1.9083 -1.1895  2.5621
11591TIP3    H256189   5.265   6.051  13.866  0.5919  1.1909 -1.2913
11592TIP3   OH256190   6.615   2.393   6.348 -0.0252  0.0791 -0.4970
11592TIP3    H156191   6.566   2.349   6.417 -0.3170  0.8700 -0.2001
11592TIP3    H256192   6.707   2.373   6.368 -0.0719  0.7877  0.4557
11593TIP3   OH256193   4.120   4.525   6.724  0.2518 -0.1771  0.5489
11593TIP3    H156194   4.164   4.549   6.805  0.7163  0.0207  0.2379
11593TIP3    H256195   4.076   4.605   6.696 -0.4806 -0.4241  0.9612
11594TIP3   OH256196   1.719   0.274  15.163 -0.2000 -0.0477 -0.1540
11594TIP3    H156197   1.720   0.335  15.089  1.7427  3.1442  2.2393
11594TIP3    H256198   1.640   0.296  15.211 -0.2977 -0.5355 -0.0863
11595TIP3   OH256199   2.004   1.516   1.966 -0.2171  0.3109 -0.3665
11595TIP3    H156200   1.985   1.512   2.059  0.5846  0.9736 -0.1642
11595TIP3    H256201   1.921   1.543   1.925 -0.3478  0.8439  0.2393
11596TIP3   OH256202   6.474   0.318   0.355 -0.0196 -0.1001 -0.7543
11596TIP3    H156203   6.509   0.328   0.266 -3.1364 -1.2924 -2.2871
11596TIP3    H256204   6.402   0.381   0.360 -0.6371 -0.8550  0.4739
11597TIP3   OH256205   3.477   4.006  14.375 -0.0476 -0.5233  0.2369
11597TIP3    H156206   3.501   3.913  14.376 -0.5040 -0.6467  1.4583
11597TIP3    H256207   3.561   4.052  14.381  0.1535 -0.8654  0.0639
11598TIP3   OH256208   5.342   5.080  13.571 -0.3117  0.5107 -0.6900
11598TIP3    H156209   5.276   5.113  13.632  0.4945  0.9811 -0.0534
11598TIP3    H256210   5.405   5.034  13.627 -1.0857 -1.6291 -1.4821
11599TIP3   OH256211   5.183   3.356   5.518  0.6962 -0.0150  0.3391
11599TIP3    H156212   5.093   3.326   5.531  0.0388  0.4758 -2.3726
11599TIP3    H256213   5.178   3.451   5.526  0.6653  0.1202 -0.9755
11600TIP3   OH256214   4.462   0.143   4.573  0.2918  0.1474 -0.0861
11600TIP3    H156215   4.382   0.094   4.592 -0.1644 -1.1128 -4.1620
11600TIP3    H256216   4.433   0.213   4.514  1.7965  1.8921  1.1297
11601TIP3   OH256217   6.295   4.627  14.506 -0.2882 -0.1551  0.3602
11601TIP3    H156218   6.363   4.638  14.572 -0.2739 -0.7901  0.4623
11601TIP3    H256219   6.335   4.571  14.440 -0.5809 -0.2169  0.2328
11602TIP3   OH256220   6.385   2.061  12.819  0.0784  0.3539  0.0495
11602TIP3    H156221   6.304   2.020  12.848 -0.6485  1.4333 -0.3732
11602TIP3    H256222   6.362   2.154  12.809  0.8183  0.3523 -2.0319
11603TIP3   OH256223   0.735   2.230   5.070 -0.1420 -0.1887  0.2854
11603TIP3    H156224   0.696   2.289   5.007 -0.6296 -0.9605 -0.1533
11603TIP3    H256225   0.717   2.270   5.155  0.1332  0.6300 -0.0311
11604TIP3   OH256226   6.554   1.169  15.463 -0.0946  0.4877  0.3910
11604TIP3    H156227   6.487   1.110  15.429  0.4708  0.1999 -0.2550
11604TIP3    H256228   6.603   1.115  15.525  0.3313  0.3117 -0.0911
11605TIP3   OH256229   1.514   5.101   4.797  0.5707  0.9940 -0.0491
11605TIP3    H156230   1.495   5.128   4.707  0.2878  3.6122  0.7203
11605TIP3    H256231   1.559   5.177   4.836  0.5128  0.0088  2.0889
11606TIP3   OH256232   0.219   3.785   5.288 -0.2024  0.0566  0.0823
11606TIP3    H156233   0.207   3.880   5.294  1.4275  0.4574 -1.5851
11606TIP3    H256234   0.307   3.770   5.323  0.8913 -0.2918 -2.5056
11607TIP3   OH256235   3.504   0.018   3.620  0.0204 -0.3537 -0.5865
11607TIP3    H156236   3.458  -0.063   3.641 -1.0206  0.1127 -0.9982
11607TIP3    H256237   3.436   0.077   3.587  0.6212  0.9728  0.4605
11608TIP3   OH256238   6.203   2.507  11.768 -0.4687  0.2620  0.1943
11608TIP3    H156239   6.241   2.506  11.681 -0.4704 -2.7472  0.1537
11608TIP3    H256240   6.227   2.423  11.807 -1.3091  1.0911  2.7455
11609TIP3   OH256241   1.114   1.369  12.876  0.0750  0.2458 -0.7502
11609TIP3    H156242   1.076   1.439  12.823 -1.3135 -0.5341 -0.8168
11609TIP3    H256243   1.059   1.293  12.859  0.7023 -0.4968  0.4079
11610TIP3   OH256244   3.902   5.104  14.693 -0.3424  0.4607 -0.3067
11610TIP3    H156245   3.882   5.197  14.703  1.7015  0.7786  1.4098
11610TIP3    H256246   3.849   5.061  14.760 -2.4776  0.1227 -2.0960
11611TIP3   OH256247   3.054   5.368   2.660  0.0874 -0.8146  0.0858
11611TIP3    H156248   2.963   5.366   2.688  0.0843  1.0987  0.3104
11611TIP3    H256249   3.051   5.351   2.566 -0.4205 -1.3763  0.1952
11612TIP3   OH256250   2.669   4.593  13.103 -0.2439 -0.0615  0.0430
11612TIP3    H156251   2.645   4.665  13.162  2.1299  0.2169  0.7985
11612TIP3    H256252   2.638   4.515  13.148 -1.7591  0.3665 -0.1895
11613TIP3   OH256253   5.512   2.751   2.164 -0.1652 -0.0829 -0.0970
11613TIP3    H156254   5.449   2.782   2.229  0.2102 -0.2074  0.3257
11613TIP3    H256255   5.588   2.723   2.214  0.9453  1.6899 -0.6903
11614TIP3   OH256256   1.358   0.713  11.559 -0.0556 -0.0112  0.2282
11614TIP3    H156257   1.282   0.676  11.513  0.1092 -0.0952  0.0220
11614TIP3    H256258   1.366   0.801  11.522 -1.5315  0.9203  1.9748
11615TIP3   OH256259   1.886   1.565  15.721 -0.3639  0.2308 -0.0817
11615TIP3    H156260   1.845   1.629  15.663 -3.0595  0.4500  1.8830
11615TIP3    H256261   1.942   1.618  15.778 -1.2863  0.6751  0.4437
11616TIP3   OH256262   3.965   4.182   5.371 -0.6279  0.1793  0.1046
11616TIP3    H156263   3.941   4.164   5.280 -0.9000 -0.8801  0.3668
11616TIP3    H256264   3.981   4.276   5.374 -0.0595  0.1458 -1.1741
11617TIP3   OH256265   1.989   0.709  11.721 -0.1445 -0.0302 -0.1711
11617TIP3    H156266   1.970   0.730  11.629 -1.1614  1.2818  0.3018
11617TIP3    H256267   1.917   0.750  11.770 -0.2285 -1.6646  1.1369
11618TIP3   OH256268   2.269   5.083  11.220 -0.3824  0.2976  0.2671
11618TIP3    H156269   2.322   5.145  11.169 -1.2780  0.0075 -1.0837
11618TIP3    H256270   2.318   5.070  11.301  1.6555 -0.0439 -0.9547
11619TIP3   OH256271   2.844   6.422  11.319 -0.4623 -0.2334  0.3490
11619TIP3    H156272   2.802   6.508  11.322  0.8339  0.5537 -1.5595
11619TIP3    H256273   2.772   6.360  11.321 -1.4693  0.9145  1.2368
11620TIP3   OH256274   6.635   4.861  17.100 -0.1750 -0.4003 -0.1880
11620TIP3    H156275   6.668   4.848  17.189 -0.1190 -1.5390 -0.3646
11620TIP3    H256276   6.559   4.918  17.111 -0.4547 -0.9173  0.6461
11621TIP3   OH256277   3.528   1.343   2.035 -0.3115 -0.2047  0.4450
11621TIP3    H156278   3.546   1.423   1.985 -2.6530  1.6624  2.3396
11621TIP3    H256279   3.538   1.273   1.971 -2.1094  1.9207 -2.4256
11622TIP3   OH256280   2.998   5.304   2.039  0.8726  1.2634 -0.0346
11622TIP3    H156281   2.976   5.277   1.950  1.7050  1.1063 -0.2024
11622TIP3    H256282   2.990   5.224   2.091  1.1977  1.1642 -0.1304
11623TIP3   OH256283   6.088   1.478   4.042 -0.3133  0.1255  0.6851
11623TIP3    H156284   6.148   1.537   4.086  0.3226  0.6264 -0.7886
11623TIP3    H256285   6.070   1.409   4.107  1.8477 -0.0438  1.1836
11624TIP3   OH256286   0.695   1.280  11.090  0.8145 -0.0540 -0.0514
11624TIP3    H156287   0.607   1.314  11.108  0.7039  0.2212 -1.0863
11624TIP3    H256288   0.705   1.288  10.996  1.8216 -0.4201  0.0183
11625TIP3   OH256289   6.210   5.084   1.778 -0.1281  0.2770 -0.4962
11625TIP3    H156290   6.244   5.143   1.845 -1.8298  0.2503  0.4502
11625TIP3    H256291   6.281   5.022   1.762  0.4368  0.4759  1.0585
11626TIP3   OH256292   3.620   2.116   4.180  0.0217  0.4377  0.2993
11626TIP3    H156293   3.655   2.131   4.268 -1.4467 -1.2313  1.2404
11626TIP3    H256294   3.526   2.135   4.188 -0.0004  1.0825 -1.1584
11627TIP3   OH256295   1.649   0.918   6.543 -0.4291  0.5319 -0.5178
11627TIP3    H156296   1.561   0.955   6.545 -0.8656 -0.2444 -2.4637
11627TIP3    H256297   1.690   0.949   6.623 -2.3593  1.1787  0.2915
11628TIP3   OH256298   0.471   0.276  15.260 -0.1906  0.0840 -0.1923
11628TIP3    H156299   0.559   0.238  15.269  0.0646  0.5031 -0.7951
11628TIP3    H256300   0.442   0.247  15.173 -0.5455  0.1615 -0.1003
11629TIP3   OH256301   5.938   3.723  11.209 -0.3128 -0.1160  0.4359
11629TIP3    H156302   5.980   3.639  11.228  2.2905  1.1304  0.5298
11629TIP3    H256303   5.909   3.716  11.118 -2.3113 -1.8995  1.1106
11630TIP3   OH256304   1.755   6.325   1.589  0.6652  0.2288  0.0512
11630TIP3    H156305   1.675   6.325   1.536  0.7087 -1.2731 -0.0549
11630TIP3    H256306   1.760   6.414   1.625 -1.4013  0.1651  0.5957
11631TIP3   OH256307   1.414   5.660   0.519  0.2292  0.1272 -0.0836
11631TIP3    H156308   1.423   5.565   0.506 -0.4585 -0.2258  1.6859
11631TIP3    H256309   1.380   5.668   0.608  1.0039  2.0818  0.0745
11632TIP3   OH256310   5.559   1.476   0.407  0.1926 -0.3176  0.3613
11632TIP3    H156311   5.570   1.411   0.338  1.5247 -0.4476  0.6784
11632TIP3    H256312   5.464   1.482   0.419  0.0390 -2.0323  0.1829
11633TIP3   OH256313   2.278   3.745  11.376  0.2621 -0.0395  0.3302
11633TIP3    H156314   2.195   3.717  11.339 -0.4640  0.3304  1.6036
11633TIP3    H256315   2.339   3.745  11.303 -0.3155 -2.4570 -0.2243
11634TIP3   OH256316   4.301   4.915  11.994  0.6618 -0.1932 -0.3594
11634TIP3    H156317   4.317   4.871  12.077 -0.1616  1.0039  0.4759
11634TIP3    H256318   4.208   4.937  11.996  0.7231  0.2310 -1.4120
11635TIP3   OH256319   5.214   3.593  16.208 -0.8229 -0.1763  0.0268
11635TIP3    H156320   5.126   3.599  16.245 -1.3207 -0.7354 -1.0363
11635TIP3    H256321   5.267   3.561  16.281 -1.6451 -0.5552  0.4804
11636TIP3   OH256322   0.651   4.967  15.618  0.3318  0.2795  0.4078
11636TIP3    H156323   0.633   5.055  15.584  1.3462  0.5630  0.5745
11636TIP3    H256324   0.662   4.979  15.712  0.5908 -0.0070  0.4143
11637TIP3   OH256325   6.581   6.034   4.781 -0.0370  0.2268  0.1845
11637TIP3    H156326   6.489   6.011   4.794 -0.3542  0.4673 -1.5039
11637TIP3    H256327   6.610   6.062   4.868 -1.4257 -0.2660  0.8468
11638TIP3   OH256328   6.600   0.447  14.795  0.4571 -0.3020  0.0738
11638TIP3    H156329   6.514   0.491  14.790  1.2456  1.2732 -0.4002
11638TIP3    H256330   6.657   0.502  14.741  1.6716 -1.5785  0.0208
11639TIP3   OH256331   6.104   2.075   1.997  0.6345 -0.0853 -0.3669
11639TIP3    H156332   6.059   1.998   2.033  0.4521  0.4259  0.5272
11639TIP3    H256333   6.149   2.042   1.919  0.0697 -0.9648 -0.3354
11640TIP3   OH256334   3.527   1.772  16.215 -0.4012  0.9743  0.2927
11640TIP3    H156335   3.438   1.764  16.182 -0.3857  1.8312  0.0304
11640TIP3    H256336   3.571   1.693  16.185 -0.9929  0.6843  0.1831
11641TIP3   OH256337   2.740   4.126   3.370 -0.8082 -0.3491  0.2951
11641TIP3    H156338   2.703   4.037   3.372  0.7019 -1.0025  0.8769
11641TIP3    H256339   2.817   4.120   3.427 -0.2493  1.1484 -0.2815
11642TIP3   OH256340   4.888   0.776   6.264 -0.1070 -0.4891  0.0679
11642TIP3    H156341   4.850   0.864   6.274  0.9559  0.0775 -0.6649
11642TIP3    H256342   4.924   0.756   6.350  0.7475  0.3514 -0.0705
11643TIP3   OH256343   3.599   4.285  15.298 -0.2674  0.9666 -0.5402
11643TIP3    H156344   3.691   4.312  15.295 -0.6189  2.3185  0.0489
11643TIP3    H256345   3.572   4.302  15.388 -0.9835  0.1289 -0.5779
11644TIP3   OH256346   3.181   2.084   5.213  0.0099  0.1593  0.2243
11644TIP3    H156347   3.175   2.058   5.122 -1.8959  1.0847  0.0193
11644TIP3    H256348   3.204   2.004   5.261 -0.7386 -0.7419 -0.8817
11645TIP3   OH256349   2.651   2.885   5.497  0.0403  0.9553 -0.9395
11645TIP3    H156350   2.646   2.942   5.421  0.6123  2.2696 -0.0288
11645TIP3    H256351   2.605   2.933   5.566  0.9300  0.5341 -0.0303
11646TIP3   OH256352   1.593   2.424   1.761 -0.1272 -0.3009 -0.2234
11646TIP3    H156353   1.519   2.391   1.813 -1.6318  2.4870 -0.3403
11646TIP3    H256354   1.581   2.519   1.761  1.6209  0.0482 -3.0416
11647TIP3   OH256355   6.306   3.746   1.809  0.1892 -0.4164  0.0942
11647TIP3    H156356   6.393   3.786   1.803 -0.1156  0.3326  0.4883
11647TIP3    H256357   6.250   3.802   1.756 -0.1409 -0.6527  0.1882
11648TIP3   OH256358   5.203   6.526   3.199  0.0029  0.0892 -0.1684
11648TIP3    H156359   5.158   6.446   3.226 -0.7350  0.2542 -0.8946
11648TIP3    H256360   5.146   6.597   3.230  0.6413  0.3453  0.4490
11649TIP3   OH256361   1.621   1.708  11.671  0.5665  0.5457  0.2985
11649TIP3    H156362   1.610   1.639  11.605  1.5123  0.8133 -0.1528
11649TIP3    H256363   1.716   1.714  11.683  0.4747  1.5467  0.5692
11650TIP3   OH256364   0.168   4.842   4.411 -0.4917 -0.3845  0.0312
11650TIP3    H156365   0.191   4.906   4.343  1.0208 -1.4457 -0.4940
11650TIP3    H256366   0.073   4.849   4.419 -0.4285  1.4994 -0.4301
11651TIP3   OH256367   1.037   1.237   1.257 -0.4725 -0.0529  0.4976
11651TIP3    H156368   1.125   1.267   1.282 -0.5364  1.1344 -0.5840
11651TIP3    H256369   1.053   1.159   1.204 -0.0580  0.1617  0.2960
11652TIP3   OH256370   4.157   1.969   1.660 -0.3579 -0.0653  1.2419
11652TIP3    H156371   4.174   1.920   1.741  1.1161  1.4633  1.9128
11652TIP3    H256372   4.233   1.951   1.605 -0.5795  0.1899  0.8509
11653TIP3   OH256373   1.031   2.464  11.970  0.7363 -0.1946  0.2854
11653TIP3    H156374   1.085   2.385  11.977 -0.6150 -1.1868 -0.1787
11653TIP3    H256375   1.067   2.511  11.894  0.4441 -1.2473 -0.5172
11654TIP3   OH256376   0.031   3.526   3.671  0.0584 -0.0957 -0.2046
11654TIP3    H156377   0.079   3.494   3.748  0.2136  0.1417 -0.2006
11654TIP3    H256378   0.010   3.447   3.622  1.0744 -0.1615 -0.5630
11655TIP3   OH256379   0.194   3.287  16.902 -0.3631  0.2720 -0.3115
11655TIP3    H156380   0.139   3.228  16.954 -1.0744  0.5224 -0.7507
11655TIP3    H256381   0.239   3.230  16.839  0.3583 -0.0081  0.4491
11656TIP3   OH256382   2.029   0.001  11.047 -0.2684  0.0516 -0.2122
11656TIP3    H156383   2.007  -0.079  11.094  0.5204 -0.7792 -1.2314
11656TIP3    H256384   1.944   0.045  11.034 -0.7115 -0.6361  0.3144
11657TIP3   OH256385   6.340   6.496   1.124 -0.1254 -0.3801 -0.7500
11657TIP3    H156386   6.408   6.473   1.061 -1.1357 -3.1026 -0.9766
11657TIP3    H256387   6.290   6.565   1.081  1.7868  0.9264 -1.0133
11658TIP3   OH256388   3.851   4.956   2.242 -0.0395  0.8546 -0.1199
11658TIP3    H156389   3.906   4.960   2.163  1.5131  1.1853  0.9292
11658TIP3    H256390   3.767   4.922   2.211  0.5940  0.7817 -1.8760
11659TIP3   OH256391   2.861   2.159  17.202  0.4172 -0.5943  0.4562
11659TIP3    H156392   2.873   2.067  17.228  2.7779 -0.3911  0.3020
11659TIP3    H256393   2.943   2.202  17.228 -0.3385  1.3194 -0.1658
11660TIP3   OH256394   4.822   5.778  14.948 -0.5152  0.5497 -0.3306
11660TIP3    H156395   4.765   5.701  14.959 -0.7717  0.5691 -1.4399
11660TIP3    H256396   4.897   5.744  14.899 -0.2535  0.8453 -0.1340
11661TIP3   OH256397   2.995   4.221   3.615  0.3708 -0.0925 -0.6695
11661TIP3    H156398   2.953   4.207   3.700  0.6237 -1.1178 -0.7016
11661TIP3    H256399   3.006   4.133   3.579  1.7343  0.2160 -1.0578
11662TIP3   OH256400   5.942   2.013   1.130 -0.2735  0.0607 -0.1063
11662TIP3    H156401   5.854   2.042   1.108 -0.5527  0.3952  1.3518
11662TIP3    H256402   5.937   1.987   1.222  0.6860 -1.7800 -0.5030
11663TIP3   OH256403   1.055   1.100   3.767 -0.3268 -0.1015 -0.1052
11663TIP3    H156404   1.023   1.058   3.847  1.1131 -1.3203 -0.1146
11663TIP3    H256405   1.086   1.186   3.795 -2.4371  0.6704  0.0915
11664TIP3   OH256406   0.133   4.262   0.734 -0.3194  0.2238  0.4884
11664TIP3    H156407   0.160   4.352   0.754  1.0161 -0.3144  1.2123
11664TIP3    H256408   0.037   4.267   0.731 -0.2538  1.8130 -0.2420
11665TIP3   OH256409   3.806   3.800   0.425 -0.3014  0.6600  0.0030
11665TIP3    H156410   3.821   3.833   0.513 -0.1241  0.2011  0.1476
11665TIP3    H256411   3.742   3.730   0.436  1.9850 -1.5445  0.2098
11666TIP3   OH256412   5.095   1.941   5.581  0.3520 -0.5511 -0.3735
11666TIP3    H156413   5.063   1.852   5.571 -1.4796  0.1202 -1.0400
11666TIP3    H256414   5.060   1.988   5.504  1.5466  0.6606 -0.2179
11667TIP3   OH256415   0.283   0.415   3.504  0.3643  0.0074 -0.3807
11667TIP3    H156416   0.280   0.438   3.597 -1.3927  2.0542 -0.8615
11667TIP3    H256417   0.191   0.400   3.480  0.7250  0.0951 -1.9201
11668TIP3   OH256418   0.972   3.712  13.690  0.4879  0.1779 -0.1632
11668TIP3    H156419   0.908   3.739  13.624  0.4253  0.2354 -0.0796
11668TIP3    H256420   0.949   3.621  13.708  1.0231 -0.0937 -0.8181
11669TIP3   OH256421   3.638   5.854  11.001  0.1691  0.0236  0.3403
11669TIP3    H156422   3.725   5.819  10.985  0.9381  1.5739  0.8915
11669TIP3    H256423   3.593   5.846  10.917  1.1067 -0.0928 -0.1654
11670TIP3   OH256424   2.083   2.220  14.550  0.2943 -0.0992  0.1654
11670TIP3    H156425   2.065   2.255  14.637 -0.9151  1.7608 -0.7527
11670TIP3    H256426   2.012   2.157  14.535 -2.3952  2.9755 -1.1723
11671TIP3   OH256427   3.719   5.673  15.546  0.4861 -0.6613 -0.3002
11671TIP3    H156428   3.683   5.674  15.635  0.4966  0.1190 -0.2974
11671TIP3    H256429   3.810   5.700  15.557  0.4128 -0.2996 -0.5744
11672TIP3   OH256430   2.444   0.301  13.212  0.2932  0.1545 -0.0755
11672TIP3    H156431   2.466   0.374  13.155 -0.2254  2.2492  2.2267
11672TIP3    H256432   2.526   0.281  13.258 -0.1783  1.2451  1.3102
11673TIP3   OH256433   6.130   4.739  12.624 -1.1256 -0.0593  0.0653
11673TIP3    H156434   6.110   4.692  12.705  0.7864 -1.8864 -0.4609
11673TIP3    H256435   6.094   4.684  12.554 -0.9674  0.4642 -0.4363
11674TIP3   OH256436   0.921   0.724  11.485 -0.1178  0.4310 -0.1925
11674TIP3    H156437   0.942   0.792  11.421  2.5379  1.3059  1.4410
11674TIP3    H256438   0.998   0.667  11.485 -1.5814 -1.6683 -0.2956
11675TIP3   OH256439   0.806   5.289   1.447  0.1654  0.1936  0.2056
11675TIP3    H156440   0.860   5.326   1.378 -0.4947  0.1312 -0.3614
11675TIP3    H256441   0.867   5.239   1.501  0.4543 -1.2496 -1.3631
11676TIP3   OH256442   5.062   5.039   1.040  0.0985 -0.2786  0.9074
11676TIP3    H156443   5.106   5.074   1.117 -2.1666  1.1515  1.6574
11676TIP3    H256444   5.033   4.951   1.067 -0.3236  0.0534  1.5527
11677TIP3   OH256445   4.983   4.223  15.141 -0.7799  0.6089 -0.6229
11677TIP3    H156446   4.988   4.127  15.142 -1.5464  0.5599  1.1369
11677TIP3    H256447   4.899   4.242  15.100 -1.6842  0.4298  1.0722
11678TIP3   OH256448   6.591   0.879   1.483 -0.3352 -0.3881 -0.2447
11678TIP3    H156449   6.630   0.868   1.396 -0.6053  1.3797 -0.6206
11678TIP3    H256450   6.607   0.795   1.527 -0.2997 -1.3661 -2.0258
11679TIP3   OH256451   1.447   5.935   5.392  0.6472  0.2491 -0.7966
11679TIP3    H156452   1.506   5.915   5.466 -0.1268 -0.3733 -0.3310
11679TIP3    H256453   1.376   5.871   5.401  0.5351  0.1825 -2.0816
11680TIP3   OH256454   5.174   6.205  12.444 -0.0098  0.9115  0.2439
11680TIP3    H156455   5.154   6.112  12.455 -0.1454  0.8959 -0.1067
11680TIP3    H256456   5.249   6.221  12.501  0.5959  0.3727 -0.3859
11681TIP3   OH256457   0.108   0.401  15.153 -0.1057  0.4671  0.4079
11681TIP3    H156458   0.174   0.376  15.218  0.3232  1.7264  0.4876
11681TIP3    H256459   0.049   0.459  15.201 -0.2134  0.8132 -0.1390
11682TIP3   OH256460   0.686   5.448  17.181 -0.6045  0.3542  0.0699
11682TIP3    H156461   0.641   5.453  17.265 -2.7245  0.3723 -0.9923
11682TIP3    H256462   0.741   5.526  17.179  0.6498 -0.4101  2.0171
11683TIP3   OH256463   5.845   4.871  11.554  0.1278  0.3264 -0.4211
11683TIP3    H156464   5.786   4.859  11.479  1.3613  1.1618 -1.5847
11683TIP3    H256465   5.925   4.907  11.515  1.2164 -0.2672  1.1734
11684TIP3   OH256466   1.302   2.858  15.208 -0.2013 -0.6744 -0.4524
11684TIP3    H156467   1.306   2.947  15.244  1.0006 -0.6511 -0.6331
11684TIP3    H256468   1.372   2.811  15.253  0.1549 -1.1262 -1.4616
11685TIP3   OH256469   1.147   0.162  13.530 -0.4674 -0.5380 -0.2177
11685TIP3    H156470   1.202   0.182  13.607 -1.8179 -1.1343  0.9542
11685TIP3    H256471   1.187   0.211  13.459  1.7058 -1.0973  0.5256
11686TIP3   OH256472   5.673   2.340  13.048  0.1970  0.0288  0.6098
11686TIP3    H156473   5.624   2.282  12.990 -0.1451 -0.7355  1.6480
11686TIP3    H256474   5.707   2.408  12.990 -0.4885 -0.4846 -0.4205
11687TIP3   OH256475   4.061   6.074   4.826  0.5747 -0.0526  0.8911
11687TIP3    H156476   4.144   6.121   4.838  0.8669 -0.4148  0.3262
11687TIP3    H256477   3.994   6.141   4.839  0.9067  0.0282  2.4194
11688TIP3   OH256478   5.933   3.053   3.549  0.2677 -0.2388  0.6396
11688TIP3    H156479   5.899   2.980   3.601 -0.8792  0.3027  0.6802
11688TIP3    H256480   6.002   3.013   3.495  0.3887 -1.1246  1.4199
11689TIP3   OH256481   2.987   4.982  14.332 -0.4401 -0.2067  0.4456
11689TIP3    H156482   2.938   4.984  14.414  1.0644  0.7669  1.3529
11689TIP3    H256483   2.940   4.917  14.278 -0.7187 -1.8441  2.5332
11690TIP3   OH256484   3.066   1.597   5.830  0.3084 -0.3733 -0.6784
11690TIP3    H156485   3.018   1.515   5.840 -0.6932  0.2190 -0.4516
11690TIP3    H256486   3.078   1.629   5.919  1.5486 -0.7282 -0.6974
11691TIP3   OH256487   1.109   3.638   5.210  0.2706  0.0014 -0.0315
11691TIP3    H156488   1.137   3.726   5.235  0.9757 -0.0061 -0.7344
11691TIP3    H256489   1.148   3.625   5.123 -2.3192  0.1829 -1.3380
11692TIP3   OH256490   4.646   6.459   0.014  0.7802  0.1542  0.3174
11692TIP3    H156491   4.701   6.457  -0.064  3.2226 -1.2780  1.9535
11692TIP3    H256492   4.572   6.402  -0.007 -0.0438  1.8625 -1.8058
11693TIP3   OH256493   1.998   6.271   1.897 -0.0823  0.3221 -0.1919
11693TIP3    H156494   2.005   6.235   1.809  2.4198  0.2089 -0.0302
11693TIP3    H256495   2.075   6.328   1.905 -0.5606  0.7646  1.7395
11694TIP3   OH256496   2.085   6.126   1.012  0.4756 -0.2564  0.0893
11694TIP3    H156497   2.033   6.205   0.999 -1.0763 -1.2126  0.2336
11694TIP3    H256498   2.165   6.157   1.053 -0.1578  1.2306  0.2710
11695TIP3   OH256499   0.195   3.907   1.592  0.0158  0.1719  0.1618
11695TIP3    H156500   0.192   3.976   1.659  1.1494 -0.9303  1.4030
11695TIP3    H256501   0.276   3.860   1.610 -0.3367 -0.9985 -1.1670
11696TIP3   OH256502   3.560   3.397   3.078  0.4649  0.3427  0.6065
11696TIP3    H156503   3.621   3.396   3.004 -0.6124  2.2867 -0.3580
11696TIP3    H256504   3.571   3.310   3.118  1.1225 -0.7675 -1.7752
11697TIP3   OH256505   0.751   5.275   1.026 -0.0619  0.2146  0.1004
11697TIP3    H156506   0.793   5.261   0.941 -0.5719 -0.5980 -0.0328
11697TIP3    H256507   0.697   5.197   1.039 -0.4298  0.5908  0.9136
11698TIP3   OH256508   3.379   6.776  12.669  0.2914  0.2058  0.1985
11698TIP3    H156509   3.450   6.722  12.636  0.9950  1.4563 -0.4272
11698TIP3    H256510   3.387   6.858  12.621  0.3385  1.5116  2.2920
11699TIP3   OH256511   1.417   2.325  14.081 -0.2770 -0.6025 -0.5896
11699TIP3    H156512   1.359   2.375  14.024  1.2831  1.0403 -0.8504
11699TIP3    H256513   1.432   2.383  14.156  0.9032 -1.0413 -0.4658
11700TIP3   OH256514   2.394   5.065   0.630 -0.0573  0.5465  0.1810
11700TIP3    H156515   2.448   5.106   0.697  0.4740  0.4574 -0.1827
11700TIP3    H256516   2.308   5.056   0.671  0.7897 -1.5689  1.7062
11701TIP3   OH256517   6.716   0.797   4.627 -0.0261  0.8068 -0.0345
11701TIP3    H156518   6.710   0.741   4.704  1.2100  1.1381  0.3305
11701TIP3    H256519   6.774   0.750   4.567  1.3508  1.8181  0.4374
11702TIP3   OH256520   0.085   1.109   1.695 -0.0236  0.2171 -0.1142
11702TIP3    H156521  -0.002   1.076   1.718  0.0986 -0.1447 -0.1609
11702TIP3    H256522   0.076   1.204   1.695 -0.0751  0.2302  1.2255
11703TIP3   OH256523   1.465   2.444  14.599 -0.1555 -0.1545  0.3655
11703TIP3    H156524   1.558   2.439  14.574 -0.2952 -0.7832 -0.0456
11703TIP3    H256525   1.445   2.538  14.598 -0.4568 -0.1404 -3.0756
11704TIP3   OH256526   4.138   6.685  13.234 -0.0748 -0.0477  0.0538
11704TIP3    H156527   4.202   6.685  13.162 -1.2754  0.4117 -1.0449
11704TIP3    H256528   4.095   6.600  13.227 -1.6931  0.8202 -1.1885
11705TIP3   OH256529   4.489   2.589   2.521  0.0655  0.0961 -0.2782
11705TIP3    H156530   4.552   2.618   2.454 -1.2430 -0.4038 -1.7906
11705TIP3    H256531   4.524   2.505   2.550  1.5897  1.1219  1.0106
11706TIP3   OH256532   0.994   1.483  16.422 -0.3921  0.2691  0.1687
11706TIP3    H156533   0.970   1.393  16.441 -4.8845  1.0460 -0.6927
11706TIP3    H256534   1.064   1.477  16.357  2.1850 -2.4032  2.8869
11707TIP3   OH256535   2.614   6.413  13.054 -0.4185 -0.0857  0.4796
11707TIP3    H156536   2.696   6.410  13.004 -1.8829  0.4559 -2.1140
11707TIP3    H256537   2.619   6.338  13.113  1.1488 -1.1566 -0.9212
11708TIP3   OH256538   2.433   2.434   4.082 -1.1651 -0.7135  0.2771
11708TIP3    H156539   2.422   2.468   3.993  1.3120  0.4447  0.3276
11708TIP3    H256540   2.419   2.510   4.139 -1.9231 -1.2627  0.8513
11709TIP3   OH256541   1.682   3.245  14.450 -0.0066  0.1785 -0.0910
11709TIP3    H156542   1.684   3.340  14.449  0.4960  0.1893  0.8235
11709TIP3    H256543   1.773   3.218  14.442 -0.2325 -0.2691 -1.5208
11710TIP3   OH256544   0.095   2.641  14.001  0.3341 -0.5799 -0.7983
11710TIP3    H156545   0.184   2.669  13.980  0.7885 -0.9999  0.4960
11710TIP3    H256546   0.103   2.598  14.086 -1.8390  3.5464  1.8163
11711TIP3   OH256547   2.594   6.755  16.820  0.0168 -0.3256  0.4724
11711TIP3    H156548   2.576   6.681  16.762  0.6170 -0.4101  0.3969
11711TIP3    H256549   2.624   6.716  16.901 -0.0586 -0.1777  0.5741
11712TIP3   OH256550   4.541   2.479   4.708  0.2901 -0.5186 -0.2817
11712TIP3    H156551   4.605   2.540   4.671  0.4852 -0.4154  0.2236
11712TIP3    H256552   4.593   2.416   4.757  0.1499 -1.5383 -1.3949
11713TIP3   OH256553   1.603   5.196   1.277 -0.3137  0.2229 -0.1067
11713TIP3    H156554   1.676   5.176   1.218 -1.0054 -0.6349 -0.7126
11713TIP3    H256555   1.570   5.280   1.246  1.8367  1.8439  1.6529
11714TIP3   OH256556   0.109   1.020   2.525 -0.8591 -0.1544  0.0904
11714TIP3    H156557   0.108   1.110   2.559  0.6417 -0.6892  1.6592
11714TIP3    H256558   0.016   0.995   2.522 -1.2629  1.2439  0.1679
11715TIP3   OH256559   1.742   4.515   0.458  0.0241  0.2850 -0.2842
11715TIP3    H156560   1.668   4.479   0.409  0.0138 -1.0477  0.6620
11715TIP3    H256561   1.780   4.440   0.502  0.8399  1.2456  0.6955
11716TIP3   OH256562   1.040   6.393   1.569 -0.3131  0.1179  0.3490
11716TIP3    H156563   1.126   6.355   1.586 -0.1468 -0.3714 -1.3828
11716TIP3    H256564   0.979   6.321   1.587 -0.3149  0.2304  0.8182
11717TIP3   OH256565   5.520   2.600  15.321 -0.4129 -0.0875 -0.6072
11717TIP3    H156566   5.508   2.524  15.378 -1.7267  0.5402  0.0014
11717TIP3    H256567   5.432   2.621  15.291  0.0500  0.6802 -1.4554
11718TIP3   OH256568   2.220   2.955   5.073 -0.2568  0.6078 -0.3641
11718TIP3    H156569   2.287   3.003   5.025  2.2119 -2.5478 -0.4346
11718TIP3    H256570   2.262   2.929   5.155 -2.7039  1.6082  1.3170
11719TIP3   OH256571   6.318   1.343   1.153 -0.6265 -0.4057  0.0175
11719TIP3    H156572   6.360   1.366   1.070 -2.2914  2.9256 -0.0799
11719TIP3    H256573   6.234   1.305   1.128 -2.5884  3.5482 -0.0719
11720TIP3   OH256574   1.896   2.756   2.653  0.2694 -0.4042 -0.9155
11720TIP3    H156575   1.912   2.794   2.567  1.5544  0.2555 -0.4086
11720TIP3    H256576   1.981   2.756   2.696 -0.3173 -0.8756  0.3092
11721TIP3   OH256577   0.594   0.513   3.660 -0.0363  0.2666 -0.1248
11721TIP3    H156578   0.660   0.571   3.697  0.7394 -0.6402 -0.0492
11721TIP3    H256579   0.578   0.547   3.572  0.8805  0.2296 -0.3161
11722TIP3   OH256580   0.422   2.466  16.584 -0.3417  0.1834  0.0117
11722TIP3    H156581   0.481   2.408  16.537 -2.8755 -0.8214 -2.1873
11722TIP3    H256582   0.392   2.414  16.659  0.2711  0.0933  0.1997
11723TIP3   OH256583   2.982   1.149  11.251  0.9952  0.4937  0.3360
11723TIP3    H156584   2.904   1.164  11.198 -0.3430  0.3614  2.1994
11723TIP3    H256585   3.015   1.237  11.272 -1.6236  0.8780  3.6870
11724TIP3   OH256586   4.931   6.622   4.339  0.2670  0.3843  0.3492
11724TIP3    H156587   4.890   6.560   4.400 -0.0729 -2.5448 -2.5709
11724TIP3    H256588   4.862   6.644   4.277  1.5168  0.1591 -1.1894
11725TIP3   OH256589   3.233   1.590   0.995  0.1672 -0.0815  0.0502
11725TIP3    H156590   3.171   1.662   0.985  0.4134 -0.0826 -1.6989
11725TIP3    H256591   3.195   1.517   0.947  1.8306  0.1532 -1.7631
11726TIP3   OH256592   3.187   6.312  16.912  0.1428  0.1527  0.1901
11726TIP3    H156593   3.238   6.314  16.831  0.9048  1.8553  0.6795
11726TIP3    H256594   3.100   6.281  16.884  1.2865 -2.5805 -0.6888
11727TIP3   OH256595   2.355   4.098  12.141  0.0853 -0.1434  0.1379
11727TIP3    H156596   2.378   4.175  12.088 -0.3495 -0.2248 -0.1714
11727TIP3    H256597   2.290   4.052  12.089 -0.6957  0.0169  0.9630
11728TIP3   OH256598   3.525   6.294   3.770  0.1156 -0.0688 -0.0043
11728TIP3    H156599   3.568   6.224   3.818  0.2614 -1.5760 -2.2062
11728TIP3    H256600   3.549   6.280   3.679  1.4058  3.7537 -0.4508
11729TIP3   OH256601   0.536   0.181   4.477  0.1355  0.3022 -0.1888
11729TIP3    H156602   0.611   0.230   4.510  0.7599 -0.7290 -0.0701
11729TIP3    H256603   0.547   0.180   4.382  0.4302 -0.1108 -0.1491
11730TIP3   OH256604   6.611   6.473  15.964  0.1782 -0.6287 -0.6101
11730TIP3    H156605   6.634   6.564  15.946  0.7672 -0.6545 -0.0109
11730TIP3    H256606   6.542   6.478  16.030 -0.1205 -0.6121 -0.9168
11731TIP3   OH256607   3.196   0.227   2.722  0.0337 -0.3206  0.2162
11731TIP3    H156608   3.282   0.259   2.750 -0.0998 -1.1862  1.7234
11731TIP3    H256609   3.166   0.291   2.657  0.3765  1.8560  2.0730
11732TIP3   OH256610   3.938   6.451   5.141  0.2879 -0.3352  0.1334
11732TIP3    H156611   4.032   6.454   5.123 -0.1351 -0.1673 -2.5083
11732TIP3    H256612   3.917   6.358   5.143  0.3765 -0.3647 -0.2138
11733TIP3   OH256613   5.048   4.540   2.818  0.1844 -0.1666  0.1791
11733TIP3    H156614   4.981   4.550   2.885  0.1646 -1.7152  0.4277
11733TIP3    H256615   5.047   4.623   2.770 -1.1591  0.2299  0.8513
11734TIP3   OH256616   2.814   0.965  13.583 -0.1091  0.2274 -0.0366
11734TIP3    H156617   2.759   0.921  13.648 -0.5119 -0.5567 -0.8769
11734TIP3    H256618   2.845   1.044  13.627 -0.4356 -0.2352  1.0748
11735TIP3   OH256619   1.622   3.383  11.357  0.1286 -0.3016 -0.3494
11735TIP3    H156620   1.568   3.436  11.415 -0.5292 -2.5745  1.2870
11735TIP3    H256621   1.694   3.440  11.331 -0.6165  1.4027  1.1536
11736TIP3   OH256622   3.003   1.430   1.815  0.0245  0.3109  0.1828
11736TIP3    H156623   3.049   1.384   1.885  0.3078  0.9848  0.4458
11736TIP3    H256624   3.055   1.414   1.737 -0.6020 -0.9337 -0.0166
11737TIP3   OH256625   4.830   2.905  11.920  0.0585  0.7257  0.4258
11737TIP3    H156626   4.805   2.935  11.833  0.0068 -1.0762 -0.2370
11737TIP3    H256627   4.911   2.855  11.906 -1.2504 -1.6971  0.9414
11738TIP3   OH256628   2.850   5.503   4.675  0.4631  0.5110 -0.4337
11738TIP3    H156629   2.903   5.556   4.734  1.3244  1.3603 -1.9353
11738TIP3    H256630   2.806   5.441   4.733  2.5612  0.2057  0.9535
11739TIP3   OH256631   5.324   6.368   4.744 -0.5006 -0.5422  0.6828
11739TIP3    H156632   5.369   6.442   4.702 -0.5658 -1.1190 -0.4359
11739TIP3    H256633   5.393   6.320   4.790 -0.3800 -0.0716  1.0016
11740TIP3   OH256634   0.951   3.754  14.624 -0.0142 -0.2124  0.6781
11740TIP3    H156635   0.891   3.825  14.601 -0.8567 -0.9008  0.7210
11740TIP3    H256636   0.992   3.783  14.706 -0.4595  0.1618  0.7723
11741TIP3   OH256637   0.264   4.852   5.235 -0.0313  0.2612  0.1393
11741TIP3    H156638   0.330   4.893   5.180  1.3317 -0.4286  1.1980
11741TIP3    H256639   0.237   4.920   5.296  0.8874  0.1045  0.7273
11742TIP3   OH256640   6.771   6.191   1.602 -0.0565 -0.2037 -0.6726
11742TIP3    H156641   6.813   6.270   1.636 -0.0680  0.4633 -2.1006
11742TIP3    H256642   6.692   6.181   1.655 -1.0350  1.8494 -1.5761
11743TIP3   OH256643   0.452   4.449   3.667 -0.0994  0.2737  0.8490
11743TIP3    H156644   0.375   4.491   3.628 -0.8729 -1.1282  0.7998
11743TIP3    H256645   0.511   4.434   3.593 -0.5663 -0.2663  0.5749
11744TIP3   OH256646   2.953   5.585   3.034 -0.3972  0.3709  0.0392
11744TIP3    H156647   3.001   5.603   3.115 -1.4234 -2.1849  1.2941
11744TIP3    H256648   2.863   5.613   3.053 -0.5993 -0.0461 -0.3039
11745TIP3   OH256649   5.728   0.172   3.511 -0.3272 -0.0374  0.1124
11745TIP3    H156650   5.651   0.194   3.458 -0.5678  0.8287  0.8007
11745TIP3    H256651   5.704   0.199   3.599  0.9289  0.6297  0.2679
11746TIP3   OH256652   0.475   6.281   3.484  0.8837 -0.8860 -0.6823
11746TIP3    H156653   0.527   6.337   3.425  0.9914  0.1550  0.3600
11746TIP3    H256654   0.474   6.329   3.567  0.5411 -2.2162  0.1038
11747TIP3   OH256655   0.916   1.391  12.545 -0.1542  0.2940 -0.2766
11747TIP3    H156656   0.843   1.373  12.603 -0.4590  0.9492 -0.4534
11747TIP3    H256657   0.944   1.304  12.515  0.2990 -0.0909  1.1820
11748TIP3   OH256658   6.206   4.077  14.885  0.5572  0.6302 -0.4413
11748TIP3    H156659   6.131   4.027  14.917 -0.1116  1.8055 -0.1172
11748TIP3    H256660   6.177   4.113  14.801  1.2050  0.0870 -0.9097
11749TIP3   OH256661   5.070   4.062   1.745  0.3453  0.1709  0.1164
11749TIP3    H156662   5.094   4.152   1.768 -2.0569  1.0164 -0.3866
11749TIP3    H256663   5.027   4.029   1.823 -0.2498  0.0442 -0.2652
11750TIP3   OH256664   5.666   3.189  14.081 -0.7969 -0.2085  0.2678
11750TIP3    H156665   5.711   3.114  14.041 -0.7532  0.0096 -0.0962
11750TIP3    H256666   5.644   3.159  14.170 -2.3505 -1.3084 -0.4258
11751TIP3   OH256667   2.990   1.377   3.867  0.4566 -0.3587 -0.0008
11751TIP3    H156668   3.083   1.400   3.864  0.3165  0.0787 -1.6766
11751TIP3    H256669   2.978   1.312   3.798 -0.7555  0.7438 -0.8950
11752TIP3   OH256670   4.117   0.453  16.755 -0.1243  0.3761 -0.1272
11752TIP3    H156671   4.111   0.366  16.793 -0.1190  0.2816 -0.3423
11752TIP3    H256672   4.032   0.466  16.711  0.3031  0.0162 -1.0858
11753TIP3   OH256673   2.050   0.247  13.691  0.1477 -0.1629 -0.0725
11753TIP3    H156674   2.029   0.260  13.598 -0.7351  0.5125  0.2040
11753TIP3    H256675   2.023   0.329  13.733 -2.0377 -1.4238  1.1948
11754TIP3   OH256676   3.009   2.573   4.229  0.2761  0.5620  0.5426
11754TIP3    H156677   2.925   2.613   4.253 -0.0013  0.9152 -0.8923
11754TIP3    H256678   3.059   2.645   4.189  0.6836  0.0140  0.0530
11755TIP3   OH256679   5.584   3.994   2.836  0.2585  0.2266  0.1897
11755TIP3    H156680   5.541   3.929   2.780 -1.0790 -0.1186  1.5650
11755TIP3    H256681   5.677   3.969   2.834  0.1552 -0.1430 -1.3446
11756TIP3   OH256682   0.127   4.298   5.508 -0.5817 -0.5973  0.3968
11756TIP3    H156683   0.065   4.283   5.580 -1.1517 -0.4962 -0.0640
11756TIP3    H256684   0.205   4.248   5.533  0.1172  1.2501  2.1985
11757TIP3   OH256685   5.874   5.656  15.652 -0.3723  0.1461 -0.1684
11757TIP3    H156686   5.928   5.584  15.619 -1.0397 -0.7493  0.6398
11757TIP3    H256687   5.887   5.654  15.747  0.5266  1.8778 -0.2138
11758TIP3   OH256688   2.876   0.928  11.986  0.0481  0.1685  0.2712
11758TIP3    H156689   2.952   0.974  12.022  0.2618  0.1165 -0.1144
11758TIP3    H256690   2.847   0.871  12.057  0.9720 -0.5514  0.0816
11759TIP3   OH256691   1.540   4.752  14.599 -0.2634 -0.3205  1.0516
11759TIP3    H156692   1.563   4.665  14.630 -0.6337 -0.6841  0.3205
11759TIP3    H256693   1.466   4.738  14.541  0.2003  0.3835  0.2765
11760TIP3   OH256694   1.753   6.598   3.895  0.2501  0.5112 -0.1999
11760TIP3    H156695   1.777   6.645   3.815  0.6800  2.2008  0.8774
11760TIP3    H256696   1.657   6.602   3.897  0.2335  0.4460 -0.6228
11761TIP3   OH256697   2.713   3.877  14.538  0.2445  0.1748 -0.0701
11761TIP3    H156698   2.711   3.943  14.469  0.3209 -0.5049 -0.7243
11761TIP3    H256699   2.642   3.902  14.597  0.3677  0.9245 -0.2317
11762TIP3   OH256700   2.895   5.014  16.604 -0.3890 -0.4034  0.1011
11762TIP3    H156701   2.902   4.999  16.510 -1.5254 -0.3724 -0.0127
11762TIP3    H256702   2.891   5.109  16.612  0.1376 -0.3924  0.2187
11763TIP3   OH256703   4.163   5.176   4.396 -0.1201 -0.4310  0.0587
11763TIP3    H156704   4.140   5.184   4.489 -0.0777  1.1799 -0.0305
11763TIP3    H256705   4.126   5.255   4.356  1.2790 -0.2578 -0.9804
11764TIP3   OH256706   2.164   0.409  16.322  0.0666  0.1869  0.4327
11764TIP3    H156707   2.189   0.439  16.234  2.0256 -2.3701  0.0248
11764TIP3    H256708   2.164   0.489  16.375  0.3041  1.5746 -1.5591
11765TIP3   OH256709   3.743   1.980   5.672  0.0952 -0.1013 -0.4278
11765TIP3    H156710   3.836   1.955   5.673  0.0305 -0.4839  1.8358
11765TIP3    H256711   3.703   1.924   5.738 -0.6604  3.6491  2.6884
11766TIP3   OH256712   4.824   2.886   1.310 -0.6459 -0.1792  0.4638
11766TIP3    H156713   4.844   2.978   1.297  0.5060 -0.4339  0.3198
11766TIP3    H256714   4.905   2.840   1.288 -1.0737 -1.1985  0.9230
11767TIP3   OH256715   6.133   6.128  10.562  0.1959  0.0790  0.1440
11767TIP3    H156716   6.200   6.196  10.554  2.2107 -1.8590 -0.3726
11767TIP3    H256717   6.149   6.069  10.489 -0.6179 -1.6721  1.3170
11768TIP3   OH256718   5.369   6.032   5.567  0.3188  0.1463  0.1530
11768TIP3    H156719   5.450   6.082   5.563  0.3371  0.0776 -0.2894
11768TIP3    H256720   5.343   6.020   5.476  0.8047 -1.4495  0.1951
11769TIP3   OH256721   4.725   0.766   4.879  0.5550  0.9146  0.3104
11769TIP3    H156722   4.740   0.733   4.791  0.8401  0.1737  0.6295
11769TIP3    H256723   4.791   0.722   4.933  1.1009  2.1715  0.7117
11770TIP3   OH256724   0.849   0.702  14.757  0.2888 -0.3344 -0.2896
11770TIP3    H156725   0.886   0.621  14.723 -1.3605 -0.7737 -1.1651
11770TIP3    H256726   0.840   0.758  14.680  1.2423  0.6265  0.2766
11771TIP3   OH256727   1.476   1.206   5.692  0.0516 -0.3408  0.5740
11771TIP3    H156728   1.426   1.283   5.720  1.2665  0.6898  0.0174
11771TIP3    H256729   1.515   1.232   5.609 -1.0410 -2.2613 -0.6073
11772TIP3   OH256730   3.776   6.724  15.410 -0.5135 -1.3099  0.2759
11772TIP3    H156731   3.834   6.675  15.352 -0.1438 -1.1617  0.5088
11772TIP3    H256732   3.688   6.699  15.384 -0.3392 -1.6859  0.0388
11773TIP3   OH256733   1.247   2.302  11.602  0.4147 -0.5033  0.2192
11773TIP3    H156734   1.193   2.239  11.649  1.8042 -1.1419  1.0365
11773TIP3    H256735   1.221   2.387  11.637 -0.6117 -0.7237  0.0129
11774TIP3   OH256736   2.072   4.161   4.934 -0.4503 -0.1718 -0.2563
11774TIP3    H156737   1.985   4.179   4.899 -1.7348 -1.6529  1.9242
11774TIP3    H256738   2.111   4.100   4.872 -1.2934 -0.1387 -0.8337
11775TIP3   OH256739   0.362   2.943  14.281  0.1908  0.7992 -0.3283
11775TIP3    H156740   0.326   2.955  14.369  0.4898 -0.2386 -0.0536
11775TIP3    H256741   0.388   2.851  14.278 -0.2537  0.6974 -1.6677
11776TIP3   OH256742   4.143   0.633  13.370  0.3356 -1.1956 -0.0982
11776TIP3    H156743   4.085   0.704  13.398 -0.7179 -2.2303  0.4473
11776TIP3    H256744   4.143   0.638  13.275 -0.1269 -0.7752 -0.0815
11777TIP3   OH256745   3.927   0.782   6.221 -0.0285 -0.2955 -0.2507
11777TIP3    H156746   3.937   0.688   6.230 -0.9333 -0.1981  2.6906
11777TIP3    H256747   4.016   0.814   6.207  0.5281 -1.4553  0.4655
11778TIP3   OH256748   4.864   6.128   3.755  0.2543  0.0467  0.6184
11778TIP3    H156749   4.842   6.188   3.683 -0.1608  0.1287  0.8139
11778TIP3    H256750   4.814   6.048   3.736  1.2091 -0.4402  0.0745
11779TIP3   OH256751   1.140   1.945  15.134  0.0410  0.0956 -0.1157
11779TIP3    H156752   1.143   1.865  15.188  1.3597  1.0340  1.3050
11779TIP3    H256753   1.064   1.933  15.077 -2.6269 -0.2482  3.1525
11780TIP3   OH256754   2.835   6.748   2.532 -0.5464  0.0682 -0.2576
11780TIP3    H156755   2.900   6.749   2.462  1.2751  0.9325  1.3601
11780TIP3    H256756   2.794   6.835   2.528 -1.2840 -0.2918 -0.9402
11781TIP3   OH256757   0.514   2.142  14.656  0.1580  0.1178  0.0838
11781TIP3    H156758   0.482   2.226  14.624 -0.1954 -0.5396 -1.3848
11781TIP3    H256759   0.584   2.118  14.596  1.1081 -0.0665  1.2321
11782TIP3   OH256760   4.629   5.483   4.615  0.1672  0.1861  0.8310
11782TIP3    H156761   4.573   5.553   4.648  1.0539  0.6541  1.3820
11782TIP3    H256762   4.710   5.527   4.588  0.8320 -0.6444  1.4071
11783TIP3   OH256763   5.880   2.481  16.210  0.2267  0.7810 -0.3850
11783TIP3    H156764   5.879   2.574  16.186 -0.5015  0.5261 -1.4074
11783TIP3    H256765   5.806   2.471  16.270 -0.1193  0.7384 -0.8118
11784TIP3   OH256766   6.214   5.063   4.744  0.3269  0.6881 -0.4448
11784TIP3    H156767   6.168   5.114   4.811  1.1612 -0.0533  0.7386
11784TIP3    H256768   6.176   4.975   4.751  0.7060  0.5051 -0.6539
11785TIP3   OH256769   0.894   6.436  12.596 -0.3325  0.8578 -0.1301
11785TIP3    H156770   0.906   6.492  12.672 -1.7310  0.8463  0.1169
11785TIP3    H256771   0.801   6.443  12.575 -0.1845 -0.0061 -1.1646
11786TIP3   OH256772   6.579   3.805   2.119  0.0939 -0.1918 -0.4432
11786TIP3    H156773   6.561   3.893   2.084  0.0036 -0.9987 -2.5477
11786TIP3    H256774   6.673   3.795   2.112 -0.0603 -0.8463 -1.7186
11787TIP3   OH256775   0.089   2.756   2.046 -0.6087  0.0377  0.3092
11787TIP3    H156776   0.065   2.748   2.138 -0.3809 -0.7787  0.3093
11787TIP3    H256777   0.042   2.684   2.003  0.1180 -0.2382 -0.0367
11788TIP3   OH256778   6.788   6.061   2.162  0.3038 -0.1097  0.2631
11788TIP3    H156779   6.783   6.007   2.083  1.6535 -0.4324  0.3776
11788TIP3    H256780   6.867   6.031   2.207 -0.3717  0.1496  1.6866
11789TIP3   OH256781   2.818   5.839   4.322  0.3232 -0.1845  0.2721
11789TIP3    H156782   2.817   5.745   4.338 -2.1273 -0.7327 -2.2437
11789TIP3    H256783   2.878   5.850   4.248  0.0283  0.1049  0.0728
11790TIP3   OH256784   4.736   3.000  14.557  0.4085  0.0181  0.1290
11790TIP3    H156785   4.714   2.967  14.644  0.4276  1.2842  0.6436
11790TIP3    H256786   4.656   2.990  14.506  0.1994 -0.1257  0.4858
11791TIP3   OH256787   0.507   1.478  12.364  0.0305  0.4200 -0.1100
11791TIP3    H156788   0.470   1.536  12.430 -1.1908 -1.2136  0.7040
11791TIP3    H256789   0.431   1.435  12.325  0.9296 -1.2156 -0.1214
11792TIP3   OH256790   0.111   5.649   4.831 -0.0199 -0.2633  0.1339
11792TIP3    H156791   0.119   5.707   4.755  1.4709 -2.0219 -1.1265
11792TIP3    H256792   0.017   5.633   4.839 -0.1898 -0.1982 -1.4729
11793TIP3   OH256793   5.370   5.921  16.396 -0.7604 -1.0714  0.2918
11793TIP3    H156794   5.338   5.862  16.464  0.3614 -1.8951  0.1303
11793TIP3    H256795   5.362   6.008  16.434 -3.4786 -1.1632  0.1365
11794TIP3   OH256796   0.224   4.223  11.296 -0.1189 -0.5584 -0.4501
11794TIP3    H156797   0.300   4.270  11.330 -0.1259 -1.2829  0.6092
11794TIP3    H256798   0.201   4.271  11.216 -1.3625  2.5102  1.5459
11795TIP3   OH256799   0.835   5.400  12.560  0.3581 -0.5489  0.4022
11795TIP3    H156800   0.785   5.479  12.582  1.7158  0.3580  0.3068
11795TIP3    H256801   0.791   5.365  12.483  0.4494  0.7911 -0.2844
11796TIP3   OH256802   0.572   6.460  12.259  0.3304 -0.0688  0.2644
11796TIP3    H156803   0.594   6.450  12.352  0.1905 -0.1580  0.2875
11796TIP3    H256804   0.484   6.424  12.251  0.5545 -0.5663 -0.0074
11797TIP3   OH256805   3.072   5.944   0.777 -0.4210 -0.7621 -0.2346
11797TIP3    H156806   3.078   5.906   0.865 -1.9947 -1.1341 -0.2621
11797TIP3    H256807   3.103   6.034   0.787 -0.1397 -0.9425  0.5866
11798TIP3   OH256808   0.261   3.940  12.425 -0.3190  0.5320 -0.5428
11798TIP3    H156809   0.304   3.896  12.352 -0.4895 -0.1433 -0.2443
11798TIP3    H256810   0.239   4.027  12.392  1.1355  0.8473 -0.7572
11799TIP3   OH256811   2.353   5.038  14.836  1.1148 -0.2079 -0.0858
11799TIP3    H156812   2.346   4.948  14.804 -1.0522 -0.6569  1.4185
11799TIP3    H256813   2.417   5.033  14.908  1.0872 -0.5211 -0.0798
11800TIP3   OH256814   3.361   1.073  13.409  0.5239  0.5649 -0.2117
11800TIP3    H156815   3.374   1.122  13.490 -1.3895 -0.6411  0.9104
11800TIP3    H256816   3.369   0.982  13.435 -0.8587  0.1276 -1.1976
11801TIP3   OH256817   4.039   0.978  14.767  0.2815 -0.0457  0.0463
11801TIP3    H156818   4.082   1.060  14.793  0.0132  0.0270  0.2684
11801TIP3    H256819   3.947   1.002  14.757 -0.0957 -0.6738  1.7563
11802TIP3   OH256820   0.682   6.725  10.895 -0.2303 -0.2273  1.3713
11802TIP3    H156821   0.768   6.729  10.853  0.3772 -0.9845  2.4868
11802TIP3    H256822   0.654   6.634  10.886 -1.0005  0.0436  0.8838
11803TIP3   OH256823   4.577   2.257  16.396  0.0328 -0.1956  0.1135
11803TIP3    H156824   4.494   2.284  16.357 -1.1985 -1.8779  1.4211
11803TIP3    H256825   4.592   2.169  16.361  0.5498 -0.4389  0.9262
11804TIP3   OH256826   4.954   6.209  13.440 -0.2217  0.4353  0.0694
11804TIP3    H156827   4.893   6.203  13.514 -0.7177 -3.5296 -0.4668
11804TIP3    H256828   4.899   6.200  13.363  0.7800 -1.2641 -0.5013
11805TIP3   OH256829   3.120   4.793   0.121  0.2551 -0.1959  0.0471
11805TIP3    H156830   3.040   4.845   0.127 -0.0089 -0.1845 -2.3834
11805TIP3    H256831   3.090   4.704   0.107  0.6574 -0.2532 -0.4886
11806TIP3   OH256832   4.398   4.517   4.976 -0.8279 -0.1333 -0.0988
11806TIP3    H156833   4.351   4.515   4.892 -0.2991  0.5833 -0.4301
11806TIP3    H256834   4.474   4.461   4.962 -1.0126 -0.4293  0.0774
11807TIP3   OH256835   0.676   5.705  15.535 -0.2998  0.0576  0.1997
11807TIP3    H156836   0.590   5.715  15.575  0.0345 -4.3900  2.6108
11807TIP3    H256837   0.698   5.613  15.547  3.5142  0.2578 -3.1572
11808TIP3   OH256838   2.806   2.838   5.081  0.0299  0.3213  0.4886
11808TIP3    H156839   2.841   2.785   5.009 -1.9094 -1.2520  0.6044
11808TIP3    H256840   2.794   2.776   5.153 -0.0999  1.4197  1.4424
11809TIP3   OH256841   5.118   3.985   2.799  0.0785 -0.5505 -0.2961
11809TIP3    H156842   5.150   3.962   2.886 -0.8980  1.5661  0.6935
11809TIP3    H256843   5.167   4.063   2.775 -0.2819 -0.6118 -1.2759
11810TIP3   OH256844   4.601   4.652  15.630  0.0310 -0.2606 -0.4452
11810TIP3    H156845   4.523   4.670  15.578 -0.0575 -0.9727 -0.5755
11810TIP3    H256846   4.627   4.563  15.604  1.0460  0.0654 -0.6039
11811TIP3   OH256847   4.325   3.506   0.930 -0.1224 -0.1509 -0.0275
11811TIP3    H156848   4.278   3.553   0.861 -1.1748 -0.2142  0.6242
11811TIP3    H256849   4.288   3.418   0.929 -0.0230 -0.2009  0.4947
11812TIP3   OH256850   5.071   1.128  12.044  0.5990  0.5595 -0.2440
11812TIP3    H156851   5.039   1.040  12.064  1.0220  0.6301  0.7951
11812TIP3    H256852   5.066   1.134  11.949 -1.6000  0.2325 -0.2068
11813TIP3   OH256853   1.551   6.616  15.950  0.0465 -0.5329  0.1514
11813TIP3    H156854   1.632   6.603  15.901  0.2208  0.0272  0.2759
11813TIP3    H256855   1.492   6.658  15.888 -0.1224 -0.8667  0.0849
11814TIP3   OH256856   5.709   2.221  13.672 -0.2543 -0.3572  0.5168
11814TIP3    H156857   5.755   2.147  13.634 -0.1197  0.5742 -1.2220
11814TIP3    H256858   5.778   2.276  13.710 -0.2527 -0.5318  0.7733
11815TIP3   OH256859   2.613   1.813   4.107 -0.0954  0.3145 -0.1085
11815TIP3    H156860   2.677   1.750   4.074 -0.7379  1.2373 -3.5468
11815TIP3    H256861   2.656   1.898   4.096  0.0294  0.6949  2.6510
11816TIP3   OH256862   4.684   5.220   4.507  0.2184  0.1498 -0.4151
11816TIP3    H156863   4.596   5.181   4.504  0.1075  0.2015  1.3145
11816TIP3    H256864   4.683   5.275   4.585  2.0580 -0.5443  0.1469
11817TIP3   OH256865   6.136   4.443   5.572 -0.5246  0.3074 -0.1057
11817TIP3    H156866   6.168   4.510   5.634  0.4454 -0.5707  0.3841
11817TIP3    H256867   6.129   4.489   5.489 -1.8001  1.5116  0.6081
11818TIP3   OH256868   2.244   0.768   0.644 -0.1410 -0.1071  0.5494
11818TIP3    H156869   2.177   0.834   0.631 -0.1266 -0.2368 -0.2635
11818TIP3    H256870   2.214   0.717   0.719 -1.8048 -1.1734 -0.7460
11819TIP3   OH256871   4.013   2.027   2.814  0.5377  0.0867 -0.1201
11819TIP3    H156872   4.055   2.108   2.844  0.3719  0.3955 -0.6923
11819TIP3    H256873   4.085   1.973   2.784  0.5797  0.4218 -0.6469
11820TIP3   OH256874   4.108   1.163   0.052 -0.1137  0.3158 -0.0631
11820TIP3    H156875   4.038   1.137  -0.008 -1.4233 -0.8665  1.8742
11820TIP3    H256876   4.070   1.235   0.103 -0.2633 -0.8315  1.5231
11821TIP3   OH256877   6.264   5.443  10.631 -0.0318 -0.1698 -0.0254
11821TIP3    H156878   6.271   5.461  10.725 -0.0496  0.0975 -0.0746
11821TIP3    H256879   6.247   5.528  10.592 -1.1018 -0.4384 -0.1634
11822TIP3   OH256880   5.389   5.721   4.523 -0.0898  0.3894  0.2021
11822TIP3    H156881   5.428   5.746   4.439  0.1419  2.9701  0.9830
11822TIP3    H256882   5.453   5.749   4.588 -1.1988  0.4263  1.3119
11823TIP3   OH256883   5.890   6.472   2.498  0.0109  0.0744  0.3268
11823TIP3    H156884   5.919   6.381   2.504  0.4782  0.2473  0.7510
11823TIP3    H256885   5.813   6.468   2.441 -0.4770 -0.6999  1.0133
11824TIP3   OH256886   3.337   5.940   0.324 -0.5547  0.2780  0.7296
11824TIP3    H156887   3.287   6.012   0.285 -1.0632  0.4700  1.7106
11824TIP3    H256888   3.322   5.949   0.418  2.2445  1.0282  1.1872
11825TIP3   OH256889   4.232   0.509   1.791 -0.7017 -0.2045 -0.1885
11825TIP3    H156890   4.159   0.448   1.803 -0.2242 -0.7483 -0.0372
11825TIP3    H256891   4.190   0.591   1.765 -1.3911 -0.4223  0.2202
11826TIP3   OH256892   0.800   2.104   6.159  0.4013  0.1428  0.1160
11826TIP3    H156893   0.731   2.040   6.180  0.3644 -0.1912 -0.9633
11826TIP3    H256894   0.873   2.051   6.128  1.2544  0.4803  1.4466
11827TIP3   OH256895   0.766   3.021   4.297  0.0165 -0.1079  0.0443
11827TIP3    H156896   0.837   2.958   4.283  1.2069  0.2354  3.5253
11827TIP3    H256897   0.766   3.075   4.219  2.3505 -1.2971 -0.8635
11828TIP3   OH256898   6.382   6.129   4.309  0.3755 -0.0126 -0.4221
11828TIP3    H156899   6.388   6.147   4.403 -0.5583 -3.1716  0.3616
11828TIP3    H256900   6.451   6.065   4.293 -0.5588 -0.7645 -1.5287
11829TIP3   OH256901   0.586   3.782  13.891 -0.2616 -0.2222  0.6151
11829TIP3    H156902   0.632   3.768  13.809  0.5455 -0.9303  1.1635
11829TIP3    H256903   0.520   3.848  13.871 -0.2390 -0.5607 -0.6500
11830TIP3   OH256904   5.684   0.925   4.218  0.3227  0.5262 -0.4279
11830TIP3    H156905   5.710   0.952   4.129 -2.1823  0.1958 -1.3280
11830TIP3    H256906   5.649   1.004   4.258  1.0850  0.5800  0.1476
11831TIP3   OH256907   2.187   6.454   2.966 -0.1411 -0.7567 -0.1071
11831TIP3    H156908   2.105   6.430   3.008 -0.1514 -1.6565 -0.6019
11831TIP3    H256909   2.221   6.526   3.018 -1.8189  0.4346 -0.5756
11832TIP3   OH256910   3.755   2.290   1.631  0.1787  0.4585 -0.4612
11832TIP3    H156911   3.821   2.313   1.566  1.7720  0.1265  0.9321
11832TIP3    H256912   3.671   2.308   1.590  1.1771  2.0797 -1.8752
11833TIP3   OH256913   0.690   4.828   0.426 -0.2184 -0.1767 -0.1527
11833TIP3    H156914   0.617   4.766   0.420 -0.3327 -0.0853  0.2853
11833TIP3    H256915   0.732   4.808   0.510  1.6015 -1.7070 -1.3190
11834TIP3   OH256916   3.840   3.901   0.054  0.2017 -0.2039  0.1272
11834TIP3    H156917   3.807   3.990   0.061  1.2174  0.1879  0.0161
11834TIP3    H256918   3.914   3.907  -0.007 -0.0895 -1.2219 -0.3525
11835TIP3   OH256919   1.238   2.190   2.244 -0.1296 -0.0674  0.4166
11835TIP3    H156920   1.308   2.169   2.183 -0.8935 -0.7842 -0.2250
11835TIP3    H256921   1.203   2.274   2.213  0.9112  0.6662  1.1753
11836TIP3   OH256922   2.481   2.038   0.144 -0.4400  0.1657 -0.2384
11836TIP3    H156923   2.482   2.003   0.055 -0.0387 -0.0137 -0.1626
11836TIP3    H256924   2.483   1.960   0.200  4.3707  0.1699  0.0203
11837TIP3   OH256925   6.497   1.670   5.557 -0.6587  0.5354 -0.5222
11837TIP3    H156926   6.584   1.650   5.521 -1.3611 -1.3018 -1.3057
11837TIP3    H256927   6.450   1.587   5.553 -2.5851  1.5750 -0.4611
11838TIP3   OH256928   0.040   1.170  11.333  0.1124  0.1546  0.6251
11838TIP3    H156929   0.020   1.161  11.426  0.6641 -0.7600  0.6716
11838TIP3    H256930  -0.034   1.129  11.288  0.4725 -0.5964  0.7077
11839TIP3   OH256931   6.060   6.342   2.174  0.4439  0.3132  0.0378
11839TIP3    H156932   6.122   6.367   2.242 -1.2483  2.4922  0.9005
11839TIP3    H256933   6.074   6.406   2.104 -1.5163  1.5901  0.7304
11840TIP3   OH256934   5.323   4.788   0.286 -0.4831  0.0615 -0.0920
11840TIP3    H156935   5.285   4.738   0.358  1.2958 -1.6065 -0.2161
11840TIP3    H256936   5.409   4.748   0.272  0.1151  1.7568 -1.7115
11841TIP3   OH256937   1.001   0.264   4.384  0.4079 -0.1327  0.4311
11841TIP3    H156938   0.960   0.181   4.408  0.2090  0.2832  1.6070
11841TIP3    H256939   1.060   0.283   4.457 -0.4650  1.3565  0.7806
11842TIP3   OH256940   0.403   4.317   4.408  0.3941 -0.2326  0.0550
11842TIP3    H156941   0.408   4.237   4.460 -2.1948 -0.8253 -0.5047
11842TIP3    H256942   0.485   4.318   4.358  1.8291 -0.9264  2.2347
11843TIP3   OH256943   0.787   0.919   5.860  0.5903  0.4463  0.0827
11843TIP3    H156944   0.699   0.952   5.839  0.1694 -1.1514 -0.7882
11843TIP3    H256945   0.836   0.930   5.779  0.8173  0.1289  0.1783
11844TIP3   OH256946   4.849   2.016  13.513  0.0334 -0.2251 -0.0254
11844TIP3    H156947   4.886   1.950  13.454 -0.5663 -1.3107  0.8017
11844TIP3    H256948   4.902   2.011  13.592 -0.0019  0.3045  0.0369
11845TIP3   OH256949   4.660   6.159   0.423 -0.0667  0.4277 -0.2878
11845TIP3    H156950   4.598   6.190   0.489  0.9011  0.3419  0.6839
11845TIP3    H256951   4.676   6.068   0.446 -1.1557 -0.1871 -1.7922
11846TIP3   OH256952   4.426   3.374  15.863 -0.3054 -0.2049 -0.3179
11846TIP3    H156953   4.508   3.410  15.896  1.4135 -1.0401 -3.2328
11846TIP3    H256954   4.433   3.279  15.878 -1.5797 -0.1206  0.9805
11847TIP3   OH256955   6.792   4.452  12.878 -0.3006 -0.0593  0.2842
11847TIP3    H156956   6.867   4.478  12.824  0.3463 -1.1633  0.6141
11847TIP3    H256957   6.798   4.508  12.956 -0.7800  0.9883 -0.4089
11848TIP3   OH256958   0.261   4.646  11.554 -0.0836 -0.0121 -0.0916
11848TIP3    H156959   0.226   4.719  11.604  1.2404 -0.3193  1.3920
11848TIP3    H256960   0.356   4.662  11.550  0.5990 -2.6124  2.1716
11849TIP3   OH256961   3.468   0.498  15.088  0.2613 -0.5192  0.1170
11849TIP3    H156962   3.498   0.450  15.166 -1.7860  1.1525  2.0983
11849TIP3    H256963   3.373   0.485  15.088 -0.1394  1.9035 -0.3288
11850TIP3   OH256964   0.228   0.893  14.434 -0.2706 -0.3730  0.2555
11850TIP3    H156965   0.310   0.943  14.438 -0.2498 -0.4906  1.8110
11850TIP3    H256966   0.241   0.821  14.495 -1.4999 -0.4445  0.4534
11851TIP3   OH256967   2.507   6.010   3.589  0.0876  0.1792  0.0021
11851TIP3    H156968   2.538   6.076   3.527 -2.0786  1.9985  0.7404
11851TIP3    H256969   2.556   6.028   3.669  2.5088 -1.8497 -0.8559
11852TIP3   OH256970   6.627   1.604   1.857  0.0212 -0.1883  0.2710
11852TIP3    H156971   6.576   1.617   1.777  0.6911  0.2616 -0.0891
11852TIP3    H256972   6.614   1.511   1.879  0.7081 -0.5938 -0.9693
11853TIP3   OH256973   1.574   2.268  11.275  0.2370  0.0763  0.5956
11853TIP3    H156974   1.600   2.268  11.183 -1.3277  0.0385  0.1212
11853TIP3    H256975   1.649   2.306  11.322  0.9826  0.2585 -0.7086
11854TIP3   OH256976   1.764   1.266   1.964 -0.2757 -0.2789 -0.0090
11854TIP3    H156977   1.846   1.278   2.010 -0.3187 -1.3674  0.3821
11854TIP3    H256978   1.755   1.344   1.909 -0.1275  0.9444  1.6562
11855TIP3   OH256979   4.745   6.661  13.492 -0.1335 -0.2002  0.2331
11855TIP3    H156980   4.683   6.729  13.520 -0.5999 -0.7111  0.4601
11855TIP3    H256981   4.790   6.635  13.572  2.1529  1.8664 -0.2574
11856TIP3   OH256982   0.827   5.754   3.992 -0.0328  0.2733 -0.2702
11856TIP3    H156983   0.857   5.703   3.917  0.3263  1.1146 -0.7191
11856TIP3    H256984   0.907   5.771   4.042 -0.0177  0.9808 -0.5089
11857TIP3   OH256985   5.615   3.192  15.444 -0.0035  0.9825  0.0684
11857TIP3    H156986   5.689   3.181  15.384  0.3065 -1.1479  0.7269
11857TIP3    H256987   5.538   3.196  15.388  0.1804 -1.8922 -0.5657
11858TIP3   OH256988   2.074   1.427   3.468  0.5540  0.5604  0.1081
11858TIP3    H156989   2.057   1.474   3.549 -1.7313 -1.6635  1.0700
11858TIP3    H256990   2.152   1.374   3.486 -0.1290 -0.1646  1.0201
11859TIP3   OH256991   2.511   1.025   3.570 -0.4393 -0.0791  0.5737
11859TIP3    H156992   2.481   0.957   3.510  0.8839 -1.4914  1.4593
11859TIP3    H256993   2.514   1.105   3.517  1.5419 -1.4461 -1.5348
11860TIP3   OH256994   6.435   1.335  15.890 -0.1786 -0.0433 -0.1085
11860TIP3    H156995   6.527   1.356  15.906 -0.5304  0.0479  2.0740
11860TIP3    H256996   6.387   1.407  15.932 -1.2936 -2.1368  2.4599
11861TIP3   OH256997   5.460   2.677   4.673 -0.2999  0.6214  0.1222
11861TIP3    H156998   5.446   2.601   4.729 -1.6615  1.4666  0.9790
11861TIP3    H256999   5.511   2.643   4.599 -0.5770 -1.0313  0.6541
11862TIP3   OH257000   2.524   2.058   4.589 -0.0552  0.1601 -0.3494
11862TIP3    H157001   2.528   2.051   4.494 -1.8609  0.6174 -0.4907
11862TIP3    H257002   2.507   1.968   4.619  0.3688  0.0415 -0.4596
11863TIP3   OH257003   0.412   6.212   2.897  0.3278 -0.3366  0.3621
11863TIP3    H157004   0.359   6.196   2.975 -1.3073 -1.5570 -0.9280
11863TIP3    H257005   0.392   6.302   2.872 -0.6193 -0.5518  0.3041
11864TIP3   OH257006   2.687   4.767   3.998 -0.1417  0.3789 -0.0343
11864TIP3    H157007   2.720   4.699   4.056 -1.2799  0.5430  0.8676
11864TIP3    H257008   2.591   4.760   4.006 -0.2807  1.8357 -0.1928
11865TIP3   OH257009   6.207   6.327   1.316  0.0691 -0.5170 -0.1980
11865TIP3    H157010   6.229   6.405   1.264  1.2957  0.2446  1.3471
11865TIP3    H257011   6.133   6.355   1.370  0.7220 -0.2642  0.5990
11866TIP3   OH257012   2.465   6.291  12.297 -0.4075 -0.3479  0.4057
11866TIP3    H157013   2.372   6.294  12.318 -0.3280  3.0255  0.8978
11866TIP3    H257014   2.478   6.365  12.237  2.0179 -0.4797  0.6663
11867TIP3   OH257015   2.669   2.642  17.025 -0.2236 -0.5278  0.6115
11867TIP3    H157016   2.616   2.692  17.088  0.9524  0.5846  0.7604
11867TIP3    H257017   2.685   2.704  16.953  0.1876 -1.1053  0.1996
11868TIP3   OH257018   6.578   5.918  16.306 -0.5867 -0.1614  0.4267
11868TIP3    H157019   6.544   6.005  16.287 -0.7343 -0.5369 -1.2016
11868TIP3    H257020   6.500   5.862  16.312 -0.4227 -0.5537 -0.7419
11869TIP3   OH257021   5.729   3.312   4.907 -0.2777  0.1781  0.3828
11869TIP3    H157022   5.807   3.331   4.958 -0.2412  0.0777  0.3652
11869TIP3    H257023   5.762   3.295   4.818 -0.3853  0.8706  0.2022
11870TIP3   OH257024   6.756   4.245  16.764  0.1666 -0.2702 -0.4537
11870TIP3    H157025   6.796   4.274  16.846 -1.0199 -0.4150  0.1912
11870TIP3    H257026   6.825   4.197  16.719  1.2202  0.8820 -0.1216
11871TIP3   OH257027   4.264   0.423   4.136  0.4877 -0.2266 -0.2184
11871TIP3    H157028   4.210   0.448   4.061  1.5014 -2.4486 -1.7949
11871TIP3    H257029   4.309   0.504   4.160 -2.1597  1.2838  0.0712
11872TIP3   OH257030   3.964   1.594   0.818  0.0707 -0.0722  0.0977
11872TIP3    H157031   3.974   1.686   0.791 -2.5195  0.2050 -0.1771
11872TIP3    H257032   3.919   1.553   0.745  0.2426 -1.3215  0.6726
11873TIP3   OH257033   4.995   4.597   4.705 -0.1474 -0.3607  0.0483
11873TIP3    H157034   4.994   4.689   4.732  1.3586 -0.5868  0.9688
11873TIP3    H257035   5.016   4.548   4.785 -0.8611 -1.5221 -0.4349
11874TIP3   OH257036   4.198   4.677   0.116 -0.1209 -0.4541 -0.2986
11874TIP3    H157037   4.260   4.702   0.184  1.8004  1.9354 -2.7049
11874TIP3    H257038   4.215   4.584   0.101  0.8988 -0.5076  1.0201
11875TIP3   OH257039   5.126   4.257  12.882 -0.1015 -0.2673  0.6350
11875TIP3    H157040   5.197   4.288  12.938 -0.3927  0.4840  0.5978
11875TIP3    H257041   5.092   4.180  12.927 -0.1622  0.1739  1.3544
11876TIP3   OH257042   5.379   4.214  11.812  0.5817  0.9505 -0.4647
11876TIP3    H157043   5.430   4.290  11.783 -0.4772  2.1469  0.7040
11876TIP3    H257044   5.333   4.244  11.890 -0.5496 -0.6386 -0.4766
11877TIP3   OH257045   4.885   5.344   0.970 -0.1822 -0.6406 -0.5637
11877TIP3    H157046   4.959   5.404   0.976  0.5205 -1.5927  0.8832
11877TIP3    H257047   4.842   5.350   1.056 -1.7026 -0.2271 -1.3246
11878TIP3   OH257048   5.507   3.970   2.068 -0.3574 -0.0839 -0.6312
11878TIP3    H157049   5.589   3.920   2.061 -0.5746 -0.5881  0.2266
11878TIP3    H257050   5.535   4.060   2.084  0.0564 -0.4788  1.0741
11879TIP3   OH257051   2.204   0.915  12.475  0.1629  0.1766 -0.2799
11879TIP3    H157052   2.233   0.844  12.418 -1.3261 -0.2987 -0.4727
11879TIP3    H257053   2.110   0.921  12.461 -0.5021 -0.7719  2.9617
11880TIP3   OH257054   3.471   1.862  14.423 -0.5171  0.0800 -0.3085
11880TIP3    H157055   3.535   1.932  14.430 -0.1264 -0.1058 -1.6659
11880TIP3    H257056   3.427   1.860  14.508  2.6185 -1.1567  1.4594
11881TIP3   OH257057   1.664   1.979   0.939  0.3079  0.3975  0.8312
11881TIP3    H157058   1.610   2.041   0.987 -0.9346  0.9473 -1.1694
11881TIP3    H257059   1.605   1.906   0.919  0.2121  1.0165 -1.4073
11882TIP3   OH257060   4.390   1.520   1.516  0.5851 -0.2753 -0.0058
11882TIP3    H157061   4.396   1.547   1.424 -1.1822  0.0518 -0.0691
11882TIP3    H257062   4.397   1.601   1.566 -2.5272  0.1827 -0.0987
11883TIP3   OH257063   1.160   6.338   1.098 -0.5538 -0.0716  0.0584
11883TIP3    H157064   1.139   6.298   1.182  1.2952  1.7168  1.4819
11883TIP3    H257065   1.250   6.309   1.079  0.9596  3.3330  1.2721
11884TIP3   OH257066   4.295   1.611   4.388  0.3902  0.0332 -0.2634
11884TIP3    H157067   4.243   1.659   4.452  1.1564  0.0345  0.3806
11884TIP3    H257068   4.386   1.631   4.411  0.7040 -0.8704 -0.6462
11885TIP3   OH257069   5.591   2.505  16.121  0.6738 -0.2359 -0.0459
11885TIP3    H157070   5.598   2.492  16.215 -0.8206 -0.5745  0.0424
11885TIP3    H257071   5.499   2.490  16.101  0.3602  2.4293 -1.1433
11886TIP3   OH257072   1.301   5.701   3.462  0.1202  0.4844  0.3673
11886TIP3    H157073   1.390   5.679   3.435 -1.2059 -2.9224 -1.9363
11886TIP3    H257074   1.278   5.633   3.526 -1.6227 -0.2771 -1.0077
11887TIP3   OH257075   2.847   4.633   1.234 -0.2294  0.2343  0.6499
11887TIP3    H157076   2.839   4.671   1.147  1.0946  1.5336  1.0365
11887TIP3    H257077   2.883   4.546   1.219  1.0996  0.8680 -0.0881
11888TIP3   OH257078   4.458   1.718  10.619 -0.5451  0.0970  0.2367
11888TIP3    H157079   4.464   1.631  10.578 -0.0693 -0.2153  0.9451
11888TIP3    H257080   4.517   1.773  10.568  1.2129 -0.6484  1.3541
11889TIP3   OH257081   2.250   3.229  13.443 -0.4987 -0.0485 -1.0403
11889TIP3    H157082   2.190   3.301  13.462  0.1969  0.1096  0.7446
11889TIP3    H257083   2.192   3.154  13.427 -1.1952  0.4347 -0.8363
11890TIP3   OH257084   4.627   4.204  16.106  0.0022 -0.3469  0.6449
11890TIP3    H157085   4.623   4.211  16.201 -1.4842  1.1572  0.5121
11890TIP3    H257086   4.535   4.207  16.077  0.3529 -1.7425 -0.7965
11891TIP3   OH257087   5.979   1.286   4.226  0.1379  0.5072 -0.0269
11891TIP3    H157088   6.021   1.205   4.253  1.0388  0.2870 -1.8836
11891TIP3    H257089   6.000   1.349   4.295  2.1315 -0.0356 -0.0999
11892TIP3   OH257090   2.208   3.063   0.465 -0.5562  0.1521 -0.6540
11892TIP3    H157091   2.262   3.023   0.532  0.6038 -1.9685 -2.7120
11892TIP3    H257092   2.119   3.034   0.485  0.1320 -2.9129 -1.5344
11893TIP3   OH257093   0.196   0.870  14.167 -0.1573  0.5974  0.4810
11893TIP3    H157094   0.198   0.836  14.256 -1.3532 -0.7092  0.0481
11893TIP3    H257095   0.277   0.920  14.158 -0.4750  1.5758  2.5884
11894TIP3   OH257096   3.042   5.193  14.854  0.4620  0.2415  0.3800
11894TIP3    H157097   3.020   5.103  14.875  1.3995 -0.0706  0.0734
11894TIP3    H257098   3.080   5.228  14.935  1.5746 -0.1417  0.0481
11895TIP3   OH257099   2.984   0.526   5.630  0.6159  0.8420  0.2817
11895TIP3    H157100   3.013   0.439   5.655  0.0306  0.3969 -0.5435
11895TIP3    H257101   3.052   0.558   5.570 -0.5996 -0.2652 -1.7793
11896TIP3   OH257102   4.745   4.042  12.168 -0.1983 -0.2499 -0.5731
11896TIP3    H157103   4.655   4.010  12.178  0.0490 -1.2995 -1.4887
11896TIP3    H257104   4.791   4.011  12.246 -0.4536 -0.3680 -0.4681
11897TIP3   OH257105   5.676   2.153   5.718  0.1704  0.2870 -0.4595
11897TIP3    H157106   5.594   2.136   5.673 -0.5814  1.2503  0.4860
11897TIP3    H257107   5.674   2.098   5.796  0.3323  0.4426 -0.3417
11898TIP3   OH257108   3.578   3.074   5.068  0.3707 -0.0259 -0.1474
11898TIP3    H157109   3.570   3.006   5.001  1.1240  0.8119 -1.1336
11898TIP3    H257110   3.507   3.136   5.048  1.1828  0.7264 -0.8199
11899TIP3   OH257111   6.143   3.926  13.249 -0.6462  0.0667  0.7121
11899TIP3    H157112   6.121   3.854  13.308  0.1453  0.9382  2.1092
11899TIP3    H257113   6.137   4.004  13.303  2.2752  0.6985  0.2681
11900TIP3   OH257114   1.994   1.344  11.946  0.2233 -0.2548  0.9169
11900TIP3    H157115   1.998   1.438  11.958  1.4217 -0.2285  0.4407
11900TIP3    H257116   2.082   1.313  11.968  0.4541 -1.0029 -0.8665
11901TIP3   OH257117   6.228   1.917  13.777 -0.8395 -0.3852 -0.3533
11901TIP3    H157118   6.191   1.989  13.726  1.8373 -0.5056 -2.6499
11901TIP3    H257119   6.183   1.839  13.744 -1.8133 -0.0972  0.2361
11902TIP3   OH257120   5.554   0.191   4.184  0.2137 -0.5719  0.1339
11902TIP3    H157121   5.602   0.273   4.196  0.8710 -1.0873  1.2200
11902TIP3    H257122   5.580   0.161   4.097 -0.9061  0.8974 -0.7673
11903TIP3   OH257123   5.809   3.923  10.513 -0.2227 -0.2203 -0.0417
11903TIP3    H157124   5.736   3.890  10.461 -0.7457  1.7488 -0.6487
11903TIP3    H257125   5.802   3.877  10.596 -1.9056 -0.3805 -0.2438
11904TIP3   OH257126   0.399   5.653  11.041  0.0078  0.0916 -0.4469
11904TIP3    H157127   0.479   5.702  11.024 -0.0496 -0.0517 -1.1803
11904TIP3    H257128   0.407   5.575  10.986 -0.4390 -0.1331 -0.1970
11905TIP3   OH257129   2.549   0.465   1.587 -0.2350  0.2541 -0.4713
11905TIP3    H157130   2.543   0.512   1.504 -2.0071 -2.0552 -1.7657
11905TIP3    H257131   2.470   0.489   1.634 -0.1294  0.1570 -0.2396
11906TIP3   OH257132   0.873   4.573   5.994  0.4301  0.0697  0.4437
11906TIP3    H157133   0.793   4.625   5.987 -0.5636 -1.4772 -0.4644
11906TIP3    H257134   0.854   4.510   6.065  0.6406 -0.5967 -0.0804
11907TIP3   OH257135   3.710   2.517   5.983  0.2220 -0.5579 -0.0771
11907TIP3    H157136   3.788   2.463   5.973  0.0512 -1.5391  2.8138
11907TIP3    H257137   3.676   2.495   6.070 -0.7649  3.0621  0.6496
11908TIP3   OH257138   3.917   1.575  11.350  0.3980  0.2487 -0.9199
11908TIP3    H157139   3.977   1.502  11.358 -0.5426 -0.3797  0.8773
11908TIP3    H257140   3.973   1.653  11.356  1.0872 -0.3214  0.3312
11909TIP3   OH257141   2.269   0.173   3.853  0.0415 -0.2703 -0.3011
11909TIP3    H157142   2.183   0.199   3.822 -0.9213 -0.3072  2.1349
11909TIP3    H257143   2.321   0.254   3.852 -0.6251  0.1665  0.0577
11910TIP3   OH257144   5.332   1.306   2.856 -0.0142 -0.0986  0.2034
11910TIP3    H157145   5.320   1.216   2.826  0.4024  0.3203 -1.2862
11910TIP3    H257146   5.403   1.340   2.802 -1.1421  1.5733 -0.3159
11911TIP3   OH257147   4.041   2.943   4.855  0.2536  0.3036 -0.4494
11911TIP3    H157148   3.982   2.869   4.872 -1.3130  1.8260  1.1855
11911TIP3    H257149   4.019   2.973   4.767 -0.1410 -0.2578 -0.5415
11912TIP3   OH257150   3.759   5.436  15.051  0.2839  0.1120 -0.1116
11912TIP3    H157151   3.668   5.408  15.057  0.0688  0.8117 -0.0281
11912TIP3    H257152   3.769   5.500  15.122  0.7227  0.3522 -0.3905
11913TIP3   OH257153   1.191   2.380  16.223 -0.0130  0.3778  0.4191
11913TIP3    H157154   1.163   2.422  16.142  0.4023 -1.6712 -0.8839
11913TIP3    H257155   1.285   2.397  16.229 -0.4268  2.5904  1.8527
11914TIP3   OH257156   3.575   6.616  12.566 -0.1370 -0.1511  0.4700
11914TIP3    H157157   3.626   6.599  12.644  0.8761  0.6693  0.0144
11914TIP3    H257158   3.635   6.598  12.493 -0.5352  0.6490 -0.0759
11915TIP3   OH257159   3.011   5.707   0.591 -0.6918  0.2483  0.0081
11915TIP3    H157160   3.053   5.770   0.650  0.6116  0.2798 -0.9075
11915TIP3    H257161   2.917   5.716   0.609 -0.3911  0.8125  1.5009
11916TIP3   OH257162   4.500   4.174  12.530  0.0042 -0.0507  0.8272
11916TIP3    H157163   4.561   4.103  12.508 -0.6894  0.1263 -2.0823
11916TIP3    H257164   4.556   4.252  12.537  0.5559 -0.5482  2.3315
11917TIP3   OH257165   1.943   6.572   0.226 -1.3866 -0.3794 -0.1767
11917TIP3    H157166   2.021   6.628   0.222 -2.0377  0.4987 -1.4424
11917TIP3    H257167   1.975   6.489   0.261 -0.1766  0.4253  0.7443
11918TIP3   OH257168   5.968   0.724   5.490 -0.2902  0.0274 -0.3365
11918TIP3    H157169   5.990   0.676   5.410  1.8498 -0.0621  0.2559
11918TIP3    H257170   6.043   0.781   5.505 -0.1176 -0.7556  2.1910
11919TIP3   OH257171   2.096   4.329  16.161 -0.5204 -0.3381 -0.1138
11919TIP3    H157172   2.168   4.269  16.180  0.2962  0.0056 -1.8608
11919TIP3    H257173   2.100   4.394  16.231 -1.2819 -2.1320  1.6801
11920TIP3   OH257174   3.956   1.692  16.146  0.4296 -0.0986  0.3474
11920TIP3    H157175   3.907   1.618  16.181  0.1673  0.7255  1.8359
11920TIP3    H257176   4.039   1.655  16.118  1.5534 -0.6303  3.8007
11921TIP3   OH257177   6.349   6.296   2.968  0.0683  0.4330 -0.3968
11921TIP3    H157178   6.390   6.253   3.043  0.4966  0.8691 -0.3777
11921TIP3    H257179   6.255   6.281   2.981  0.2079 -0.5303 -0.4165
11922TIP3   OH257180   2.386   3.608   0.117 -0.3916 -0.1625 -0.3241
11922TIP3    H157181   2.451   3.676   0.135  0.1001  0.1709 -2.9160
11922TIP3    H257182   2.307   3.657   0.094 -0.8212 -0.5235  0.3655
11923TIP3   OH257183   5.467   2.406  12.333  0.1718 -0.3053  0.1677
11923TIP3    H157184   5.414   2.436  12.259 -1.6257 -2.7227  0.3109
11923TIP3    H257185   5.527   2.342  12.295 -1.1849 -2.0284  0.7791
11924TIP3   OH257186   4.321   2.637   0.589 -0.0497  0.0301  0.1744
11924TIP3    H157187   4.307   2.602   0.677 -1.6967 -0.1386 -0.1339
11924TIP3    H257188   4.307   2.563   0.530  0.8724  0.1815 -0.2567
11925TIP3   OH257189   5.461   1.179   5.278 -0.2340  0.0800 -0.1196
11925TIP3    H157190   5.548   1.151   5.250 -0.4390  1.6245 -2.6448
11925TIP3    H257191   5.454   1.270   5.247 -2.3658  0.3485  0.9473
11926TIP3   OH257192   4.732   5.041  16.786 -0.5170 -0.9647  0.3651
11926TIP3    H157193   4.662   5.097  16.820 -3.6972 -2.9597 -2.2632
11926TIP3    H257194   4.755   4.983  16.858 -2.0861 -0.6561  1.1462
11927TIP3   OH257195   6.496   0.415   6.082 -0.0739 -0.3824 -0.0215
11927TIP3    H157196   6.418   0.452   6.041  0.0782  1.2614  1.0859
11927TIP3    H257197   6.482   0.320   6.078 -0.9466 -0.2173 -2.0506
11928TIP3   OH257198   4.440   5.871   0.241  0.3722 -0.5844  0.2182
11928TIP3    H157199   4.500   5.832   0.177  1.1562  0.1281  0.5035
11928TIP3    H257200   4.398   5.943   0.193  2.9291  1.7198  1.1739
11929TIP3   OH257201   3.968   4.461  15.086  0.2326  0.1458 -0.2298
11929TIP3    H157202   4.038   4.398  15.104  0.9616  1.2013  0.8510
11929TIP3    H257203   3.980   4.484  14.994 -0.1253 -1.3492 -0.6779
11930TIP3   OH257204   3.458   0.762   3.487 -0.4313 -0.0717 -0.3624
11930TIP3    H157205   3.506   0.692   3.442 -0.6684  1.1966 -2.7903
11930TIP3    H257206   3.513   0.840   3.475  0.4256  0.0460  3.3307
11931TIP3   OH257207   1.913   0.846  12.375 -0.3372  0.3079 -0.3216
11931TIP3    H157208   1.821   0.823  12.384 -0.1398 -0.5608 -0.4820
11931TIP3    H257209   1.942   0.801  12.295  0.0327  1.2040 -0.7118
11932TIP3   OH257210   1.458   6.168  14.692 -0.0249 -0.0889 -0.3494
11932TIP3    H157211   1.513   6.091  14.680  0.6212  0.5089 -1.3270
11932TIP3    H257212   1.378   6.148  14.643  0.0291 -0.2468 -0.3737
11933TIP3   OH257213   4.082   3.192   1.732 -0.8284 -0.1802 -0.1403
11933TIP3    H157214   4.139   3.207   1.808 -0.3791 -0.8061 -0.3505
11933TIP3    H257215   4.036   3.275   1.720 -2.2969 -0.6125  1.9597
11934TIP3   OH257216   4.089   0.786  15.230 -0.0842 -0.2433 -0.7369
11934TIP3    H157217   4.039   0.755  15.305  0.5549 -1.3965 -0.7702
11934TIP3    H257218   4.022   0.810  15.165 -0.6142 -0.5074 -0.2950
11935TIP3   OH257219   3.474   1.798   2.672 -0.5591  0.2664  0.3387
11935TIP3    H157220   3.562   1.821   2.640 -0.4110  1.3408  1.4551
11935TIP3    H257221   3.453   1.716   2.627 -0.3446  1.6218 -2.4485
11936TIP3   OH257222   0.893   1.071  14.836  0.3234  0.3984  0.1795
11936TIP3    H157223   0.944   1.107  14.909 -0.4172 -2.0029  2.0014
11936TIP3    H257224   0.936   0.988  14.815 -2.5461 -1.5822  1.6159
11937TIP3   OH257225   2.329   1.642  10.968 -0.8118  0.5977 -0.2862
11937TIP3    H157226   2.303   1.642  11.060 -0.7950  2.3996 -0.2583
11937TIP3    H257227   2.259   1.595  10.923  0.5196 -2.9480  0.9211
11938TIP3   OH257228   3.659   4.988   0.771 -0.1603 -0.5100 -0.5479
11938TIP3    H157229   3.572   4.990   0.732 -1.3966 -1.5064  1.9173
11938TIP3    H257230   3.690   4.898   0.755  0.2418 -0.2885 -1.0382
11939TIP3   OH257231   1.183   0.237   4.140  0.6418 -0.2209 -0.4177
11939TIP3    H157232   1.157   0.321   4.176  0.9273  0.0682 -0.8609
11939TIP3    H257233   1.102   0.195   4.114  0.1536 -1.5182  2.7415
11940TIP3   OH257234   5.567   5.774   4.329 -0.0512 -0.1258  0.1523
11940TIP3    H157235   5.612   5.858   4.325  0.5076 -0.4662 -1.8183
11940TIP3    H257236   5.525   5.764   4.244 -1.6866 -1.0298  1.0036
11941TIP3   OH257237   2.860   1.127  17.142  0.7247  0.3395  0.3132
11941TIP3    H157238   2.849   1.221  17.159 -0.7169  0.1577  0.5036
11941TIP3    H257239   2.771   1.091  17.151  1.3135 -1.0923  0.5607
11942TIP3   OH257240   2.984   6.421   5.824  0.5324  0.1827  0.2426
11942TIP3    H157241   3.066   6.393   5.866 -0.9111 -2.0444  1.8217
11942TIP3    H257242   2.983   6.516   5.833  2.9361  0.2737  0.1511
11943TIP3   OH257243   1.273   2.608  17.166 -0.2071  0.2773  0.2595
11943TIP3    H157244   1.352   2.655  17.192  0.0562 -1.1663  2.3487
11943TIP3    H257245   1.210   2.626  17.236 -0.8694 -0.5828 -0.0889
11944TIP3   OH257246   1.758   2.085   1.899 -0.9144  0.0766  0.2295
11944TIP3    H157247   1.666   2.113   1.899 -0.7151  0.7770  1.0985
11944TIP3    H257248   1.784   2.089   1.991 -0.7516 -2.6754  0.3882
11945TIP3   OH257249   4.618   3.469  12.186  0.3055 -0.3145 -0.0896
11945TIP3    H157250   4.588   3.509  12.268 -0.0313 -0.6965 -0.0229
11945TIP3    H257251   4.646   3.543  12.132  0.5731 -0.0636  0.3883
11946TIP3   OH257252   6.591   6.780  16.105 -0.4223 -0.1540  0.1543
11946TIP3    H157253   6.560   6.851  16.048 -1.0926  0.9318  1.7897
11946TIP3    H257254   6.658   6.822  16.160  1.1960 -1.5154 -0.6994
11947TIP3   OH257255   1.697   5.364   2.642 -0.7616  0.2384  0.0061
11947TIP3    H157256   1.642   5.313   2.583  0.1773 -0.3745 -0.3499
11947TIP3    H257257   1.637   5.426   2.682 -1.6284 -0.1021 -0.7321
11948TIP3   OH257258   1.248   5.186   2.493 -0.0426 -0.3892  0.3642
11948TIP3    H157259   1.283   5.190   2.582  2.8060 -0.8799 -0.6346
11948TIP3    H257260   1.239   5.092   2.474  1.0475 -0.3565 -0.4233
11949TIP3   OH257261   3.046   1.478   2.915  0.0905 -0.4673  0.3694
11949TIP3    H157262   2.990   1.532   2.860  0.2214  1.7072  2.1914
11949TIP3    H257263   2.987   1.440   2.980  0.3243 -0.4361  0.6043
11950TIP3   OH257264   5.342   6.103   2.916  0.6042 -0.9089 -0.4688
11950TIP3    H157265   5.434   6.077   2.915  0.8300 -0.7176  2.9362
11950TIP3    H257266   5.294   6.022   2.935  0.0234 -0.9745 -2.0536
11951TIP3   OH257267   3.212   3.566  13.311  0.4937  0.5057 -0.3542
11951TIP3    H157268   3.289   3.606  13.270  0.7877  1.8904  1.4133
11951TIP3    H257269   3.137   3.607  13.266  0.7286 -0.8309 -2.0664
11952TIP3   OH257270   3.810   4.349  13.716  0.1133  0.2749  0.2823
11952TIP3    H157271   3.856   4.341  13.632  0.8688 -0.9549  0.7964
11952TIP3    H257272   3.720   4.370  13.691  0.6996  1.6615 -0.7687
11953TIP3   OH257273   5.923   1.937  16.498  0.3204 -0.6959 -0.1511
11953TIP3    H157274   5.947   1.902  16.583  1.2190 -1.4653 -0.7057
11953TIP3    H257275   5.833   1.909  16.485  0.3490 -1.0145  0.3179
11954TIP3   OH257276   5.811   0.123   5.725  0.1661 -0.0308  0.2729
11954TIP3    H157277   5.888   0.175   5.747  1.1921 -0.6271 -1.6680
11954TIP3    H257278   5.836   0.033   5.745 -0.3173 -0.1430  0.3800
11955TIP3   OH257279   1.075   6.152   0.156 -0.0267 -0.7558 -0.3668
11955TIP3    H157280   1.005   6.190   0.210 -0.6499 -0.9148 -1.0490
11955TIP3    H257281   1.049   6.171   0.066  0.5542 -1.2675 -0.6475
11956TIP3   OH257282   0.230   0.108  13.990 -0.1956  0.3239  0.0760
11956TIP3    H157283   0.143   0.112  13.950  0.6666  1.0110 -1.8017
11956TIP3    H257284   0.285   0.163  13.935  1.0711  1.3924  2.2692
11957TIP3   OH257285   6.508   5.856   3.413 -0.2564  0.3358 -0.3818
11957TIP3    H157286   6.562   5.806   3.474 -0.7638  1.5171  1.0955
11957TIP3    H257287   6.515   5.946   3.443 -1.6101  0.7620 -1.2565
11958TIP3   OH257288   3.764   5.617  10.734 -0.5534  0.0244  0.3570
11958TIP3    H157289   3.813   5.603  10.653 -0.3506 -0.5783  0.5792
11958TIP3    H257290   3.697   5.680  10.710  0.2949  0.8320  0.0344
11959TIP3   OH257291   4.123   2.023   4.329  0.0750 -0.8866  0.3929
11959TIP3    H157292   4.211   2.052   4.305 -0.9580  0.5739 -2.0119
11959TIP3    H257293   4.105   1.949   4.270 -0.8575 -0.1669 -0.2473
11960TIP3   OH257294   5.219   0.192   4.074 -0.4410 -0.1598 -0.5855
11960TIP3    H157295   5.273   0.266   4.045 -1.2952  0.4488 -0.6905
11960TIP3    H257296   5.281   0.128   4.107  0.2907  0.8832  0.1328
11961TIP3   OH257297   0.324   1.507   5.406 -0.1706 -0.4958 -0.0775
11961TIP3    H157298   0.358   1.431   5.358  1.3180 -0.2079  0.4535
11961TIP3    H257299   0.321   1.479   5.497  2.4436  0.6578  0.4659
11962TIP3   OH257300   0.976   1.428   4.951 -0.1571  0.3233 -0.4282
11962TIP3    H157301   0.921   1.370   5.004 -0.0924 -0.7231 -1.4461
11962TIP3    H257302   0.932   1.512   4.953 -0.2766  0.2513  1.0789
11963TIP3   OH257303   6.303   0.516   3.488 -0.5721  0.4474 -0.0822
11963TIP3    H157304   6.225   0.503   3.542 -1.1934 -4.3577 -1.6101
11963TIP3    H257305   6.269   0.548   3.405 -0.5079  1.1352  0.1510
11964TIP3   OH257306   5.928   3.583   5.715  0.3911  0.1660  0.3266
11964TIP3    H157307   5.891   3.551   5.633  0.3158 -0.2460  0.5179
11964TIP3    H257308   5.859   3.568   5.779  1.2884 -1.7363  0.9276
11965TIP3   OH257309   1.908   5.908  14.684 -0.0069  0.0475  0.0233
11965TIP3    H157310   1.865   5.950  14.610  0.0285  0.0117 -0.0177
11965TIP3    H257311   1.985   5.963  14.702 -0.7692  0.8572  0.9297
11966TIP3   OH257312   3.743   0.900  14.301  0.5549  0.2593  0.0620
11966TIP3    H157313   3.659   0.883  14.345 -0.0162  3.2273  0.3169
11966TIP3    H257314   3.720   0.913  14.209  0.6355  1.4259  0.1896
11967TIP3   OH257315   3.710   4.145   0.004 -0.1886  0.0397  0.0464
11967TIP3    H157316   3.752   4.224   0.038 -1.1916  0.0391  1.3699
11967TIP3    H257317   3.702   4.160  -0.090  1.1355  0.7903  0.0321
11968TIP3   OH257318   3.515   0.936  13.770 -0.5764 -0.1254  1.0371
11968TIP3    H157319   3.560   0.955  13.687  1.7305 -0.3882  2.1407
11968TIP3    H257320   3.446   0.873  13.746  0.1958 -0.3848 -0.6540
11969TIP3   OH257321   0.401   5.349  15.025  0.1460  0.7212  0.4271
11969TIP3    H157322   0.455   5.317  14.953 -0.3161  1.0796 -0.0870
11969TIP3    H257323   0.311   5.334  14.997 -0.0338  0.3183  1.1882
11970TIP3   OH257324   4.042   3.576  15.575 -0.8820 -0.0097 -0.0562
11970TIP3    H157325   4.082   3.661  15.597 -0.6069  0.0811 -0.8671
11970TIP3    H257326   4.109   3.531  15.523 -0.6674 -1.1109  1.1138
11971TIP3   OH257327   3.209   0.081   1.513 -0.9105 -0.7085  0.5389
11971TIP3    H157328   3.266   0.147   1.552 -0.8063  0.6949 -1.7973
11971TIP3    H257329   3.120   0.110   1.535 -0.8276 -1.4604  1.9790
11972TIP3   OH257330   4.340   5.796  13.758  0.2721  0.0703  0.3859
11972TIP3    H157331   4.430   5.786  13.789  0.2850  2.3082  1.2127
11972TIP3    H257332   4.288   5.808  13.838 -0.7584 -0.9274 -0.0953
11973TIP3   OH257333   1.292   4.213   3.040  0.0181  0.5789 -0.0738
11973TIP3    H157334   1.239   4.277   2.993  0.6394  0.6059 -0.7531
11973TIP3    H257335   1.241   4.193   3.119 -1.7958 -0.5619 -1.4277
11974TIP3   OH257336   3.345   0.432  14.036 -0.2393  0.2718  0.0754
11974TIP3    H157337   3.332   0.431  13.941 -0.3564 -1.4729  0.0611
11974TIP3    H257338   3.256   0.438  14.072 -0.2661 -0.0032  0.0588
11975TIP3   OH257339   2.562   5.257  16.235  0.3965  0.4664 -0.1242
11975TIP3    H157340   2.563   5.352  16.237  2.0430  0.5497 -1.8784
11975TIP3    H257341   2.472   5.235  16.211  0.0512  1.5743  0.0900
11976TIP3   OH257342   5.452   3.561   5.865 -0.7853  0.3605 -0.5037
11976TIP3    H157343   5.420   3.472   5.850  0.4398 -0.0854 -0.6439
11976TIP3    H257344   5.396   3.596   5.934 -1.3517 -0.4887 -0.5227
11977TIP3   OH257345   2.014   2.800  10.966  0.4500  0.9879 -0.1953
11977TIP3    H157346   2.040   2.782  10.875 -0.3650 -0.0864 -0.2388
11977TIP3    H257347   1.927   2.838  10.958 -0.2458 -0.4476  0.1716
11978TIP3   OH257348   3.354   1.742   4.797 -0.6247  0.2819  0.1504
11978TIP3    H157349   3.318   1.687   4.866  1.8299 -0.6535  0.7863
11978TIP3    H257350   3.376   1.824   4.841 -0.0947  0.0955  0.2376
11979TIP3   OH257351   0.100   2.710   3.934  0.1065  0.1487 -0.1505
11979TIP3    H157352   0.168   2.738   3.872 -1.9084  0.1692 -2.4895
11979TIP3    H257353   0.052   2.790   3.955 -0.1178 -0.1065  0.3339
11980TIP3   OH257354   1.997   0.442   3.452 -1.1503  0.1827  0.2932
11980TIP3    H157355   2.007   0.348   3.437  2.2431  0.2975  1.0693
11980TIP3    H257356   1.929   0.449   3.519 -1.5054 -1.6877  0.1736
11981TIP3   OH257357   0.969   5.787  14.792  0.2197 -0.6411 -0.2042
11981TIP3    H157358   0.971   5.843  14.715  0.5624  0.4053  0.5448
11981TIP3    H257359   1.000   5.702  14.761  0.7963 -0.1129 -1.1158
11982TIP3   OH257360   0.554   5.765  11.286 -0.0660 -0.3067 -0.1431
11982TIP3    H157361   0.614   5.713  11.232 -1.1606  0.8290 -2.6317
11982TIP3    H257362   0.593   5.852  11.289  0.7046 -0.6546  2.2486
11983TIP3   OH257363   2.242   6.118  11.104 -0.3894  0.3197 -0.1656
11983TIP3    H157364   2.293   6.156  11.176 -1.6935  0.8993  0.4874
11983TIP3    H257365   2.307   6.096  11.038  0.7506  0.6504  0.8020
11984TIP3   OH257366   6.059   5.091   6.369  0.0559  0.0750 -0.4883
11984TIP3    H157367   6.124   5.128   6.428 -0.8290 -1.5374  1.6114
11984TIP3    H257368   5.977   5.136   6.390  0.0867  0.8365 -1.8710
11985TIP3   OH257369   0.320   5.605   4.617 -0.5744  0.4628 -0.1603
11985TIP3    H157370   0.294   5.696   4.600  0.8841  1.2176  1.3506
11985TIP3    H257371   0.274   5.581   4.697  0.9900  0.7984  0.8809
11986TIP3   OH257372   1.015   6.654   1.655  0.3381 -0.2515  0.0113
11986TIP3    H157373   1.004   6.651   1.750 -0.1671  1.3680  0.0273
11986TIP3    H257374   0.986   6.567   1.625 -2.2435  0.1569  1.0843
11987TIP3   OH257375   3.211   1.078  13.693 -0.1154 -0.4421 -0.1053
11987TIP3    H157376   3.174   0.990  13.695  0.0392 -0.5558 -1.4098
11987TIP3    H257377   3.198   1.107  13.603  1.6893  0.0510 -0.2473
11988TIP3   OH257378   0.041   5.604  15.161  0.5394 -0.0281  0.1516
11988TIP3    H157379   0.045   5.634  15.252  0.9184  1.1086 -0.2311
11988TIP3    H257380   0.132   5.584  15.138  0.2345 -2.3942  0.6600
11989TIP3   OH257381   2.501   1.399   1.561 -0.0330 -0.3129  0.2589
11989TIP3    H157382   2.546   1.325   1.603  0.1778 -0.1185  0.3777
11989TIP3    H257383   2.480   1.368   1.473  1.5147  0.0529 -0.2579
11990TIP3   OH257384   3.551   0.610   3.154  0.1105  0.4136  0.5945
11990TIP3    H157385   3.488   0.682   3.164  0.8609  1.2381 -0.3818
11990TIP3    H257386   3.636   0.653   3.143  0.7368 -0.6595  1.0702
11991TIP3   OH257387   3.615   1.338  16.523 -0.2393 -0.3498  0.2938
11991TIP3    H157388   3.649   1.310  16.438 -0.3279 -1.7423  0.6962
11991TIP3    H257389   3.610   1.258  16.575  0.4282  0.5686  1.8469
11992TIP3   OH257390   4.681   6.196  15.939  0.6121 -0.3621  0.2530
11992TIP3    H157391   4.589   6.183  15.964 -0.2638 -1.6088 -3.0584
11992TIP3    H257392   4.725   6.116  15.967  0.6767  0.1303  1.6243
11993TIP3   OH257393   6.528   0.773  16.310 -0.2402 -0.0041  0.0983
11993TIP3    H157394   6.545   0.679  16.311  3.3105  0.4649 -0.4496
11993TIP3    H257395   6.572   0.806  16.389 -1.8699  1.1794  0.5642
11994TIP3   OH257396   0.919   2.960  14.698  0.3004  0.0795 -0.5206
11994TIP3    H157397   1.009   2.959  14.729  0.2005 -0.2002 -0.2392
11994TIP3    H257398   0.920   3.021  14.624  0.0855  2.7440  1.4725
11995TIP3   OH257399   1.632   2.916   5.153  0.3346 -0.0185 -0.0386
11995TIP3    H157400   1.617   2.823   5.169  0.3855 -0.5122 -2.4399
11995TIP3    H257401   1.722   2.921   5.121  0.1849  0.7752 -0.3568
11996TIP3   OH257402   1.738   0.623  10.394 -0.0034  0.0548 -0.1468
11996TIP3    H157403   1.698   0.704  10.361  2.2644  1.5429  0.4962
11996TIP3    H257404   1.707   0.555  10.334  0.3416  1.8761 -2.5488
11997TIP3   OH257405   4.605   0.509   1.682  0.3798 -0.0646 -0.4502
11997TIP3    H157406   4.693   0.473   1.691  0.3145 -0.1770 -0.2683
11997TIP3    H257407   4.584   0.497   1.589  0.2037 -0.8495 -0.3178
11998TIP3   OH257408   5.685   5.683   0.163 -0.3413 -0.1195  0.3249
11998TIP3    H157409   5.679   5.589   0.177 -1.3872  0.0501  1.1497
11998TIP3    H257410   5.763   5.710   0.212  0.8251 -0.7365 -1.1103
11999TIP3   OH257411   1.449   4.576  15.603  0.0698 -0.5204  0.2184
11999TIP3    H157412   1.540   4.571  15.632 -0.1743 -0.1910  1.0662
11999TIP3    H257413   1.454   4.568  15.507  1.0141 -0.1348  0.2216
12000TIP3   OH257414   6.435   3.028  13.037  0.5778  0.5787 -0.1835
12000TIP3    H157415   6.479   2.960  13.088  1.2345  0.6247 -0.6745
12000TIP3    H257416   6.477   3.109  13.064  0.8416  0.6162 -0.7041
12001TIP3   OH257417   6.218   4.513  16.201 -0.0634 -0.3339  0.5259
12001TIP3    H157418   6.159   4.549  16.268  1.4701  1.3732  1.0490
12001TIP3    H257419   6.301   4.500  16.246  0.9923  0.7618 -0.9843
12002TIP3   OH257420   6.504   0.008  13.225  0.5174  0.5659  0.1880
12002TIP3    H157421   6.574  -0.032  13.173  0.1506  0.0552  0.0705
12002TIP3    H257422   6.430  -0.052  13.214 -0.2061  1.5493 -0.4057
12003TIP3   OH257423   6.214   3.493  11.369  0.2404  0.2619 -0.3568
12003TIP3    H157424   6.143   3.474  11.430  0.9460 -1.6520 -0.0810
12003TIP3    H257425   6.197   3.435  11.294 -0.5171  2.4396 -1.9836
12004TIP3   OH257426   0.083   5.246   1.025  0.1278 -0.0169  0.1746
12004TIP3    H157427   0.169   5.274   1.055  0.0247 -0.0910  0.5500
12004TIP3    H257428   0.081   5.152   1.042 -0.6774  0.2681  1.8381
12005TIP3   OH257429   2.734   1.127  11.839 -0.6265  0.0759  0.0685
12005TIP3    H157430   2.801   1.064  11.867 -2.1056 -1.0526  1.2349
12005TIP3    H257431   2.763   1.210  11.877 -0.8807 -0.7893  2.3303
12006TIP3   OH257432   1.413   5.083  13.412 -0.1027  0.1712  0.0519
12006TIP3    H157433   1.419   5.079  13.317  0.1445 -0.1701  0.0843
12006TIP3    H257434   1.460   5.006  13.443 -1.6456 -0.6812  0.4016
12007TIP3   OH257435   5.925   5.922   0.808 -0.1180 -0.4214  0.2085
12007TIP3    H157436   5.970   6.006   0.800 -0.5677  0.2266  3.2855
12007TIP3    H257437   5.995   5.858   0.818  0.2396  0.1562  1.7027
12008TIP3   OH257438   1.535   0.912  15.763 -0.3670  0.3899 -0.3247
12008TIP3    H157439   1.513   0.854  15.835  0.0715 -0.9860 -1.2496
12008TIP3    H257440   1.537   0.855  15.686  1.6932  1.3141 -1.0287
12009TIP3   OH257441   1.275   0.063  14.263 -0.0817 -0.2867 -0.4490
12009TIP3    H157442   1.189   0.089  14.296  0.2565 -1.4441  1.4755
12009TIP3    H257443   1.290  -0.024  14.299  1.0080 -1.0373 -2.5173
12010TIP3   OH257444   5.743   1.038  13.941  0.4086  0.2243 -0.4712
12010TIP3    H157445   5.837   1.047  13.927  0.3732  0.0465 -0.8424
12010TIP3    H257446   5.730   1.061  14.033  1.0964 -1.7983  0.1697
12011TIP3   OH257447   6.669   6.554   0.374 -0.4352  0.4178 -0.1006
12011TIP3    H157448   6.605   6.484   0.391 -0.3882  0.5590  0.6860
12011TIP3    H257449   6.617   6.634   0.372 -0.1536  0.7104  1.9123
12012TIP3   OH257450   5.983   1.169  16.798 -0.1233 -0.1503  0.0480
12012TIP3    H157451   6.048   1.110  16.761  0.3569  1.1446 -1.2761
12012TIP3    H257452   5.903   1.117  16.801  1.0127 -1.9221  2.1586
12013TIP3   OH257453   5.974   4.460  14.270  0.5477  0.2919 -0.1002
12013TIP3    H157454   5.953   4.479  14.361 -0.9840  0.8024 -0.5284
12013TIP3    H257455   5.940   4.371  14.255 -0.3570  0.6828 -0.4839
12014TIP3   OH257456   1.821   0.693   3.339  0.3750 -0.7972 -0.0214
12014TIP3    H157457   1.896   0.709   3.397  1.0391 -1.2282 -0.7403
12014TIP3    H257458   1.806   0.777   3.295 -0.9960 -0.0583  1.7007
12015TIP3   OH257459   6.762   0.140   2.696  0.1939  0.0834 -0.0843
12015TIP3    H157460   6.744   0.046   2.701 -0.2972  0.2288  1.0087
12015TIP3    H257461   6.848   0.145   2.654 -0.2684 -0.7955 -1.1959
12016TIP3   OH257462   2.416   2.644  11.123 -0.1000  0.1612 -0.4867
12016TIP3    H157463   2.416   2.712  11.190 -2.0756 -0.4329  0.1841
12016TIP3    H257464   2.468   2.680  11.052 -1.1172  2.4203 -0.1692
12017TIP3   OH257465   4.661   3.938   2.336 -0.7615 -0.6852  0.7850
12017TIP3    H157466   4.592   3.962   2.274 -0.1148  0.3051  0.4367
12017TIP3    H257467   4.687   3.850   2.308 -0.3134 -0.1621 -0.5242
12018TIP3   OH257468   0.945   5.244   5.268 -0.0800 -0.4918  0.0256
12018TIP3    H157469   1.038   5.224   5.260  0.5437  1.6949  1.0550
12018TIP3    H257470   0.914   5.252   5.177  0.4918 -2.1108 -0.3372
12019TIP3   OH257471   0.839   2.253   5.523 -0.2279  0.3129  0.0600
12019TIP3    H157472   0.864   2.181   5.581 -2.0922  0.8453  1.6438
12019TIP3    H257473   0.878   2.331   5.562 -1.5492  0.6866  0.6752
12020TIP3   OH257474   6.180   5.676  12.451 -0.4437 -0.1060 -0.0505
12020TIP3    H157475   6.155   5.651  12.540 -0.4041 -0.9548 -0.2680
12020TIP3    H257476   6.260   5.627  12.434 -1.4627 -1.4582 -1.2240
12021TIP3   OH257477   5.182   3.818  13.145 -0.0017 -0.4066  0.5918
12021TIP3    H157478   5.197   3.772  13.228  1.0591 -0.4208  0.4034
12021TIP3    H257479   5.257   3.795  13.090  0.1897  0.9479  0.2382
12022TIP3   OH257480   3.832   2.278  10.360  0.2053  0.7216  0.3056
12022TIP3    H157481   3.838   2.325  10.444 -0.8139  2.0461 -0.3243
12022TIP3    H257482   3.858   2.188  10.381 -1.5836  0.5929  2.4111
12023TIP3   OH257483   3.298   2.207  12.024 -0.0618 -0.4343  0.0517
12023TIP3    H157484   3.272   2.162  11.943 -0.4034  1.2337 -0.8062
12023TIP3    H257485   3.224   2.265  12.043  0.7930  0.5017  0.5606
12024TIP3   OH257486   3.349   1.207  16.244 -0.1310  0.0895 -0.0627
12024TIP3    H157487   3.265   1.167  16.264  0.6656 -1.7630 -0.2226
12024TIP3    H257488   3.346   1.292  16.289 -0.6023 -1.5161  3.2919
12025TIP3   OH257489   1.040   1.392  13.386 -0.3899 -0.3789 -0.2016
12025TIP3    H157490   0.958   1.346  13.371  0.5764 -1.7463 -1.6032
12025TIP3    H257491   1.060   1.434  13.302 -0.9018  2.1411  0.8436
12026TIP3   OH257492   5.977   4.792   5.201 -0.0348 -0.1779 -0.7763
12026TIP3    H157493   5.941   4.866   5.153  0.0909  0.1235 -0.4141
12026TIP3    H257494   5.907   4.766   5.261  0.6403  1.0116  0.6023
12027TIP3   OH257495   1.245   5.266  15.889 -0.6336 -0.2384  0.4188
12027TIP3    H157496   1.165   5.224  15.919  0.9132 -2.2697  2.0963
12027TIP3    H257497   1.304   5.262  15.965  1.6245 -0.4496 -1.2215
12028TIP3   OH257498   5.579   4.699   4.222  0.0648 -0.1793 -0.3184
12028TIP3    H157499   5.664   4.718   4.261  0.1929  0.4773 -0.8975
12028TIP3    H257500   5.515   4.737   4.282  0.0489 -2.2846  1.1023
12029TIP3   OH257501   3.999   2.238  12.941 -1.0575  0.0726 -0.1280
12029TIP3    H157502   3.956   2.300  13.000 -0.9914  0.9346 -0.9787
12029TIP3    H257503   4.005   2.284  12.858  2.2713  0.3338  0.1429
12030TIP3   OH257504   3.137   1.687  16.317  0.2606  0.1787 -0.3184
12030TIP3    H157505   3.070   1.654  16.377 -0.3266  0.2083 -0.9478
12030TIP3    H257506   3.212   1.706  16.373 -0.4333  0.6376  0.4817
12031TIP3   OH257507   5.193   0.606   0.112 -0.2074 -0.1813 -0.0675
12031TIP3    H157508   5.135   0.651   0.050  0.7549  0.5276 -0.4763
12031TIP3    H257509   5.177   0.651   0.195 -1.7728 -1.3745  0.3312
12032TIP3   OH257510   0.736   6.123   5.843 -0.3270 -0.1907 -0.1310
12032TIP3    H157511   0.694   6.156   5.763  1.5904  0.1523 -1.0384
12032TIP3    H257512   0.701   6.034   5.852 -0.9333 -0.0732 -1.0932
12033TIP3   OH257513   3.627   0.470  16.961 -0.4191 -0.4951  0.1504
12033TIP3    H157514   3.635   0.414  16.884  1.5091  0.3532 -0.3244
12033TIP3    H257515   3.715   0.473  16.998 -0.8384  0.8659  1.1285
12034TIP3   OH257516   4.419   4.723   4.415 -0.0082  0.1860  0.3677
12034TIP3    H157517   4.456   4.698   4.500  1.0724 -2.0847 -0.6908
12034TIP3    H257518   4.349   4.659   4.400  0.6451 -0.2425 -0.9991
12035TIP3   OH257519   5.924   0.096   5.227  0.0002 -0.3881  0.0491
12035TIP3    H157520   5.951   0.063   5.313 -1.6029  2.1817  1.6626
12035TIP3    H257521   6.006   0.119   5.183  0.9233 -2.9315  0.2838
12036TIP3   OH257522   4.485   5.142  16.887 -0.6834 -0.5627 -0.3076
12036TIP3    H157523   4.446   5.162  16.802 -0.1719  0.3634 -0.3442
12036TIP3    H257524   4.411   5.127  16.946 -1.0506 -0.6268 -0.7863
12037TIP3   OH257525   0.193   4.382  11.593 -0.2239  0.1313 -0.1019
12037TIP3    H157526   0.207   4.476  11.605  3.1781 -0.3400  0.5925
12037TIP3    H257527   0.215   4.365  11.501 -0.1935 -0.0722 -0.0586
12038TIP3   OH257528   5.776   0.626  13.067  0.3377  0.1118  0.0469
12038TIP3    H157529   5.855   0.680  13.062  0.2805  0.1402 -0.6033
12038TIP3    H257530   5.740   0.628  12.979 -0.5231  0.2966  0.3918
12039TIP3   OH257531   2.564   3.011   5.242 -0.0078  0.4638 -0.7038
12039TIP3    H157532   2.541   2.940   5.183 -0.6186  0.6751 -0.7232
12039TIP3    H257533   2.600   3.079   5.186 -0.3271  0.5545 -0.7949
12040TIP3   OH257534   1.738   5.893   3.496 -0.6333  0.7149 -0.1642
12040TIP3    H157535   1.644   5.906   3.496 -0.6258  1.2565 -2.6050
12040TIP3    H257536   1.773   5.972   3.454  1.0690  1.2307  2.0548
12041TIP3   OH257537   2.160   6.425  15.870 -0.7517 -0.2359  0.0113
12041TIP3    H157538   2.095   6.373  15.823  0.7493 -1.2561 -1.0204
12041TIP3    H257539   2.224   6.449  15.804  0.6539 -0.4579  1.2412
12042TIP3   OH257540   2.447   6.031  11.495  0.7385  0.6362  0.4466
12042TIP3    H157541   2.519   6.093  11.511  0.6026  0.4990  1.6028
12042TIP3    H257542   2.411   6.059  11.410  1.8426  1.0040  0.0767
12043TIP3   OH257543   4.781   0.063   0.240 -0.4658 -0.0318  0.3177
12043TIP3    H157544   4.720  -0.005   0.211  1.0565 -1.0361 -0.6534
12043TIP3    H257545   4.767   0.135   0.179 -1.3116  0.1378  0.6842
12044TIP3   OH257546   6.106   4.699   1.294 -0.4230 -0.3360 -0.0750
12044TIP3    H157547   6.022   4.700   1.250 -1.0198 -0.8361  1.0036
12044TIP3    H257548   6.085   4.686   1.387  0.8761 -1.8414  0.0724
12045TIP3   OH257549   2.935   3.125  14.517  0.6978  0.1449 -0.6593
12045TIP3    H157550   2.840   3.122  14.524  0.7603 -0.8114 -0.0494
12045TIP3    H257551   2.958   3.044  14.471  1.2611  0.0638 -0.2447
12046TIP3   OH257552   6.772   4.654   3.307  0.9058 -0.4775  0.3570
12046TIP3    H157553   6.721   4.662   3.227  1.9406  3.4460 -0.1182
12046TIP3    H257554   6.714   4.610   3.368 -0.3095 -2.6088 -2.1720
12047TIP3   OH257555   3.909   0.552   4.656 -0.4370 -0.4823 -0.4877
12047TIP3    H157556   3.923   0.459   4.669 -2.6105 -0.8724 -0.4834
12047TIP3    H257557   3.987   0.594   4.693  0.4703 -2.2661 -0.2749
12048TIP3   OH257558   0.049   1.441   4.397  0.2694  0.0511  0.4434
12048TIP3    H157559  -0.008   1.518   4.407  1.4156  1.4610 -2.4347
12048TIP3    H257560  -0.009   1.366   4.409 -1.7737  1.4142 -0.3553
12049TIP3   OH257561   3.797   3.096  11.655  0.2334 -0.5384 -0.2333
12049TIP3    H157562   3.737   3.162  11.619  1.4756 -0.0934 -1.6317
12049TIP3    H257563   3.869   3.147  11.691  0.8113 -1.0906 -0.5789
12050TIP3   OH257564   5.986   0.390   4.130 -0.2625  0.1883 -0.1534
12050TIP3    H157565   6.041   0.468   4.127 -1.3004  0.9632  0.2699
12050TIP3    H257566   5.897   0.424   4.143 -0.8563 -1.0176 -0.8665
12051TIP3   OH257567   2.333   1.668  11.304  0.1377 -0.6283  0.9326
12051TIP3    H157568   2.407   1.624  11.263  0.4462  0.2751  0.4980
12051TIP3    H257569   2.257   1.614  11.280  0.2403  0.1301 -1.2757
12052TIP3   OH257570   3.742   3.357   1.886  0.1091 -0.0093  0.2639
12052TIP3    H157571   3.816   3.410   1.857 -0.4245  2.0569  2.3638
12052TIP3    H257572   3.668   3.417   1.884 -1.3549 -1.7517 -0.8191
12053TIP3   OH257573   6.006   0.850  14.917 -0.0580  0.3834  0.5681
12053TIP3    H157574   5.961   0.777  14.960  0.3290  0.1019  0.5042
12053TIP3    H257575   6.080   0.870  14.975  0.9488 -0.5367 -0.3506
12054TIP3   OH257576   4.897   4.670   0.282  0.2187  0.5522  0.3915
12054TIP3    H157577   4.964   4.617   0.240 -0.7072 -0.6708  0.4164
12054TIP3    H257578   4.930   4.684   0.371  0.9393  0.9000  0.0779
12055TIP3   OH257579   4.487   4.423   2.070  0.1789 -0.4446 -0.3285
12055TIP3    H157580   4.462   4.510   2.039  0.2873 -0.3182 -0.0597
12055TIP3    H257581   4.414   4.395   2.124  0.9290  0.2416  1.0849
12056TIP3   OH257582   6.044   0.704  15.650 -0.3472  0.6141  0.4488
12056TIP3    H157583   6.099   0.750  15.714  1.7915 -0.4755 -0.5062
12056TIP3    H257584   6.023   0.620  15.693  1.0887 -0.1175 -0.2069
12057TIP3   OH257585   4.708   2.293  14.426  0.2653  0.0370  0.2003
12057TIP3    H157586   4.732   2.370  14.375  0.2241  0.0966  0.2705
12057TIP3    H257587   4.613   2.297  14.433 -0.0971 -1.7006 -2.4686
12058TIP3   OH257588   4.832   4.957  15.897  0.1743 -0.3185  0.6330
12058TIP3    H157589   4.879   5.022  15.845  2.6812 -2.2425  0.3049
12058TIP3    H257590   4.771   5.008  15.950  1.6782  2.2413  0.0545
12059TIP3   OH257591   3.489   5.871  11.219  0.1620  0.5054 -0.1901
12059TIP3    H157592   3.567   5.899  11.171 -0.2346  1.0880 -0.4958
12059TIP3    H257593   3.418   5.877  11.156 -0.3327  1.1008  0.4053
12060TIP3   OH257594   6.441   4.250   2.311  0.0146  0.4929  0.1930
12060TIP3    H157595   6.460   4.233   2.219 -1.2084  0.2965 -0.0371
12060TIP3    H257596   6.474   4.339   2.326  1.8688 -0.1227  0.0790
12061TIP3   OH257597   5.728   2.153   3.619 -0.6982  0.0735  0.3291
12061TIP3    H157598   5.773   2.201   3.689 -1.2788  1.6945 -0.3858
12061TIP3    H257599   5.638   2.186   3.620 -1.6686 -2.3284  1.0067
12062TIP3   OH257600   1.517   6.291   3.374  0.0623  0.0711 -0.7011
12062TIP3    H157601   1.441   6.289   3.316 -0.8641 -1.9725  0.4591
12062TIP3    H257602   1.508   6.372   3.424 -0.4199  0.6672 -1.7266
12063TIP3   OH257603   5.955   6.495  16.755  0.0499  0.0854 -0.0792
12063TIP3    H157604   5.888   6.524  16.693  0.2071 -1.4707 -1.0419
12063TIP3    H257605   5.956   6.562  16.823 -1.7744  0.6540 -0.5607
12064TIP3   OH257606   1.830   2.427   2.834 -0.1229 -0.7396 -0.4619
12064TIP3    H157607   1.892   2.454   2.902 -0.1335  1.7135 -1.3113
12064TIP3    H257608   1.864   2.344   2.801 -1.0701 -3.0434  3.6486
12065TIP3   OH257609   5.090   0.138   1.752  0.1782  0.5723  0.3750
12065TIP3    H157610   5.108   0.047   1.730 -0.6432  0.6318 -0.6113
12065TIP3    H257611   5.026   0.133   1.824  0.4986  0.3726  0.6454
12066TIP3   OH257612   3.516   3.111  13.765 -0.3027 -0.5567 -0.2168
12066TIP3    H157613   3.520   3.089  13.858 -0.3005  0.1177 -0.0545
12066TIP3    H257614   3.608   3.125  13.739 -0.3874  0.4195 -0.0285
12067TIP3   OH257615   2.690   5.644   3.714  0.0577  0.5320  0.3601
12067TIP3    H157616   2.648   5.563   3.742  1.4405 -0.0824  0.7562
12067TIP3    H257617   2.716   5.686   3.796  1.5720  0.1313  0.1151
12068TIP3   OH257618   4.445   4.771   1.352  0.1815  0.3842  0.1928
12068TIP3    H157619   4.419   4.725   1.272 -0.3242  2.7667 -1.1135
12068TIP3    H257620   4.366   4.771   1.406  0.5726 -1.3833  0.8321
12069TIP3   OH257621   0.975   4.772   2.682  0.7496  0.2080 -0.6290
12069TIP3    H157622   1.003   4.845   2.737  3.8954 -0.5935 -0.9529
12069TIP3    H257623   1.046   4.761   2.619 -0.5759 -1.8532 -1.8860
12070TIP3   OH257624   1.880   5.885  16.304 -0.1918 -0.6326 -0.6520
12070TIP3    H157625   1.843   5.797  16.306  0.7506 -1.0901 -2.0821
12070TIP3    H257626   1.974   5.871  16.292  0.0043  0.5755 -0.6117
12071TIP3   OH257627   4.151   4.181  13.936  0.2575  0.4421  0.4940
12071TIP3    H157628   4.187   4.168  13.848 -0.2563  2.3398 -0.0561
12071TIP3    H257629   4.219   4.230  13.982 -0.5574  1.9312  0.2053
12072TIP3   OH257630   2.728   3.178   3.975  0.0143 -0.3185 -0.2255
12072TIP3    H157631   2.723   3.258   4.028 -2.7313 -0.5687  0.0040
12072TIP3    H257632   2.711   3.208   3.885 -1.3464 -0.6584 -0.0935
12073TIP3   OH257633   6.125   2.801   3.438 -0.1724 -0.4533 -0.4572
12073TIP3    H157634   6.111   2.726   3.381  0.4619  0.8322 -2.4012
12073TIP3    H257635   6.210   2.835   3.412  0.3643 -0.0752  1.6171
12074TIP3   OH257636   0.999   4.811  12.830  0.2461 -0.0314  0.2585
12074TIP3    H157637   1.014   4.864  12.908  0.3749  0.5161 -0.1313
12074TIP3    H257638   1.087   4.794  12.796  0.4119 -2.5577  1.6976
12075TIP3   OH257639   3.368   2.912   4.083  0.6522 -0.1140  0.6154
12075TIP3    H157640   3.302   2.939   4.147  1.2003  2.8512  0.1051
12075TIP3    H257641   3.450   2.950   4.116  1.4167 -0.6451 -0.5868
12076TIP3   OH257642   1.258   3.868   5.823 -0.5258  0.2555  0.2516
12076TIP3    H157643   1.193   3.798   5.813 -2.5481  1.8995  1.2068
12076TIP3    H257644   1.207   3.948   5.834  1.6635  1.6115  1.4020
12077TIP3   OH257645   4.021   0.763   2.075 -0.2380  0.1033  0.3442
12077TIP3    H157646   4.107   0.740   2.038 -0.2461  1.1223 -0.3550
12077TIP3    H257647   3.969   0.683   2.067  1.2751 -1.2489  2.8121
12078TIP3   OH257648   0.019   2.038   2.376 -0.1330 -0.4309 -0.0055
12078TIP3    H157649  -0.076   2.028   2.377 -0.3626  1.4862 -0.0650
12078TIP3    H257650   0.037   2.108   2.439  1.3643 -1.5616  0.8996
12079TIP3   OH257651   4.185   6.267  15.007  0.5810  0.1349  0.1372
12079TIP3    H157652   4.164   6.192  15.062  2.4588 -0.0316  0.6904
12079TIP3    H257653   4.149   6.342  15.054  0.5011 -0.2127  0.6304
12080TIP3   OH257654   5.036   3.187  14.535 -0.0824  0.1687  0.4349
12080TIP3    H157655   4.973   3.246  14.493 -1.2303 -0.3658  1.3575
12080TIP3    H257656   5.111   3.243  14.555 -0.4914  0.9523 -0.1499
12081TIP3   OH257657   3.865   1.992  17.185  0.0032  0.0491 -0.3136
12081TIP3    H157658   3.943   2.046  17.172 -0.6122  0.8415 -0.7937
12081TIP3    H257659   3.793   2.045  17.149 -0.9583 -0.0607  1.3630
12082TIP3   OH257660   5.419   0.236   0.817 -0.0630  0.3317  0.6391
12082TIP3    H157661   5.424   0.305   0.751  0.6335 -1.4448 -1.2930
12082TIP3    H257662   5.507   0.197   0.817 -1.0756 -2.1446 -0.2370
12083TIP3   OH257663   3.726   1.541   4.403  0.0786  0.1738  0.2901
12083TIP3    H157664   3.811   1.582   4.387 -0.3434  1.1065  0.3936
12083TIP3    H257665   3.747   1.462   4.453  1.1482 -1.2151 -2.1779
12084TIP3   OH257666   5.713   5.774  14.986  0.2463  0.0122  0.3320
12084TIP3    H157667   5.735   5.720  14.910 -1.5572 -0.5972  0.2076
12084TIP3    H257668   5.690   5.859  14.949 -1.0364 -0.4056  0.1263
12085TIP3   OH257669   3.870   2.020   1.016  0.1636  0.4829 -0.1637
12085TIP3    H157670   3.796   2.079   1.029  0.1774  0.8901 -1.7210
12085TIP3    H257671   3.944   2.077   0.996  0.6066  0.0267  0.1435
12086TIP3   OH257672   0.790   1.065   0.519 -0.0785 -0.6956  0.4053
12086TIP3    H157673   0.873   1.024   0.542 -0.3347 -0.4975  1.8085
12086TIP3    H257674   0.733   1.044   0.593 -0.5001  1.4027  0.7196
12087TIP3   OH257675   5.845   2.076  15.856  0.2834 -0.3804 -0.8080
12087TIP3    H157676   5.751   2.073  15.835  0.3481 -0.4061 -1.1071
12087TIP3    H257677   5.852   2.140  15.927 -0.1186 -1.3064  0.0838
12088TIP3   OH257678   3.889   4.608  12.619  0.7363  0.1003  0.2000
12088TIP3    H157679   3.876   4.522  12.578  0.0579  0.4288 -0.2884
12088TIP3    H257680   3.872   4.671  12.549 -1.5516  0.7114  1.2041
12089TIP3   OH257681   0.500   3.175   3.629  0.4504  0.4024  0.4827
12089TIP3    H157682   0.486   3.080   3.625 -0.6276  0.5812 -0.4943
12089TIP3    H257683   0.496   3.196   3.722  1.4514 -0.6095  0.7756
12090TIP3   OH257684   1.387   0.173   3.659  0.1366 -0.5772  0.0270
12090TIP3    H157685   1.365   0.174   3.566  0.6388 -0.2968 -0.0945
12090TIP3    H257686   1.482   0.162   3.661  0.0994 -0.8247  0.5139
12091TIP3   OH257687   1.796   3.057   3.376 -0.0689  0.1401  0.0620
12091TIP3    H157688   1.823   3.142   3.413 -2.0225  0.7510  0.1881
12091TIP3    H257689   1.748   3.014   3.447 -0.2748 -0.4745 -0.4446
12092TIP3   OH257690   6.190   2.202  12.646  0.1479 -0.0909  0.0738
12092TIP3    H157691   6.234   2.282  12.617 -0.6658 -0.6433 -3.0584
12092TIP3    H257692   6.231   2.132  12.594 -1.6519 -1.1647  0.0376
12093TIP3   OH257693   2.767   3.133   3.366  0.4330 -0.2698 -0.2623
12093TIP3    H157694   2.811   3.057   3.328 -1.4839 -1.4692 -0.2214
12093TIP3    H257695   2.771   3.117   3.460  2.0955  0.9320 -0.0817
12094TIP3   OH257696   6.691   0.606   4.842 -0.3309  0.0343  0.5077
12094TIP3    H157697   6.649   0.570   4.920 -0.6425 -2.2359 -0.6185
12094TIP3    H257698   6.697   0.532   4.782  0.6009  1.5248 -1.3424
12095TIP3   OH257699   2.180   6.372   4.225  0.9498 -0.3518 -0.4683
12095TIP3    H157700   2.202   6.358   4.133 -0.5440 -2.4930 -0.5638
12095TIP3    H257701   2.255   6.337   4.273  1.0170 -0.7783 -0.8735
12096TIP3   OH257702   2.524   0.285   5.926  0.4516 -0.1745  0.4875
12096TIP3    H157703   2.555   0.261   6.013  0.7673  2.2224  1.1279
12096TIP3    H257704   2.604   0.307   5.878  0.3819 -2.4745 -0.8220
12097TIP3   OH257705   2.013   2.270   3.128 -1.0011  0.2508  0.4231
12097TIP3    H157706   1.958   2.344   3.155 -0.2840  0.6481  0.8264
12097TIP3    H257707   2.069   2.306   3.060 -0.4111  0.1742  0.8621
12098TIP3   OH257708   5.145   4.405   3.102 -0.5227 -0.2179  0.3769
12098TIP3    H157709   5.225   4.458   3.091 -0.9582  0.2568 -0.5474
12098TIP3    H257710   5.075   4.460   3.067 -0.8904 -1.7116 -1.3687
12099TIP3   OH257711   1.392   5.207  16.127 -0.5072  0.8574 -0.2077
12099TIP3    H157712   1.412   5.265  16.200  1.0855 -0.7013  0.6686
12099TIP3    H257713   1.440   5.127  16.146 -1.9989 -0.4867 -1.7643
12100TIP3   OH257714   1.260   2.616   4.636 -0.4946 -0.5386 -0.0637
12100TIP3    H157715   1.187   2.672   4.662  0.8029  1.5850 -0.7000
12100TIP3    H257716   1.326   2.629   4.705  0.1203 -0.6852 -0.6122
12101TIP3   OH257717   4.307   2.482  12.928  0.0702  1.1724 -0.2654
12101TIP3    H157718   4.399   2.510  12.933  0.4956 -0.1154 -0.5124
12101TIP3    H257719   4.306   2.395  12.968 -1.0096  1.0893 -0.4429
12102TIP3   OH257720   0.254   6.456  12.996 -0.0255 -0.4002  0.0526
12102TIP3    H157721   0.275   6.409  12.915 -1.3665 -0.8737 -0.0447
12102TIP3    H257722   0.336   6.458  13.045  0.8466 -0.0088 -1.3576
12103TIP3   OH257723   3.558   0.192   0.758 -0.1320 -0.0812 -0.0044
12103TIP3    H157724   3.643   0.223   0.728 -0.0256  0.9580  1.3176
12103TIP3    H257725   3.566   0.096   0.755  1.3461 -0.0079  0.8059
12104TIP3   OH257726   5.874   5.847  10.574 -0.1083  0.5529  0.4782
12104TIP3    H157727   5.876   5.940  10.595  0.0762  0.8018 -0.5813
12104TIP3    H257728   5.852   5.804  10.657 -1.8918  1.6465  0.6416
12105TIP3   OH257729   1.667   0.053  16.719 -0.2627 -0.2112  0.3817
12105TIP3    H157730   1.668   0.121  16.787  1.8640 -1.6394  1.9256
12105TIP3    H257731   1.622  -0.021  16.760  0.9438 -1.0540  0.2602
12106TIP3   OH257732   2.357   6.731  11.394 -0.2862 -0.0450  0.2469
12106TIP3    H157733   2.333   6.756  11.483  2.1576  1.0113  0.6832
12106TIP3    H257734   2.390   6.811  11.354 -2.7879 -0.0999 -2.2417
12107TIP3   OH257735   3.197   3.159  11.195 -0.2085 -0.0496  0.1461
12107TIP3    H157736   3.156   3.111  11.123 -0.3824 -0.7658  0.7188
12107TIP3    H257737   3.214   3.093  11.261  0.1496  0.5718  0.6799
12108TIP3   OH257738   4.922   6.682  16.807 -0.5210  0.4778 -0.2566
12108TIP3    H157739   4.846   6.740  16.800 -0.8470  0.1877  0.8016
12108TIP3    H257740   4.989   6.735  16.851 -1.0210 -0.1238  1.2640
12109TIP3   OH257741   4.276   2.057  11.701 -0.1873 -0.2643 -0.0393
12109TIP3    H157742   4.204   2.020  11.651  0.1901 -0.6502 -0.3050
12109TIP3    H257743   4.298   2.138  11.654 -0.2012 -0.3375 -0.1730
12110TIP3   OH257744   4.217   1.693  12.617 -0.5962  0.0852  0.3806
12110TIP3    H157745   4.258   1.646  12.689  3.5419 -0.3062 -1.9301
12110TIP3    H257746   4.193   1.778  12.655  0.4669 -0.4761  2.4719
12111TIP3   OH257747   3.704   1.808  15.906  0.1493  0.2708  0.3398
12111TIP3    H157748   3.656   1.887  15.881  0.8209  1.4313  2.5092
12111TIP3    H257749   3.733   1.824  15.995  1.5574 -1.8554  0.3420
12112TIP3   OH257750   0.814   2.568  11.193  0.2234 -0.0110 -0.1887
12112TIP3    H157751   0.851   2.485  11.162 -0.2174 -0.4648  0.4632
12112TIP3    H257752   0.796   2.618  11.113  0.7088 -0.4442 -0.5792
12113TIP3   OH257753   0.416   2.829   5.892  0.3659 -0.3779 -0.2029
12113TIP3    H157754   0.322   2.810   5.894  0.6292 -1.7227 -0.1128
12113TIP3    H257755   0.458   2.745   5.877  1.5079  0.4091 -1.6397
12114TIP3   OH257756   4.377   0.201   1.976 -0.4241 -0.1295 -0.1138
12114TIP3    H157757   4.349   0.248   2.055  0.5685  1.1205 -0.4572
12114TIP3    H257758   4.299   0.201   1.920 -1.0295 -0.6981  0.7058
12115TIP3   OH257759   3.418   4.119  15.954  0.8229  0.1734  0.7492
12115TIP3    H157760   3.499   4.169  15.947  1.2143 -0.6194 -1.0461
12115TIP3    H257761   3.443   4.029  15.934 -0.5101 -0.0465 -0.0824
12116TIP3   OH257762   4.915   6.109   2.429  0.1425 -0.0425  0.2610
12116TIP3    H157763   4.930   6.059   2.349 -1.3912  0.8382 -0.6388
12116TIP3    H257764   4.980   6.180   2.426  1.6594 -1.3327  1.0439
12117TIP3   OH257765   6.147   6.539   2.009  0.4887  0.4658 -0.6661
12117TIP3    H157766   6.089   6.517   1.936 -0.7884  1.2796  0.0686
12117TIP3    H257767   6.234   6.542   1.970  0.0409 -0.6792 -1.8240
12118TIP3   OH257768   0.723   1.800  15.001  0.0545  0.4371  0.2625
12118TIP3    H157769   0.654   1.859  15.028 -0.4510 -0.0369  0.0260
12118TIP3    H257770   0.681   1.739  14.941  0.8431  0.5979 -0.4750
12119TIP3   OH257771   0.361   1.470   0.012  0.1804  0.8719  0.0097
12119TIP3    H157772   0.454   1.462   0.030  0.5120 -2.9535 -2.1940
12119TIP3    H257773   0.318   1.433   0.089  0.3997  2.4702  0.9468
12120TIP3   OH257774   3.664   4.488   1.764  0.0269  0.7149 -0.1477
12120TIP3    H157775   3.655   4.396   1.789 -0.1887  1.6542  3.9764
12120TIP3    H257776   3.748   4.493   1.718  1.1874 -1.2145  1.6078
12121TIP3   OH257777   4.465   2.043   6.196  0.2669 -0.1486  0.1983
12121TIP3    H157778   4.370   2.032   6.207  0.1007 -0.2598 -1.1676
12121TIP3    H257779   4.478   2.138   6.189  0.0094 -0.2056 -1.3986
12122TIP3   OH257780   5.389   4.122  14.266 -0.0485 -0.2451  0.3699
12122TIP3    H157781   5.442   4.191  14.306  0.0343 -0.4964  0.6963
12122TIP3    H257782   5.355   4.161  14.186  0.8648 -0.1750  0.0081
12123TIP3   OH257783   5.946   2.630  11.661 -0.3301  0.0197  0.4375
12123TIP3    H157784   6.009   2.639  11.589 -0.6305 -1.5709 -0.0767
12123TIP3    H257785   5.992   2.577  11.726  0.0099  1.6204  1.5405
12124TIP3   OH257786   0.985   6.748  14.980  0.0959 -0.1829  0.5871
12124TIP3    H157787   1.077   6.772  14.979 -0.0307  0.3222 -0.5730
12124TIP3    H257788   0.985   6.652  14.988  0.7957 -0.3913 -1.3910
12125TIP3   OH257789   5.324   6.076  15.052 -0.2283  0.0889 -0.5174
12125TIP3    H157790   5.229   6.089  15.046 -0.3143 -0.7633 -1.2978
12125TIP3    H257791   5.355   6.149  15.106 -1.6612 -1.1099  2.1163
12126TIP3   OH257792   2.553   4.840   5.659 -0.3459 -0.7842 -0.1048
12126TIP3    H157793   2.637   4.808   5.626 -1.0401 -0.5344 -2.2547
12126TIP3    H257794   2.510   4.763   5.694  0.1674 -1.1928 -0.3659
12127TIP3   OH257795   5.295   6.187   2.601  0.7015 -0.0439 -0.0475
12127TIP3    H157796   5.250   6.146   2.675  1.1275  0.3711  0.4607
12127TIP3    H257797   5.233   6.251   2.567 -0.0971 -1.3163 -1.0625
12128TIP3   OH257798   6.702   1.320  13.051 -0.1434 -0.4548  0.3482
12128TIP3    H157799   6.644   1.246  13.066 -2.8070  0.9392 -2.1546
12128TIP3    H257800   6.651   1.397  13.075  1.6361  0.7530  0.4941
12129TIP3   OH257801   4.927   4.174  16.244  0.6027 -0.3406  0.0994
12129TIP3    H157802   4.899   4.137  16.328 -1.4603  1.5318  0.3442
12129TIP3    H257803   4.880   4.123  16.179  0.2110 -0.1738  0.2477
12130TIP3   OH257804   0.894   0.230   0.059 -0.2897  0.5434  0.8258
12130TIP3    H157805   0.840   0.307   0.078  0.7968  1.3080  0.9308
12130TIP3    H257806   0.925   0.245  -0.031  2.4942  1.8835  1.8916
12131TIP3   OH257807   2.841   1.147  14.943  0.8631 -0.1565  0.0247
12131TIP3    H157808   2.796   1.065  14.924  0.6340  0.0407 -0.3002
12131TIP3    H257809   2.933   1.123  14.951  1.1061 -0.1601 -2.1305
12132TIP3   OH257810   3.467   0.477  15.435 -0.5772 -0.4737 -0.2170
12132TIP3    H157811   3.512   0.423  15.370  0.7829 -1.9773  1.8662
12132TIP3    H257812   3.397   0.421  15.468 -1.1272  0.2023 -0.2233
12133TIP3   OH257813   4.753   3.236  13.151  0.0116 -0.1985  0.7267
12133TIP3    H157814   4.828   3.203  13.101 -0.5291  0.3361 -0.4823
12133TIP3    H257815   4.677   3.197  13.108 -0.4089 -1.1223  2.2438
12134TIP3   OH257816   0.484   5.337  16.992 -0.2539 -0.4189 -0.0212
12134TIP3    H157817   0.579   5.333  17.007 -0.0569  0.2963 -0.9733
12134TIP3    H257818   0.472   5.301  16.904 -0.6553  1.1313 -0.6248
12135TIP3   OH257819   5.774   1.597  12.310  0.6818  0.2599  0.0996
12135TIP3    H157820   5.754   1.505  12.327  0.0720  0.1515 -1.1309
12135TIP3    H257821   5.750   1.611  12.219 -2.4392  2.4383  1.0759
12136TIP3   OH257822   4.017   2.989   5.388  0.7402  0.1073  0.4112
12136TIP3    H157823   4.099   2.961   5.347  0.5849  1.0475 -0.5643
12136TIP3    H257824   4.002   3.077   5.355  0.2705  0.6616  2.0105
12137TIP3   OH257825   1.544   6.632  16.235 -0.0798 -0.1874  0.2631
12137TIP3    H157826   1.572   6.632  16.143 -1.3460 -1.1003 -0.1613
12137TIP3    H257827   1.545   6.724  16.261  0.6981  0.0387 -0.5342
12138TIP3   OH257828   5.698   6.450  12.681  0.4058  0.2982  0.2666
12138TIP3    H157829   5.695   6.537  12.641  1.6651  0.0198 -0.4791
12138TIP3    H257830   5.674   6.391  12.610  0.4531 -0.0336  0.5260
12139TIP3   OH257831   2.762   1.069   5.574 -0.2628  0.1381  0.1082
12139TIP3    H157832   2.761   1.064   5.670  0.2156 -0.2916  0.0961
12139TIP3    H257833   2.788   0.981   5.546 -1.2739 -0.0070 -0.4492
12140TIP3   OH257834   0.902   3.412   4.885 -0.4289 -0.1285 -0.5312
12140TIP3    H157835   0.880   3.449   4.970 -0.3722 -1.6817  0.1924
12140TIP3    H257836   0.873   3.478   4.822  1.3836  2.0064  0.7185
12141TIP3   OH257837   4.025   4.035   1.796 -0.0366  0.4251 -0.0284
12141TIP3    H157838   3.995   3.964   1.738  1.5498  0.1591 -0.5698
12141TIP3    H257839   4.119   4.018   1.808 -0.2875  0.4817  2.6247
12142TIP3   OH257840   2.052   2.552   1.110 -0.0722  0.1517 -0.0287
12142TIP3    H157841   2.064   2.518   1.199  2.6499 -0.4349 -0.5325
12142TIP3    H257842   1.970   2.602   1.114 -0.2708 -0.2620  2.6639
12143TIP3   OH257843   5.867   6.230   0.443  0.5833 -0.3960  0.1288
12143TIP3    H157844   5.941   6.199   0.389  1.6181  0.2174  1.1441
12143TIP3    H257845   5.790   6.215   0.389  1.3501 -1.9746 -0.5795
12144TIP3   OH257846   5.119   2.530  16.274 -0.8129 -0.3601  0.3143
12144TIP3    H157847   5.026   2.543  16.254 -0.8069 -0.1503  0.4285
12144TIP3    H257848   5.124   2.538  16.369 -0.8396 -1.3498  0.4158
12145TIP3   OH257849   1.553   4.076   4.233  0.0034  0.4259 -0.0551
12145TIP3    H157850   1.480   4.129   4.263 -0.4444  0.9804 -1.9929
12145TIP3    H257851   1.612   4.137   4.189  0.0298 -0.4703 -1.3442
12146TIP3   OH257852   0.177   6.528  16.996 -0.4249 -0.3483  0.1266
12146TIP3    H157853   0.224   6.449  17.020  0.8517  0.1019 -0.7788
12146TIP3    H257854   0.212   6.596  17.054 -0.0569 -0.0491 -0.4325
12147TIP3   OH257855   0.971   5.591  10.892 -0.0722 -0.0862 -0.1378
12147TIP3    H157856   1.013   5.559  10.972 -2.0690  0.8876  1.3891
12147TIP3    H257857   0.950   5.511  10.843 -0.4762 -0.8458  1.2193
12148TIP3   OH257858   2.372   6.746  13.457  0.1163 -0.8250 -0.1742
12148TIP3    H157859   2.447   6.693  13.484  2.1328  1.2959 -1.3280
12148TIP3    H257860   2.341   6.703  13.377  1.8731 -0.2278 -1.2322
12149TIP3   OH257861   1.528   0.111  14.396 -0.2203 -0.0047 -0.6171
12149TIP3    H157862   1.557   0.030  14.354 -0.0006  0.0115 -0.4946
12149TIP3    H257863   1.460   0.145  14.337  1.5541  1.1296 -2.0891
12150TIP3   OH257864   3.224   4.918   6.679 -0.4021  0.0789 -0.2619
12150TIP3    H157865   3.305   4.909   6.628 -0.0921 -0.7634  0.3479
12150TIP3    H257866   3.208   5.012   6.682  0.0079  0.1925 -1.2269
12151TIP3   OH257867   2.161   2.267   5.989 -0.0694 -0.2437 -0.1025
12151TIP3    H157868   2.250   2.237   6.007 -0.3539 -0.6232  0.7311
12151TIP3    H257869   2.117   2.263   6.074 -0.3552  1.7486 -0.1168
12152TIP3   OH257870   0.298   2.672  16.120  0.2424  0.1280 -0.0334
12152TIP3    H157871   0.296   2.676  16.025  1.1267  1.8271 -0.0204
12152TIP3    H257872   0.380   2.629  16.141  1.0740  1.6358 -0.0589
12153TIP3   OH257873   3.963   1.158  15.578  0.5533 -0.4138 -0.2695
12153TIP3    H157874   3.901   1.202  15.521 -0.2159 -1.4398 -0.2511
12153TIP3    H257875   4.023   1.227  15.607 -0.9761  0.7436  0.2576
12154TIP3   OH257876   5.234   0.564   1.353  0.1505 -0.0271  0.5927
12154TIP3    H157877   5.324   0.533   1.366  0.3807  0.6213  0.6010
12154TIP3    H257878   5.231   0.647   1.401 -0.0862  0.5769 -0.4502
12155TIP3   OH257879   4.697   2.024   6.095  0.3468  0.2955 -0.0411
12155TIP3    H157880   4.702   2.078   6.016 -0.8293 -0.2047 -0.4763
12155TIP3    H257881   4.603   2.012   6.110  0.5699 -1.4914  0.1208
12156TIP3   OH257882   2.741   0.793  15.170 -0.2439  0.1432 -0.0264
12156TIP3    H157883   2.835   0.784  15.156  0.3541  1.6754  2.2514
12156TIP3    H257884   2.720   0.725  15.234 -0.3012  0.8548  0.7274
12157TIP3   OH257885   5.148   4.635  15.957  0.2224 -0.0512  0.0835
12157TIP3    H157886   5.191   4.588  16.029  0.4023 -0.1931 -0.1170
12157TIP3    H257887   5.070   4.675  15.997  0.8153  0.6500  0.5727
12158TIP3   OH257888   1.079   5.182  16.107 -0.2062  0.4402  0.1761
12158TIP3    H157889   1.025   5.109  16.075  1.7468 -0.3726 -1.5443
12158TIP3    H257890   1.124   5.147  16.184  0.0443  0.1226 -0.1116
12159TIP3   OH257891   6.302   0.812   4.011  0.4729 -0.4765 -0.0572
12159TIP3    H157892   6.359   0.872   3.964 -0.1732  0.6758  0.5994
12159TIP3    H257893   6.316   0.832   4.104 -0.9331 -0.2047  0.1215
12160TIP3   OH257894   6.783   0.569  16.100 -0.2203 -0.3542 -0.5553
12160TIP3    H157895   6.725   0.641  16.075  0.7987  0.7581  0.1745
12160TIP3    H257896   6.871   0.601  16.079  0.2876 -1.1997  0.2205
12161TIP3   OH257897   0.432   0.010   1.959 -0.2307  0.0164  0.3059
12161TIP3    H157898   0.420  -0.069   2.012 -2.3438  0.9978  1.4541
12161TIP3    H257899   0.454  -0.022   1.872  1.2172 -1.7387  1.2621
12162TIP3   OH257900   4.155   5.153  16.283  0.6742  0.5032 -0.0406
12162TIP3    H157901   4.199   5.082  16.331  0.8071  0.0221 -0.8533
12162TIP3    H257902   4.095   5.108  16.223 -2.4849  1.1484  2.3862
12163TIP3   OH257903   6.170   2.606  17.114  0.2046  0.1528  0.1419
12163TIP3    H157904   6.157   2.587  17.207 -1.1768 -0.6107 -0.1743
12163TIP3    H257905   6.115   2.682  17.097  1.3375  0.9899  0.1839
12164TIP3   OH257906   4.813   5.740  11.763 -0.3466 -0.5866  0.5724
12164TIP3    H157907   4.756   5.682  11.712 -2.6626  1.1222  1.0211
12164TIP3    H257908   4.838   5.809  11.702 -0.3526 -0.3046  0.8840
12165TIP3   OH257909   4.327   5.659  15.452  0.3014 -0.0179 -0.0343
12165TIP3    H157910   4.267   5.676  15.379  2.2295  0.4485 -1.5796
12165TIP3    H257911   4.411   5.640  15.411  1.6927  1.0977  2.0890
12166TIP3   OH257912   0.575   1.524  11.638 -0.4783 -0.7665 -0.1902
12166TIP3    H157913   0.492   1.555  11.602 -0.5117 -0.4463  0.1505
12166TIP3    H257914   0.625   1.604  11.655  0.5555 -1.0169 -1.9128
12167TIP3   OH257915   0.865   0.901   2.276 -0.1496  0.0455 -0.5157
12167TIP3    H157916   0.957   0.880   2.258 -0.3765 -1.9888  0.4013
12167TIP3    H257917   0.838   0.835   2.340 -2.0069  1.1729 -0.0834
12168TIP3   OH257918   4.345   6.572   4.700  0.4091 -0.4584 -0.4047
12168TIP3    H157919   4.397   6.637   4.748 -0.6979 -1.0128  1.6413
12168TIP3    H257920   4.254   6.594   4.721 -0.0151 -2.1725 -0.2935
12169TIP3   OH257921   4.548   0.424  17.120 -0.0404 -0.3505 -0.1873
12169TIP3    H157922   4.550   0.510  17.161  0.4750 -0.1958 -0.5310
12169TIP3    H257923   4.462   0.388  17.143  0.1583 -0.1914  0.8660
12170TIP3   OH257924   4.262   6.588   3.471 -0.2018  0.0891  0.3600
12170TIP3    H157925   4.188   6.645   3.449 -0.7027 -0.4520  0.6393
12170TIP3    H257926   4.335   6.649   3.482  0.3755  0.4468 -3.6285
12171TIP3   OH257927   4.256   1.278  13.294 -0.1604 -0.1309 -0.1862
12171TIP3    H157928   4.193   1.248  13.229  1.3049 -0.0635 -1.6947
12171TIP3    H257929   4.208   1.343  13.345 -1.3177 -0.0932 -1.2674
12172TIP3   OH257930   5.423   6.705   2.705 -0.4030  0.5822 -0.4554
12172TIP3    H157931   5.472   6.628   2.734 -2.1529 -0.2124  0.5384
12172TIP3    H257932   5.421   6.697   2.610  2.5483  1.4114 -0.6617
12173TIP3   OH257933   5.279   2.834   2.360 -0.3157 -0.2302  0.3064
12173TIP3    H157934   5.266   2.929   2.365 -0.4513 -0.0838 -1.8158
12173TIP3    H257935   5.196   2.797   2.388 -1.2282  0.3853 -1.4619
12174TIP3   OH257936   3.175   6.460  14.615 -0.4458  0.3092  0.2048
12174TIP3    H157937   3.099   6.469  14.557 -0.7520 -0.3179  0.5084
12174TIP3    H257938   3.177   6.368  14.639  2.3257 -0.5003 -2.4213
12175TIP3   OH257939   4.863   0.677  17.227  0.0734 -0.0325  0.0924
12175TIP3    H157940   4.792   0.689  17.291 -0.0484 -0.4737  0.0435
12175TIP3    H257941   4.885   0.766  17.200  0.3795  0.1841  1.0200
12176TIP3   OH257942   2.524   0.819   4.033  0.1853 -0.4095  0.0061
12176TIP3    H157943   2.606   0.844   4.075 -0.4861  0.6012  0.7429
12176TIP3    H257944   2.469   0.786   4.104 -0.4050 -0.1358 -0.3088
12177TIP3   OH257945   1.134   2.101  15.839  0.4720 -0.2021  0.3431
12177TIP3    H157946   1.164   2.141  15.757  0.6458  0.4443  0.7117
12177TIP3    H257947   1.177   2.016  15.841  1.3654  0.2302  0.2873
12178TIP3   OH257948   6.563   0.683   2.688 -0.1787  0.2936 -0.2976
12178TIP3    H157949   6.603   0.665   2.773 -1.3591 -1.4750 -0.0431
12178TIP3    H257950   6.636   0.682   2.626  0.5314  0.1865  0.5210
12179TIP3   OH257951   6.549   0.764  16.780  0.1025 -0.3119  0.2849
12179TIP3    H157952   6.500   0.685  16.755 -0.8751  0.4834 -0.3964
12179TIP3    H257953   6.496   0.836  16.747  1.1499  0.6307  0.6086
12180TIP3   OH257954   2.197   4.145  13.307  0.2147  0.3524 -0.4722
12180TIP3    H157955   2.286   4.133  13.339  0.1686  0.9465 -0.1083
12180TIP3    H257956   2.201   4.121  13.214  0.5370 -0.5426 -0.2348
12181TIP3   OH257957   5.189   1.245   1.476  0.1096 -0.4379 -0.3488
12181TIP3    H157958   5.285   1.243   1.484  0.4626  2.6688 -2.3735
12181TIP3    H257959   5.162   1.323   1.524 -1.5742 -1.6435  0.7930
12182TIP3   OH257960   2.935   1.248  10.705  0.3850 -0.6928 -0.6500
12182TIP3    H157961   2.989   1.188  10.757  0.6970  1.0258  1.1512
12182TIP3    H257962   2.957   1.229  10.614  1.8076 -2.0341 -0.0619
12183TIP3   OH257963   6.134   0.184  11.734  0.0177  0.5933 -0.3913
12183TIP3    H157964   6.197   0.231  11.788 -0.1066 -1.3935  1.6180
12183TIP3    H257965   6.089   0.125  11.795 -3.3512  1.4461 -1.8589
12184TIP3   OH257966   3.602   0.742  14.899  0.2019 -0.5040  0.2343
12184TIP3    H157967   3.692   0.739  14.931 -0.4908 -1.1737  2.2676
12184TIP3    H257968   3.574   0.651  14.897 -0.5668 -0.2685  0.0021
12185TIP3   OH257969   4.405   2.524   1.565 -0.4948 -0.1700 -0.1390
12185TIP3    H157970   4.415   2.583   1.489 -0.3937 -0.7354 -0.5732
12185TIP3    H257971   4.495   2.508   1.594 -0.4186 -1.2786 -0.9414
12186TIP3   OH257972   0.056   5.949  16.276  0.0099  0.1990  0.1743
12186TIP3    H157973  -0.031   5.915  16.299  0.1249  0.5467  1.1792
12186TIP3    H257974   0.103   5.952  16.359  0.1588  2.3945  0.0621
12187TIP3   OH257975   4.372   2.233  15.292  0.1299  0.2498 -0.2315
12187TIP3    H157976   4.452   2.217  15.342  0.8359  0.4068 -1.2959
12187TIP3    H257977   4.390   2.199  15.205 -0.2015  2.0930 -1.0802
12188TIP3   OH257978   5.643   4.548  16.657 -1.1709  0.1960  0.2614
12188TIP3    H157979   5.660   4.596  16.576 -1.1868  0.2878  0.3131
12188TIP3    H257980   5.593   4.471  16.630  0.0157 -0.4997 -0.0012
12189TIP3   OH257981   5.439   2.728  16.273 -0.1688  0.2144 -0.3853
12189TIP3    H157982   5.529   2.754  16.256 -0.2268 -0.2598 -1.5039
12189TIP3    H257983   5.419   2.664  16.205 -1.3909  0.3896 -0.2153
12190TIP3   OH257984   2.516   4.320  15.610  0.0821 -0.1977 -0.0533
12190TIP3    H157985   2.609   4.330  15.591  0.2412 -1.6993 -0.1921
12190TIP3    H257986   2.509   4.235  15.653 -1.2113 -0.0522  0.0710
12191TIP3   OH257987   2.669   4.952   3.632 -0.3205  0.2440  0.2712
12191TIP3    H157988   2.651   5.018   3.700  0.4631 -0.4898  1.2273
12191TIP3    H257989   2.759   4.925   3.649 -0.1987 -0.1493 -0.9194
12192TIP3   OH257990   3.891   5.673  12.224 -0.0004  0.0308 -0.8963
12192TIP3    H157991   3.924   5.752  12.267  0.3264 -1.2571  1.3931
12192TIP3    H257992   3.887   5.695  12.132  2.6035  1.8579 -0.6635
12193TIP3   OH257993   2.113   1.382  17.212  0.1078 -0.2774  0.0869
12193TIP3    H157994   2.058   1.406  17.288  1.9552  0.6140  1.2110
12193TIP3    H257995   2.104   1.456  17.152  1.5952  0.8360  1.1695
12194TIP3   OH257996   4.792   4.655  15.373  0.3743  0.2547 -0.8106
12194TIP3    H157997   4.794   4.700  15.288 -0.9702  1.7808 -0.0752
12194TIP3    H257998   4.700   4.650  15.396  0.5225 -2.2344 -0.4516
12195TIP3   OH257999   4.480   0.761  11.969  0.0373  0.1339 -0.4062
12195TIP3    H158000   4.521   0.711  11.898  2.9787 -1.4642  2.1745
12195TIP3    H258001   4.544   0.829  11.990 -0.6314  0.3965  0.8763
12196TIP3   OH258002   6.109   5.158  15.305  0.1029  0.1821  0.4901
12196TIP3    H158003   6.060   5.237  15.280  1.3372  0.5802 -0.8094
12196TIP3    H258004   6.045   5.104  15.351 -1.7035  0.5177 -1.4582
12197TIP3   OH258005   6.436   6.599  13.640  0.4456 -0.3987 -0.2121
12197TIP3    H158006   6.488   6.669  13.599  0.3445 -0.1926  0.0128
12197TIP3    H258007   6.491   6.567  13.711  0.3455 -0.3112 -0.0956
12198TIP3   OH258008   2.822   6.013  15.189 -0.3305  1.3779 -0.1088
12198TIP3    H158009   2.882   5.981  15.123  0.1179  1.0441  0.4490
12198TIP3    H258010   2.743   6.037  15.141 -0.2195  0.6041 -0.6906
12199TIP3   OH258011   2.222   5.837  11.267  0.2715  0.1192 -0.0649
12199TIP3    H158012   2.154   5.797  11.212 -1.0102 -0.1367  1.6311
12199TIP3    H258013   2.182   5.917  11.300  0.9410  0.1784  0.6228
12200TIP3   OH258014   0.212   2.401  13.252  0.3385  0.0739  0.0449
12200TIP3    H158015   0.118   2.404  13.233  0.3182  2.5682  0.2113
12200TIP3    H258016   0.222   2.331  13.317 -1.2269 -0.8987 -0.7090
12201TIP3   OH258017   2.028   2.619  14.345  0.0271 -0.0624 -0.1002
12201TIP3    H158018   2.085   2.648  14.274 -0.0632 -1.1845 -0.6544
12201TIP3    H258019   1.992   2.535  14.315  0.2127 -0.7084  1.3761
12202TIP3   OH258020   4.472   0.716   4.536 -0.0777  0.0295  0.0019
12202TIP3    H158021   4.406   0.664   4.581 -1.4267  1.6999  0.0990
12202TIP3    H258022   4.463   0.804   4.573  2.5086  0.2472  0.2802
12203TIP3   OH258023   5.706   0.097  13.384 -0.4933  0.2550  0.7579
12203TIP3    H158024   5.715   0.186  13.419 -0.7067 -0.0843  1.6870
12203TIP3    H258025   5.740   0.040  13.453 -1.0700 -0.4347  0.4812
12204TIP3   OH258026   3.965   2.263   1.968  0.0433 -0.7738 -0.4496
12204TIP3    H158027   4.042   2.316   1.989 -0.8688  0.8182 -0.9469
12204TIP3    H258028   3.993   2.173   1.985  1.1971 -0.0623  1.8076
12205TIP3   OH258029   4.037   2.349  15.677  0.6301 -0.1834  0.7043
12205TIP3    H158030   3.947   2.380  15.663 -0.3163 -3.5966 -2.3985
12205TIP3    H258031   4.090   2.403  15.620  0.3984  0.9527  1.5227
12206TIP3   OH258032   6.624   3.034   0.755 -0.7441 -0.2082  0.3845
12206TIP3    H158033   6.558   3.015   0.688  0.1638  0.4855 -0.7530
12206TIP3    H258034   6.689   2.965   0.744 -0.0040  0.5770 -0.2720
12207TIP3   OH258035   5.708   0.507   4.077 -0.2163  0.1085  0.2928
12207TIP3    H158036   5.642   0.474   4.017  0.1491  2.5874 -1.6309
12207TIP3    H258037   5.666   0.580   4.123  0.8762  1.2028 -0.3693
12208TIP3   OH258038   2.322   0.823  11.554 -0.7264 -0.1493 -0.4005
12208TIP3    H158039   2.329   0.727  11.558  0.6403 -0.0581 -0.1033
12208TIP3    H258040   2.261   0.844  11.624  0.1584 -0.7252  0.5925
12209TIP3   OH258041   6.227   1.347   0.085  0.2827  0.0947 -0.9077
12209TIP3    H158042   6.172   1.419   0.116  1.0478  0.4493 -0.3579
12209TIP3    H258043   6.296   1.339   0.150  0.0381 -1.3516 -0.7861
12210TIP3   OH258044   3.574   4.233  14.918 -0.3017  0.2999 -0.5281
12210TIP3    H158045   3.601   4.146  14.946  0.0745  0.7807  0.6717
12210TIP3    H258046   3.590   4.289  14.994 -3.2050  0.9120 -0.2535
12211TIP3   OH258047   5.501   5.684   6.382 -0.0447 -0.3470  0.0828
12211TIP3    H158048   5.515   5.669   6.475  1.6792 -0.7852 -0.2231
12211TIP3    H258049   5.405   5.689   6.373 -0.2792 -1.3075  1.7029
12212TIP3   OH258050   3.130   0.880   5.346 -0.2435  0.0594 -0.0764
12212TIP3    H158051   3.081   0.898   5.266 -1.5053 -0.6638  0.4994
12212TIP3    H258052   3.100   0.947   5.408  1.2276  1.0429 -0.3790
12213TIP3   OH258053   6.227   5.936  12.418 -0.6769  0.2377 -0.3102
12213TIP3    H158054   6.275   5.924  12.500 -1.3542  2.7817  0.5500
12213TIP3    H258055   6.202   5.847  12.392  2.6236 -0.9928  0.2837
12214TIP3   OH258056   0.784   3.747   3.352 -0.0608  0.6434  0.2978
12214TIP3    H158057   0.860   3.805   3.361  0.3461  0.0326  0.8451
12214TIP3    H258058   0.731   3.788   3.283  1.9173 -0.1547 -1.8194
12215TIP3   OH258059   0.995   5.177  16.555  0.1957  0.0563 -0.1755
12215TIP3    H158060   0.951   5.253  16.516  0.3730  0.2290 -0.0433
12215TIP3    H258061   0.992   5.195  16.649  0.1260 -0.1632 -0.1359
12216TIP3   OH258062   2.385   2.022  14.173  0.2791 -0.2619  0.5441
12216TIP3    H158063   2.307   1.982  14.135  1.1226 -0.8868 -0.5779
12216TIP3    H258064   2.369   2.019  14.268 -0.9641 -0.5545  0.3424
12217TIP3   OH258065   6.307   5.754   2.559  0.9028  0.1791  0.6930
12217TIP3    H158066   6.301   5.659   2.567  0.9467  0.0838 -0.2717
12217TIP3    H258067   6.344   5.768   2.472  0.2631  1.0974  0.5591
12218TIP3   OH258068   5.685   4.977   1.001  0.0505  0.0842 -0.1049
12218TIP3    H158069   5.597   5.000   1.031 -0.4662  1.2828 -2.2759
12218TIP3    H258070   5.735   5.058   1.011  0.7387 -0.3929  0.4453
12219TIP3   OH258071   1.277   5.280  15.393  0.2758  0.5054  0.1140
12219TIP3    H158072   1.241   5.194  15.372 -2.3902  1.6250 -0.4090
12219TIP3    H258073   1.264   5.331  15.312  0.2540  1.8119  0.9094
12220TIP3   OH258074   5.779   5.506  16.875  0.3000  1.3021 -0.1734
12220TIP3    H158075   5.780   5.559  16.955 -0.9341 -1.0870  1.5401
12220TIP3    H258076   5.871   5.479  16.864  0.3553  0.9649  0.9592
12221TIP3   OH258077   1.125   2.747   3.904 -0.3942 -0.1851 -0.1413
12221TIP3    H158078   1.125   2.656   3.873 -0.0275  0.1033 -1.0252
12221TIP3    H258079   1.036   2.777   3.890 -0.6476 -0.5463  0.6128
12222TIP3   OH258080   2.912   6.662  16.426 -0.5129  0.5517 -0.2939
12222TIP3    H158081   2.922   6.681  16.333  1.8307 -0.1954 -0.2575
12222TIP3    H258082   2.905   6.567  16.431  3.9282  0.0480  0.4453
12223TIP3   OH258083   5.750   2.940   2.456 -0.1799 -0.1761 -0.2027
12223TIP3    H158084   5.806   2.895   2.520 -0.7056 -1.2107 -0.4482
12223TIP3    H258085   5.809   2.965   2.385  0.5440  1.5708  0.9387
12224TIP3   OH258086   3.395   6.161  12.856 -0.0262 -0.4736  0.4646
12224TIP3    H158087   3.383   6.151  12.950 -2.9255 -1.0845  0.1119
12224TIP3    H258088   3.393   6.072  12.822 -1.2521 -0.1453 -0.3667
12225TIP3   OH258089   6.479   4.267   3.391 -0.0567 -0.0130  0.2237
12225TIP3    H158090   6.479   4.272   3.296  0.2608 -1.2543  0.1493
12225TIP3    H258091   6.420   4.195   3.412  0.7867 -0.5351  0.8976
12226TIP3   OH258092   4.243   6.377  12.584  0.2115  0.3946  0.1208
12226TIP3    H158093   4.276   6.319  12.516 -0.2444  0.1680  0.0844
12226TIP3    H258094   4.320   6.419  12.621  0.3897  1.7101 -1.5962
12227TIP3   OH258095   5.260   0.223   2.058  0.0505  0.3134  0.5636
12227TIP3    H158096   5.228   0.274   2.133 -2.5683  0.2478 -0.4014
12227TIP3    H258097   5.210   0.257   1.984  2.2291  0.0355 -1.0911
12228TIP3   OH258098   3.788   6.011  14.407 -0.4763  0.3931 -0.0761
12228TIP3    H158099   3.745   5.979  14.487 -2.1506 -0.9982 -1.4575
12228TIP3    H258100   3.750   6.097  14.392 -1.4341 -0.0452 -0.2599
12229TIP3   OH258101   1.708   6.787  12.961  0.1736  0.0894  0.3698
12229TIP3    H158102   1.704   6.873  12.920 -3.2910  0.0231  0.3268
12229TIP3    H258103   1.776   6.740  12.911 -0.9883  1.3447 -2.6014
12230TIP3   OH258104   1.551   1.009  15.284  0.2788 -0.2300  0.3777
12230TIP3    H158105   1.486   1.017  15.353  0.9873  1.4312  0.9352
12230TIP3    H258106   1.512   0.951  15.219 -1.9311  1.0376  0.4833
12231TIP3   OH258107   5.919   4.901  15.738 -0.0256  0.1685 -0.0099
12231TIP3    H158108   5.914   4.805  15.737  0.7354  0.0856  1.3287
12231TIP3    H258109   5.940   4.925  15.648 -1.4459 -0.8241 -0.6506
12232TIP3   OH258110   0.602   4.811  14.627 -0.4173  0.7794  0.5096
12232TIP3    H158111   0.605   4.827  14.722  0.0069  2.0535  0.2940
12232TIP3    H258112   0.675   4.862  14.592 -0.8521  0.6759 -0.5635
12233TIP3   OH258113   6.499   1.989   0.288 -0.5782 -0.0384 -0.1608
12233TIP3    H158114   6.577   2.035   0.322 -0.4672 -0.8201  0.6835
12233TIP3    H258115   6.535   1.925   0.226 -0.7029  0.7378 -1.0551
12234TIP3   OH258116   1.897   6.602  14.470 -0.5065  0.1693  0.9185
12234TIP3    H158117   1.836   6.651  14.414  0.0981  0.3020  0.3551
12234TIP3    H258118   1.982   6.644  14.454  0.0343 -1.0897  0.3791
12235TIP3   OH258119   2.664   4.405   4.379  0.2626  0.0948  0.1747
12235TIP3    H158120   2.571   4.412   4.356  0.1828 -0.4743  0.3255
12235TIP3    H258121   2.709   4.454   4.310 -0.1738  0.7054  0.3134
12236TIP3   OH258122   5.262   0.674   3.976  0.2079 -0.0647 -0.1694
12236TIP3    H158123   5.221   0.665   3.890 -0.8728  1.6334  0.1118
12236TIP3    H258124   5.304   0.760   3.973 -2.8025  1.7091  2.0558
12237TIP3   OH258125   6.563   0.451  12.372  0.4714  0.4435  0.1842
12237TIP3    H158126   6.518   0.419  12.293 -1.9485  0.9398  1.2691
12237TIP3    H258127   6.565   0.546  12.362 -1.8906  0.7432  1.5948
12238TIP3   OH258128   0.413   3.050   2.427  0.2238  0.6308 -0.0088
12238TIP3    H158129   0.479   3.048   2.357 -0.1435  1.3435 -0.3865
12238TIP3    H258130   0.438   2.978   2.485 -0.5477 -1.1978 -1.8371
12239TIP3   OH258131   4.185   5.158  13.882  0.3386  0.5874  0.6502
12239TIP3    H158132   4.221   5.221  13.945 -0.0221  2.2402 -0.7348
12239TIP3    H258133   4.253   5.148  13.816  0.2965 -0.3316  0.7303
12240TIP3   OH258134   3.572   4.561  16.212  0.3311  0.0378 -0.0725
12240TIP3    H158135   3.635   4.607  16.267  0.8155 -0.2876 -0.3417
12240TIP3    H258136   3.618   4.481  16.186  0.4039  0.5187 -1.5284
12241TIP3   OH258137   5.466   5.050   2.869 -0.0990 -0.4637  0.1061
12241TIP3    H158138   5.445   4.995   2.794  0.6546 -0.4376 -0.1315
12241TIP3    H258139   5.383   5.060   2.916 -0.1265 -2.3873  0.5499
12242TIP3   OH258140   6.774   2.487   0.704 -0.4237 -0.5634  0.9080
12242TIP3    H158141   6.864   2.460   0.725  0.7386  1.9892 -0.4002
12242TIP3    H258142   6.758   2.563   0.759 -0.3113  1.2958 -1.4736
12243TIP3   OH258143   0.207   2.966  14.500  0.0369 -0.1768  0.5905
12243TIP3    H158144   0.204   2.942  14.593 -0.2295 -3.8481 -0.2115
12243TIP3    H258145   0.123   2.937  14.465  0.1993  0.9740 -0.8385
12244TIP3   OH258146   3.200   2.984   4.291  0.6982 -0.1620 -0.2286
12244TIP3    H158147   3.120   3.016   4.331  0.3295  0.9383 -1.7594
12244TIP3    H258148   3.265   2.987   4.362  0.6410  3.8430 -0.0929
12245TIP3   OH258149   1.820   1.107   1.204 -0.0977  0.0257 -0.2306
12245TIP3    H158150   1.729   1.115   1.175  0.0401  1.6224 -0.3044
12245TIP3    H258151   1.814   1.101   1.299 -0.3487 -1.4162 -0.3250
12246TIP3   OH258152   0.853   3.881  11.754  0.0775 -0.7320 -0.0215
12246TIP3    H158153   0.794   3.876  11.829 -0.0822  3.9464  0.4431
12246TIP3    H258154   0.937   3.908  11.791  0.7548 -1.0219 -1.2848
12247TIP3   OH258155   1.398   1.891  16.534  0.0704 -0.2890 -0.3288
12247TIP3    H158156   1.337   1.850  16.596  0.6383 -0.7014 -0.0332
12247TIP3    H258157   1.390   1.838  16.455  0.3468 -0.5949 -0.1525
12248TIP3   OH258158   5.630   4.311   5.863 -0.0457  0.0591  0.6156
12248TIP3    H158159   5.705   4.356   5.901 -0.1775  1.3821 -0.5795
12248TIP3    H258160   5.557   4.330   5.921  0.1278  0.4983  0.6884
12249TIP3   OH258161   4.975   1.656  11.726  0.2008 -0.4621  0.1889
12249TIP3    H158162   4.906   1.667  11.660 -1.5186 -0.8965  1.8386
12249TIP3    H258163   4.986   1.743  11.763  0.4201 -0.4320  0.0557
12250TIP3   OH258164   2.311   0.895  10.947 -0.4409 -0.7560  0.0118
12250TIP3    H158165   2.233   0.927  10.901 -0.6996 -1.6635 -0.2151
12250TIP3    H258166   2.352   0.973  10.983 -1.9488 -0.3569  0.9148
12251TIP3   OH258167   4.403   6.404   0.411 -0.4118  0.3365 -0.4001
12251TIP3    H158168   4.382   6.313   0.390  0.6927 -0.2831  0.9664
12251TIP3    H258169   4.332   6.455   0.372 -0.1643 -0.9273 -2.7080
12252TIP3   OH258170   5.932   4.180   5.033  0.1988 -0.3302  0.0445
12252TIP3    H158171   6.024   4.196   5.015  0.0154 -0.6180 -1.2818
12252TIP3    H258172   5.886   4.249   4.984 -0.3711 -1.6355 -1.3402
12253TIP3   OH258173   0.213   3.676  15.179  0.5301 -0.1661  0.4964
12253TIP3    H158174   0.201   3.751  15.121 -0.1762  0.5566  1.5461
12253TIP3    H258175   0.214   3.600  15.120 -1.1706  0.4459 -0.3994
12254TIP3   OH258176   5.885   2.286   5.601 -0.5564 -0.1196  0.1938
12254TIP3    H158177   5.866   2.246   5.517  0.5104 -0.2868  0.0115
12254TIP3    H258178   5.817   2.253   5.660 -1.6369  0.4238 -0.7041
12255TIP3   OH258179   0.373   5.600   6.278 -0.0141 -0.0681  0.1338
12255TIP3    H158180   0.279   5.604   6.260 -0.2731 -0.5397  1.3389
12255TIP3    H258181   0.389   5.671   6.339  0.0123 -1.2723  1.5725
12256TIP3   OH258182   1.583   1.448  13.871 -0.2540 -0.3014  0.2758
12256TIP3    H158183   1.531   1.372  13.844 -1.1858  0.1350  0.8135
12256TIP3    H258184   1.531   1.491  13.939 -0.2921  1.4634 -0.7982
12257TIP3   OH258185   3.135   1.990  16.229  0.1637  0.3747  0.1737
12257TIP3    H158186   3.040   1.994  16.221  0.2588  1.5613 -0.5753
12257TIP3    H258187   3.155   1.896  16.230 -1.0217  0.1147  0.5246
12258TIP3   OH258188   0.364   3.452   3.277  0.0158 -0.4832  0.4591
12258TIP3    H158189   0.424   3.482   3.345 -0.5901  2.6847 -0.2528
12258TIP3    H258190   0.386   3.505   3.201 -3.7937  1.0176  0.2252
12259TIP3   OH258191   6.001   0.047  11.010 -0.6382  0.2105  0.1997
12259TIP3    H158192   6.021   0.003  11.092  1.3514 -0.2779 -0.4851
12259TIP3    H258193   5.954  -0.018  10.958  2.1944 -1.2109 -0.7658
12260TIP3   OH258194   3.425   0.739  10.764 -0.4842  0.6198 -0.1446
12260TIP3    H158195   3.386   0.658  10.795 -0.4764  0.5685 -0.2670
12260TIP3    H258196   3.350   0.795  10.744 -0.4820  1.0039  0.8743
12261TIP3   OH258197   3.815   3.275  15.404 -0.2721  0.6290  0.2435
12261TIP3    H158198   3.793   3.248  15.315 -0.6942 -0.4404  0.6579
12261TIP3    H258199   3.909   3.263  15.411 -0.3580 -0.1008  0.1999
12262TIP3   OH258200   3.401   1.192  13.872  0.5058 -0.2953  0.2782
12262TIP3    H158201   3.455   1.113  13.863  1.2660  0.0780  1.3386
12262TIP3    H258202   3.352   1.197  13.790  3.2721  0.2226 -1.4857
12263TIP3   OH258203   5.742   5.918   1.976 -0.9360 -0.5124  0.1782
12263TIP3    H158204   5.794   5.934   2.054 -1.8366 -0.2211  0.7337
12263TIP3    H258205   5.652   5.911   2.008 -1.1854 -1.5473 -0.6922
12264TIP3   OH258206   5.158   3.382  16.719 -0.1675 -0.1003 -1.0566
12264TIP3    H158207   5.231   3.321  16.732  0.3085  0.9942  2.7853
12264TIP3    H258208   5.200   3.463  16.691  0.4434  0.8266  2.0933
12265TIP3   OH258209   1.492   1.198   0.902  0.0827  0.7413  0.1187
12265TIP3    H158210   1.418   1.152   0.862  0.3267 -0.5044  1.0268
12265TIP3    H258211   1.568   1.168   0.852  0.4689 -1.3027  1.7829
12266TIP3   OH258212   4.594   4.173  11.844  0.3963 -0.3863 -0.3716
12266TIP3    H158213   4.663   4.194  11.906  0.6175 -1.7862 -0.1028
12266TIP3    H258214   4.638   4.172  11.759  0.3952  0.1248 -0.3809
12267TIP3   OH258215   6.638   6.790  14.721  0.3637  0.1096  0.0449
12267TIP3    H158216   6.689   6.852  14.774 -1.7533  1.2717  0.8640
12267TIP3    H258217   6.649   6.821  14.631 -1.5780  2.5564  0.5209
12268TIP3   OH258218   2.189   0.550   5.546  0.5152 -0.1832 -0.2112
12268TIP3    H158219   2.265   0.517   5.498 -0.5368 -1.0269 -1.3904
12268TIP3    H258220   2.149   0.472   5.584 -0.2069  0.1254 -0.3077
12269TIP3   OH258221   6.588   2.845  16.169 -0.3819  0.1211 -0.0342
12269TIP3    H158222   6.599   2.803  16.255 -0.8335 -0.7054 -0.3737
12269TIP3    H258223   6.508   2.807  16.133 -1.4882  2.1528  0.1283
12270TIP3   OH258224   3.663   0.086  16.981 -0.2829 -0.5364  0.1551
12270TIP3    H158225   3.673   0.103  17.075 -0.7525  1.7508 -0.1531
12270TIP3    H258226   3.568   0.079  16.968 -0.2289 -0.6804 -0.1641
12271TIP3   OH258227   2.124   2.582  11.099  0.6489 -0.1013 -0.1331
12271TIP3    H158228   2.216   2.607  11.090  0.8201 -0.9707 -1.0494
12271TIP3    H258229   2.075   2.656  11.063  0.9412  0.7181  1.1173
12272TIP3   OH258230   5.014   4.042  13.916 -0.0411  0.1776  0.4173
12272TIP3    H158231   5.008   4.137  13.913 -0.6126  0.1699  1.1225
12272TIP3    H258232   5.041   4.023  14.006 -0.4565 -0.3530  0.4300
12273TIP3   OH258233   1.248   0.360   2.928  0.5263 -0.1169  0.3974
12273TIP3    H158234   1.311   0.432   2.920  1.8829 -1.3866 -0.6036
12273TIP3    H258235   1.260   0.328   3.017  0.8851  0.0106  0.3962
12274TIP3   OH258236   2.364   5.188   4.343  0.4706 -0.3647 -0.3618
12274TIP3    H158237   2.429   5.258   4.333  1.4173 -1.0999  0.5195
12274TIP3    H258238   2.312   5.193   4.262  1.4766  0.3748 -0.9967
12275TIP3   OH258239   5.498   2.636   0.983  0.0572 -0.4408 -0.6463
12275TIP3    H158240   5.421   2.692   0.996 -0.7098 -1.6912  0.3904
12275TIP3    H258241   5.567   2.697   0.953 -1.1466  0.7974 -1.0069
12276TIP3   OH258242   6.659   2.584   2.591 -0.0584 -0.1338 -0.0183
12276TIP3    H158243   6.654   2.672   2.628  0.2741  0.5798 -1.5675
12276TIP3    H258244   6.749   2.555   2.609  0.2675  0.4217 -0.6738
12277TIP3   OH258245   2.834   5.988  11.422 -0.5628  0.2156 -0.0087
12277TIP3    H158246   2.830   5.897  11.391  0.8181  0.2855 -0.4780
12277TIP3    H258247   2.829   5.981  11.517 -0.1378 -0.4010 -0.0205
12278TIP3   OH258248   4.190   4.905  13.050 -0.3347 -0.2959  0.1778
12278TIP3    H158249   4.165   4.916  12.958 -2.2462 -1.2149  0.5505
12278TIP3    H258250   4.129   4.960  13.098 -2.5770 -3.4497  1.2135
12279TIP3   OH258251   0.281   4.068  11.665 -0.2527 -0.3776  0.1374
12279TIP3    H158252   0.287   4.163  11.663  0.6962 -0.4403 -1.6473
12279TIP3    H258253   0.290   4.041  11.574 -1.4101 -2.1466  0.4877
12280TIP3   OH258254   5.565   6.727   4.306 -0.0245 -0.5915  0.4454
12280TIP3    H158255   5.645   6.734   4.358 -0.1977 -1.2912  0.8249
12280TIP3    H258256   5.545   6.817   4.280  0.7608 -0.3845  0.5314
12281TIP3   OH258257   0.997   2.781  16.996 -0.0600 -0.5796  0.4428
12281TIP3    H158258   1.019   2.696  16.959 -4.2041 -0.9661 -1.5910
12281TIP3    H258259   1.034   2.844  16.934 -1.7251 -1.1133 -1.1789
12282TIP3   OH258260   4.902   2.415  16.108  0.2052  0.0098  0.1353
12282TIP3    H158261   4.844   2.491  16.101  0.2452  0.2404  1.9996
12282TIP3    H258262   4.850   2.350  16.154  0.9898 -0.2377  0.6868
12283TIP3   OH258263   1.921   5.358  11.775 -0.3834  0.1063  0.1073
12283TIP3    H158264   1.838   5.405  11.777 -0.8115 -0.4577  3.9893
12283TIP3    H258265   1.986   5.421  11.808  0.5526  0.1426 -1.6677
12284TIP3   OH258266   3.523   4.369  13.955 -0.0149 -0.8626 -0.5907
12284TIP3    H158267   3.529   4.300  14.021  0.0896 -0.9477 -0.6901
12284TIP3    H258268   3.459   4.336  13.892 -2.0911  0.3068  0.7963
12285TIP3   OH258269   1.155   0.068  14.782 -0.3515 -0.4122  0.7556
12285TIP3    H158270   1.180   0.148  14.829  0.0883 -0.7006  1.0192
12285TIP3    H258271   1.212   0.067  14.704 -1.4523  0.3487 -0.0940
12286TIP3   OH258272   5.601   5.528   6.076  0.0279 -0.1528  0.1403
12286TIP3    H158273   5.594   5.458   6.011 -1.7678  0.2976 -0.1878
12286TIP3    H258274   5.608   5.608   6.024 -0.6059  0.1377  0.5004
12287TIP3   OH258275   3.633   1.162   4.684  0.6852 -0.2758 -0.3525
12287TIP3    H158276   3.547   1.204   4.691  0.5920 -0.7263  1.7305
12287TIP3    H258277   3.615   1.075   4.649  0.2177 -0.5786  0.6302
12288TIP3   OH258278   2.947   4.243  14.182 -0.1462  0.2916 -0.6497
12288TIP3    H158279   2.991   4.320  14.219 -1.7775  1.2046 -0.4828
12288TIP3    H258280   2.943   4.261  14.088 -0.0439  0.1506 -0.6809
12289TIP3   OH258281   5.366   5.382   0.312  0.0505 -0.1649 -0.3965
12289TIP3    H158282   5.369   5.405   0.220 -0.0049 -0.6609 -0.5237
12289TIP3    H258283   5.458   5.382   0.340  0.0876 -0.2959 -0.5204
12290TIP3   OH258284   5.167   1.320   5.196 -0.7719 -0.1084  0.0869
12290TIP3    H158285   5.220   1.310   5.117 -0.5530  0.9030  0.0959
12290TIP3    H258286   5.086   1.274   5.177 -0.9771  0.6674 -0.9739
12291TIP3   OH258287   4.417   4.136   2.902  0.3181 -0.3998  0.0423
12291TIP3    H158288   4.440   4.219   2.944 -0.6552  0.1242 -0.4173
12291TIP3    H258289   4.500   4.102   2.868  0.7660  0.2494  0.4753
12292TIP3   OH258290   3.827   3.022  12.120 -0.4092 -0.4566 -0.4185
12292TIP3    H158291   3.770   3.085  12.076 -0.2830  0.3296  0.5026
12292TIP3    H258292   3.851   3.065  12.203  0.8206 -1.1166 -0.4015
12293TIP3   OH258293   1.036   5.657  17.185 -0.4100  0.1709  0.0148
12293TIP3    H158294   1.043   5.725  17.118  0.6174  0.4427  0.3803
12293TIP3    H258295   1.124   5.619  17.190 -0.2559  0.6664  1.7265
12294TIP3   OH258296   5.980   2.585  13.218  0.1591 -0.3628  0.0670
12294TIP3    H158297   5.919   2.518  13.249 -1.0496  0.2935 -0.8065
12294TIP3    H258298   6.007   2.555  13.131  1.3174 -0.7838  0.5589
12295TIP3   OH258299   4.203   2.444  13.288  0.3117 -0.1449 -0.4450
12295TIP3    H158300   4.168   2.472  13.373  0.5522 -1.4044  0.1085
12295TIP3    H258301   4.239   2.356  13.306  0.2694 -0.4712 -1.8757
12296TIP3   OH258302   4.595   0.729   0.490  0.0971  0.3677 -0.5407
12296TIP3    H158303   4.536   0.802   0.473  1.3391  1.8946  1.3100
12296TIP3    H258304   4.538   0.653   0.500 -1.3556  1.3723 -0.8876
12297TIP3   OH258305   0.647   6.013   4.985 -0.0658  0.6914  0.2534
12297TIP3    H158306   0.576   6.037   5.045  1.7610  1.0259  2.4271
12297TIP3    H258307   0.642   5.918   4.979  0.5092  0.4967  2.1091
12298TIP3   OH258308   0.887   4.209   4.765 -0.5314  0.4304 -0.0768
12298TIP3    H158309   0.935   4.131   4.738  1.7890  1.3210  1.2006
12298TIP3    H258310   0.844   4.183   4.847  0.3992  0.5090  0.4520
12299TIP3   OH258311   5.765   2.077   3.328  0.7751  0.4505  0.4177
12299TIP3    H158312   5.786   2.071   3.422  1.3159 -0.5294  0.2395
12299TIP3    H258313   5.676   2.044   3.322  0.5946  0.8810  0.6307
12300TIP3   OH258314   5.530   1.499   1.009  0.6028 -0.0772 -0.1580
12300TIP3    H158315   5.491   1.487   0.923 -0.2171 -0.3512  0.2330
12300TIP3    H258316   5.605   1.556   0.994 -0.1021  0.6859 -0.9132
12301TIP3   OH258317   2.811   0.509   6.048 -0.1913 -0.1138 -0.5917
12301TIP3    H158318   2.868   0.585   6.045 -0.7663  0.3074 -1.5514
12301TIP3    H258319   2.730   0.538   6.006 -0.8460 -0.9145  0.0608
12302TIP3   OH258320   4.964   3.129  15.177  0.4317 -0.5544 -0.5478
12302TIP3    H158321   4.886   3.154  15.128 -0.1653  0.9188  1.0569
12302TIP3    H258322   4.955   3.034  15.189  0.6363 -1.0107 -3.2112
12303TIP3   OH258323   6.603   6.441  15.066  0.3716 -0.4424 -0.0686
12303TIP3    H158324   6.564   6.510  15.013  1.9444  0.9337  0.4597
12303TIP3    H258325   6.653   6.488  15.133  1.7171 -2.0708  0.1442
12304TIP3   OH258326   0.966   6.557   4.865  0.1760 -0.1301 -0.4100
12304TIP3    H158327   1.050   6.518   4.893  0.5986  1.0276 -0.0097
12304TIP3    H258328   0.976   6.572   4.772 -0.4327 -2.0200 -0.8261
12305TIP3   OH258329   5.541   4.184  13.385 -0.2724 -0.3685  0.0160
12305TIP3    H158330   5.571   4.215  13.470  2.2336 -0.0758 -0.8749
12305TIP3    H258331   5.450   4.159  13.398 -0.1786  0.4115  2.5630
12306TIP3   OH258332   0.942   0.081  12.123 -0.2870 -0.2762 -0.5410
12306TIP3    H158333   0.902   0.012  12.176  0.4477  0.0654  0.4894
12306TIP3    H258334   0.909   0.162  12.161 -0.7626 -0.0273 -1.4421
12307TIP3   OH258335   5.591   2.458   6.733 -0.1657 -0.4018  0.5724
12307TIP3    H158336   5.525   2.391   6.752  1.0940 -1.4158  1.5062
12307TIP3    H258337   5.656   2.413   6.680  0.9899 -0.0966  1.6884
12308TIP3   OH258338   1.868   0.169   0.427  0.3285 -0.0441 -1.1018
12308TIP3    H158339   1.944   0.226   0.440 -0.0175  0.0274  0.8426
12308TIP3    H258340   1.878   0.136   0.337  1.9699  0.9461 -1.3190
12309TIP3   OH258341   2.718   1.267   4.914  0.2779  0.2575 -0.6054
12309TIP3    H158342   2.677   1.200   4.859  1.3404 -0.1052 -0.9879
12309TIP3    H258343   2.707   1.235   5.003 -2.2874  1.2993 -0.4653
12310TIP3   OH258344   6.147   6.346   3.620 -0.2534 -0.3474  0.2625
12310TIP3    H158345   6.139   6.380   3.710 -1.7143 -0.4963  0.2113
12310TIP3    H258346   6.176   6.421   3.569  1.5669 -0.4932  0.9926
12311TIP3   OH258347   3.158   5.540   4.452  0.3278 -0.0198  0.1932
12311TIP3    H158348   3.166   5.613   4.513 -0.3074  0.8797 -0.7706
12311TIP3    H258349   3.244   5.498   4.453  0.0701 -0.6197  2.4060
12312TIP3   OH258350   6.026   0.813  12.785 -0.2031  0.2191  0.9704
12312TIP3    H158351   6.042   0.878  12.854  0.1361 -0.1729  1.2635
12312TIP3    H258352   6.056   0.730  12.822  4.2697  0.5713 -1.1814
12313TIP3   OH258353   3.940   0.934  13.196 -0.1712 -0.2887  0.3472
12313TIP3    H158354   3.903   0.847  13.203  1.1259 -0.7568  2.0469
12313TIP3    H258355   3.947   0.965  13.286  0.0814  1.2777 -0.1689
12314TIP3   OH258356   1.978   2.273  12.820 -0.1542 -0.9272 -0.5461
12314TIP3    H158357   2.046   2.278  12.753  0.3193 -0.2540 -0.0428
12314TIP3    H258358   2.016   2.219  12.889 -0.6498 -1.6413 -0.8174
12315TIP3   OH258359   1.532   6.515  10.357  0.4346  0.8836 -0.3513
12315TIP3    H158360   1.540   6.579  10.427 -1.0268  0.3349  0.3673
12315TIP3    H258361   1.605   6.455  10.371  1.1525  1.7403 -0.3556
12316TIP3   OH258362   3.314   5.635   2.494  0.1269 -0.5523 -0.1775
12316TIP3    H158363   3.294   5.580   2.419  1.6093 -1.0190 -0.2777
12316TIP3    H258364   3.403   5.608   2.520  1.0327  1.9655 -0.4013
12317TIP3   OH258365   3.386   2.727   2.747  0.1318  0.1114 -0.2729
12317TIP3    H158366   3.356   2.818   2.758  0.8592  0.1234  2.2041
12317TIP3    H258367   3.330   2.676   2.804  0.9617 -0.7196 -0.1782
12318TIP3   OH258368   3.159   4.915   1.238 -0.0035 -0.4521  0.4800
12318TIP3    H158369   3.092   4.922   1.170  3.0577 -1.1724 -2.9064
12318TIP3    H258370   3.189   4.825   1.233  0.2048 -0.6037  3.0754
12319TIP3   OH258371   1.579   0.379  14.571  0.5458 -0.3932 -0.4656
12319TIP3    H158372   1.651   0.441  14.561  0.8796 -0.8632 -0.9706
12319TIP3    H258373   1.606   0.301  14.524  1.2641 -1.9464  2.3079
12320TIP3   OH258374   1.235   0.434   1.989  0.3580 -0.4879  0.0282
12320TIP3    H158375   1.218   0.350   1.947  0.7377  0.3372 -1.8729
12320TIP3    H258376   1.311   0.419   2.045 -0.0881 -1.5966  0.3503
12321TIP3   OH258377   0.947   2.378   4.511 -0.2236 -0.2387  0.0974
12321TIP3    H158378   0.950   2.472   4.529 -1.3558 -0.4394  1.4429
12321TIP3    H258379   1.010   2.366   4.440  0.0792  1.5020  0.0225
12322TIP3   OH258380   1.589   5.363  16.247 -0.2369 -0.1019  0.2309
12322TIP3    H158381   1.618   5.334  16.333  0.3795  0.4617  0.2181
12322TIP3    H258382   1.655   5.329  16.186 -2.5167 -3.7414 -0.5583
12323TIP3   OH258383   4.486   3.072  14.933  0.3892 -0.3735  0.7183
12323TIP3    H158384   4.441   2.998  14.974  0.0895 -0.1081  0.8695
12323TIP3    H258385   4.438   3.088  14.852 -0.4624  0.6005  1.3989
12324TIP3   OH258386   2.880   3.993   5.503  0.2998 -0.7242  0.1020
12324TIP3    H158387   2.848   4.081   5.522 -0.3464 -0.5492 -1.6433
12324TIP3    H258388   2.929   3.968   5.581 -0.1429  0.8758  0.9335
12325TIP3   OH258389   1.667   0.468   6.434 -0.4222 -0.3899 -0.1442
12325TIP3    H158390   1.609   0.409   6.387 -1.3652  0.5074 -0.1430
12325TIP3    H258391   1.732   0.495   6.369  1.2209 -2.8802  0.3331
12326TIP3   OH258392   3.360   6.069   2.104  0.3245  0.0887  0.2626
12326TIP3    H158393   3.267   6.091   2.116  0.8899  1.6786  2.3422
12326TIP3    H258394   3.366   5.977   2.132 -0.2952  0.6450  2.4131
12327TIP3   OH258395   1.590   4.386   5.343  0.2555  0.3999  0.0114
12327TIP3    H158396   1.639   4.419   5.418 -1.4537  0.3464  1.1895
12327TIP3    H258397   1.649   4.400   5.268  1.4197  1.7892  1.1338
12328TIP3   OH258398   2.981   5.846   1.856 -0.2142 -0.1243  0.9943
12328TIP3    H158399   2.992   5.755   1.881  0.0497  0.2290  2.2568
12328TIP3    H258400   2.886   5.860   1.859 -0.5347 -1.0652 -2.0055
12329TIP3   OH258401   0.739   2.770  15.171  0.4899 -0.2126 -0.7738
12329TIP3    H158402   0.761   2.703  15.236 -0.8566  0.3004  0.2901
12329TIP3    H258403   0.823   2.805  15.142  1.1524 -0.9656  0.1688
12330TIP3   OH258404   4.894   6.041   5.537  0.8709  0.0455  0.0904
12330TIP3    H158405   4.968   5.981   5.535  0.0457 -1.0444  0.8072
12330TIP3    H258406   4.849   6.026   5.453 -0.2693 -1.6329  0.9353
12331TIP3   OH258407   5.045   4.814   1.566  0.2870 -0.5943  0.5773
12331TIP3    H158408   4.959   4.839   1.533  0.2632 -0.2702  0.8820
12331TIP3    H258409   5.028   4.749   1.634  0.2842 -0.5599  0.6096
12332TIP3   OH258410   2.271   5.622   4.332 -0.4914 -0.0743 -0.4165
12332TIP3    H158411   2.247   5.536   4.364 -0.7532  0.4439  0.8353
12332TIP3    H258412   2.359   5.638   4.367 -0.7940  0.5119  0.1036
12333TIP3   OH258413   3.558   0.509  10.580  0.0320 -0.4922  0.5499
12333TIP3    H158414   3.519   0.455  10.649  0.2072 -1.3015  0.0197
12333TIP3    H258415   3.588   0.588  10.626 -0.2146 -0.8469  1.3317
12334TIP3   OH258416   3.928   6.481   4.484 -0.3641  0.6900 -0.5664
12334TIP3    H158417   4.006   6.494   4.430  0.0349 -2.2491 -0.8738
12334TIP3    H258418   3.875   6.417   4.436 -1.0756 -0.3110  1.4064
12335TIP3   OH258419   2.832   5.116   4.148  0.5907 -0.5954 -0.3470
12335TIP3    H158420   2.903   5.077   4.198  0.3354 -0.5783  0.0318
12335TIP3    H258421   2.864   5.204   4.126 -0.3923  0.5191  2.2649
12336TIP3   OH258422   4.747   0.839  16.650 -0.3350  0.1706  0.6872
12336TIP3    H158423   4.740   0.883  16.565 -0.2822  1.2557  1.2296
12336TIP3    H258424   4.840   0.826  16.664 -0.4140 -2.1575 -0.4577
12337TIP3   OH258425   5.882   2.008  14.517  0.3828 -0.1604  0.0509
12337TIP3    H158426   5.875   1.972  14.605  0.2935  0.6913  0.4059
12337TIP3    H258427   5.965   1.976  14.484  2.4844  2.7303  2.0185
12338TIP3   OH258428   6.431   2.739   4.317  0.3225 -0.4742 -0.2670
12338TIP3    H158429   6.392   2.742   4.230 -0.4012 -0.8009  0.0380
12338TIP3    H258430   6.520   2.774   4.305  0.3224 -0.7643 -1.1792
12339TIP3   OH258431   0.285   1.283  16.862  0.3167  0.3078 -0.4655
12339TIP3    H158432   0.375   1.304  16.888 -0.0546 -0.6010  1.7860
12339TIP3    H258433   0.251   1.365  16.826  1.7580  0.9157 -0.5390
12340TIP3   OH258434   1.949   0.395  12.019  0.1349 -0.2912  0.0550
12340TIP3    H158435   2.015   0.463  12.030  0.5683 -0.4154 -1.6029
12340TIP3    H258436   1.870   0.431  12.060  1.1511 -0.0671  1.9065
12341TIP3   OH258437   0.743   1.944  13.633  0.6660  0.4708 -0.2786
12341TIP3    H158438   0.667   1.903  13.591  1.2538 -2.3440  1.1397
12341TIP3    H258439   0.705   1.993  13.706  0.1105  0.0809 -0.2908
12342TIP3   OH258440   2.374   1.878   0.395  0.6406  0.1482  0.1582
12342TIP3    H158441   2.363   1.970   0.420 -0.0832 -0.0829  0.7378
12342TIP3    H258442   2.285   1.846   0.384  0.8758 -0.6038  0.4004
12343TIP3   OH258443   6.034   5.377   4.744  0.3532  0.0420 -0.3177
12343TIP3    H158444   6.101   5.445   4.755  0.6803 -0.4114  0.6644
12343TIP3    H258445   6.020   5.372   4.650  2.5200 -0.6236 -0.6645
12344TIP3   OH258446   2.819   5.440  13.867  0.1318  0.9864 -0.0849
12344TIP3    H158447   2.767   5.477  13.938 -0.3753 -1.2184  0.7730
12344TIP3    H258448   2.908   5.434  13.902 -0.4708 -1.9656  1.2607
12345TIP3   OH258449   3.555   2.592   1.743 -0.5775  0.1008 -0.2513
12345TIP3    H158450   3.618   2.664   1.743 -0.3786 -0.0591  0.5847
12345TIP3    H258451   3.553   2.561   1.653 -0.4690  0.9830 -0.5595
12346TIP3   OH258452   1.865   5.949  13.040  0.8850  0.0311  0.8719
12346TIP3    H158453   1.842   5.891  12.968 -1.2081  1.0161  0.6690
12346TIP3    H258454   1.929   6.010  13.002 -0.2410  0.5765 -0.1990
12347TIP3   OH258455   4.307   1.558  17.075 -0.3114 -0.2809  0.3264
12347TIP3    H158456   4.223   1.517  17.053 -1.9335  3.5487 -1.5234
12347TIP3    H258457   4.289   1.604  17.158  0.5735 -0.9025  0.8760
12348TIP3   OH258458   3.393   4.649   2.288 -0.0104  0.0670 -0.2039
12348TIP3    H158459   3.355   4.571   2.329 -0.2947  1.6036  2.7783
12348TIP3    H258460   3.486   4.646   2.314 -0.6387  2.2203  2.8270
12349TIP3   OH258461   2.421   0.061   3.628  0.3432  0.0684  0.2225
12349TIP3    H158462   2.389   0.096   3.711 -1.7476 -0.0393 -0.4564
12349TIP3    H258463   2.347   0.009   3.595  1.3346 -0.3536 -1.4225
12350TIP3   OH258464   1.062   1.671   1.078  0.1271  0.1477 -0.0648
12350TIP3    H158465   1.008   1.592   1.087 -0.3160  0.6585  2.4379
12350TIP3    H258466   0.999   1.743   1.072  0.3118  0.8217  3.5315
12351TIP3   OH258467   5.545   1.038  15.226 -0.2713  0.2765  0.2585
12351TIP3    H158468   5.538   1.078  15.313  0.1388 -0.6107  0.7182
12351TIP3    H258469   5.471   1.073  15.177 -0.4315  0.8900  0.9264
12352TIP3   OH258470   6.562   1.330  13.665 -0.2917 -0.1523 -0.0821
12352TIP3    H158471   6.490   1.359  13.609  0.1025 -1.2873 -1.2380
12352TIP3    H258472   6.626   1.294  13.604  1.2414  0.7506  0.9277
12353TIP3   OH258473   3.309   5.731   0.690 -0.1592  0.1037  0.1363
12353TIP3    H158474   3.363   5.774   0.757  0.8047 -0.4491 -0.2522
12353TIP3    H258475   3.253   5.671   0.739  0.1976  0.0557  0.4927
12354TIP3   OH258476   4.469   3.789   5.909 -0.1531  0.5423  0.0189
12354TIP3    H158477   4.460   3.727   5.981 -0.5974 -0.6154 -0.9932
12354TIP3    H258478   4.548   3.761   5.862 -0.8682  0.1398 -0.9859
12355TIP3   OH258479   2.030   0.056  14.618  0.5656  0.1347 -0.3303
12355TIP3    H158480   2.081   0.127  14.658  1.0104  0.0331 -0.7050
12355TIP3    H258481   2.047  -0.019  14.675  1.1478  0.0060 -0.6675
12356TIP3   OH258482   5.732   4.088  10.328 -0.4609 -0.0101 -0.5499
12356TIP3    H158483   5.755   4.032  10.402  0.2204  0.5072 -0.3622
12356TIP3    H258484   5.794   4.062  10.259  1.5777  2.1726  0.3179
12357TIP3   OH258485   6.120   4.853   6.173 -0.3123  0.0183  0.0868
12357TIP3    H158486   6.108   4.771   6.221  1.6882 -1.4562 -1.7854
12357TIP3    H258487   6.098   4.921   6.237 -0.3798 -1.8922  2.2240
12358TIP3   OH258488   0.968   3.733   5.492  0.2086  0.7800  0.2794
12358TIP3    H158489   0.976   3.638   5.483  2.6542  0.7711  1.5072
12358TIP3    H258490   0.880   3.747   5.526 -1.0026 -0.8139 -1.9569
12359TIP3   OH258491   4.734   0.893  12.462  0.2852  0.1802 -0.7205
12359TIP3    H158492   4.729   0.844  12.544  0.5948 -0.4461 -1.0617
12359TIP3    H258493   4.707   0.829  12.395  1.2301  0.3008 -1.2373
12360TIP3   OH258494   2.336   2.628   5.249  0.1807 -0.1899 -0.0600
12360TIP3    H158495   2.351   2.706   5.302  1.4160 -1.6776  1.9259
12360TIP3    H258496   2.265   2.653   5.189  1.3438  2.8114 -0.3849
12361TIP3   OH258497   6.045   3.051   0.231 -0.0815 -0.0419 -0.6493
12361TIP3    H158498   5.998   3.106   0.169 -0.8135 -0.1088 -0.1611
12361TIP3    H258499   5.979   2.994   0.269  0.2030  0.4665  0.6966
12362TIP3   OH258500   4.194   4.776  15.110 -0.1053 -0.5141 -0.4760
12362TIP3    H158501   4.212   4.714  15.181  1.1394 -1.0855 -1.2551
12362TIP3    H258502   4.098   4.782  15.108 -0.1872  0.0907  1.7092
12363TIP3   OH258503   0.788   3.390  11.785  0.5899  0.2377  0.0123
12363TIP3    H158504   0.854   3.455  11.761  1.1486 -0.2534  0.1830
12363TIP3    H258505   0.731   3.435  11.847 -0.6761  1.4273 -1.9128
12364TIP3   OH258506   1.596   5.286   2.016 -0.7302  0.3265  0.5681
12364TIP3    H158507   1.636   5.328   2.093  2.0607  1.2015 -1.2151
12364TIP3    H258508   1.542   5.354   1.977 -1.8138  0.0098  1.4612
12365TIP3   OH258509   2.962   6.703  14.416  0.0480 -0.1992  0.2927
12365TIP3    H158510   2.869   6.722  14.412  0.0491 -0.2037  0.2373
12365TIP3    H258511   2.993   6.747  14.496  0.0813  0.1828  0.0735
12366TIP3   OH258512   1.512   1.994   2.956  0.3856 -0.2758  0.4163
12366TIP3    H158513   1.606   1.991   2.976  0.5888  1.5953 -0.0395
12366TIP3    H258514   1.508   2.032   2.868 -0.8108 -0.1276  0.5231
12367TIP3   OH258515   0.048   2.409   5.405 -0.6843 -0.3547  1.0068
12367TIP3    H158516   0.041   2.327   5.454 -1.2825 -0.4775  0.7204
12367TIP3    H258517   0.099   2.386   5.327  2.6943  0.4021  2.7809
12368TIP3   OH258518   5.434   3.747  13.011  0.4038  0.5506  0.8411
12368TIP3    H158519   5.463   3.667  12.967 -2.5601 -0.4509  0.4626
12368TIP3    H258520   5.496   3.758  13.083  1.7679 -1.2433  0.0315
12369TIP3   OH258521   1.469   4.586  16.769 -0.4908  0.2859 -0.0928
12369TIP3    H158522   1.503   4.498  16.786 -0.5460 -0.0219 -1.4470
12369TIP3    H258523   1.472   4.630  16.854  1.6300 -0.2918  0.1886
12370TIP3   OH258524   0.694   4.687  16.659 -0.1119 -0.0475  0.5397
12370TIP3    H158525   0.613   4.652  16.696  0.7753 -1.9907  0.7731
12370TIP3    H258526   0.684   4.782  16.665 -3.0420 -0.1413 -0.9038
12371TIP3   OH258527   5.480   4.914   3.706  0.7918 -1.1501 -0.6740
12371TIP3    H158528   5.385   4.921   3.716  0.7367  1.2072 -2.2549
12371TIP3    H258529   5.513   4.910   3.795 -0.5554  2.9412  0.1848
12372TIP3   OH258530   0.320   2.325  15.794 -0.0594 -0.1087 -0.0573
12372TIP3    H158531   0.235   2.337  15.835 -0.3358 -0.8540 -0.4063
12372TIP3    H258532   0.350   2.414  15.775 -1.3830  0.1264 -1.1957
12373TIP3   OH258533   4.925   5.474   5.682  0.0102 -0.5448 -0.2230
12373TIP3    H158534   4.832   5.465   5.662  0.0895 -2.1266  0.0206
12373TIP3    H258535   4.939   5.418   5.758  0.9782  0.4391  0.3468
12374TIP3   OH258536   2.949   6.017   4.511 -0.1151  0.3677 -0.0413
12374TIP3    H158537   2.894   6.095   4.523 -1.0573 -0.4951  1.6848
12374TIP3    H258538   2.896   5.959   4.456  0.7066  1.0241 -1.5687
12375TIP3   OH258539   3.334   2.448   3.550  0.3094  0.3852  0.8164
12375TIP3    H158540   3.390   2.390   3.601 -0.5766 -1.1557  0.1188
12375TIP3    H258541   3.245   2.421   3.573 -0.1625 -1.1398 -2.2424
12376TIP3   OH258542   3.749   5.637   3.898  0.4848  0.2071 -0.0863
12376TIP3    H158543   3.827   5.587   3.925  0.5687  0.6000  0.4119
12376TIP3    H258544   3.715   5.588   3.823 -0.2963 -1.4913  1.2837
12377TIP3   OH258545   5.834   3.212   0.161 -0.1766  0.3321  0.2102
12377TIP3    H158546   5.797   3.297   0.136  1.6487  1.4041  0.9876
12377TIP3    H258547   5.775   3.180   0.229 -2.4507 -0.3848 -1.9243
12378TIP3   OH258548   6.762   2.297  13.661 -0.1470  0.0292  0.2525
12378TIP3    H158549   6.754   2.202  13.659 -0.5519  0.0615  0.3952
12378TIP3    H258550   6.717   2.324  13.741  1.9232  0.1464  1.4564
12379TIP3   OH258551   0.397   4.631   6.261 -0.3422 -0.1912 -0.3932
12379TIP3    H158552   0.481   4.668   6.288 -1.1403  1.5136 -0.0866
12379TIP3    H258553   0.390   4.549   6.310  1.0243 -0.2475 -0.2466
12380TIP3   OH258554   1.158   4.674  11.871 -0.0827  0.8047 -0.3289
12380TIP3    H158555   1.124   4.590  11.841  1.7547  0.0144 -0.3266
12380TIP3    H258556   1.140   4.735  11.799 -0.8045  0.2672 -0.6150
12381TIP3   OH258557   5.893   5.241  13.401  0.3528  0.2418 -0.1988
12381TIP3    H158558   5.975   5.195  13.383 -0.1951 -0.4886 -0.9068
12381TIP3    H258559   5.912   5.295  13.478  1.7376  0.7433 -0.8634
12382TIP3   OH258560   4.648   3.065   3.966 -0.4507 -0.3932 -0.2107
12382TIP3    H158561   4.658   3.159   3.978  2.7572 -0.6513  0.1210
12382TIP3    H258562   4.693   3.047   3.883 -2.1725 -1.5208 -0.9567
12383TIP3   OH258563   2.654   3.039  13.692  0.0589 -0.4956 -0.1905
12383TIP3    H158564   2.616   3.040  13.604  0.8696  1.6937 -0.5670
12383TIP3    H258565   2.734   3.092  13.684  0.2329 -0.3971  1.8287
12384TIP3   OH258566   4.354   6.662  14.597  0.4571  0.5227 -0.5245
12384TIP3    H158567   4.284   6.652  14.661  1.6921 -1.2714  0.6384
12384TIP3    H258568   4.328   6.737  14.544 -1.3412  1.1306  1.1232
12385TIP3   OH258569   0.110   3.972  13.041  0.6887 -0.4358 -0.5254
12385TIP3    H158570   0.195   3.944  13.008  0.3332  0.7377 -2.6422
12385TIP3    H258571   0.081   4.039  12.979 -1.7612 -0.7691  0.1494
12386TIP3   OH258572   4.763   1.542  15.306  0.2589 -0.5143  0.0244
12386TIP3    H158573   4.676   1.533  15.267 -0.3430 -2.4002  1.6679
12386TIP3    H258574   4.755   1.618  15.364  0.9152  1.7621 -2.6094
12387TIP3   OH258575   5.595   5.603  15.605  0.5327 -0.1158 -0.2768
12387TIP3    H158576   5.595   5.549  15.683  1.1143  1.1059  0.6055
12387TIP3    H258577   5.687   5.626  15.592  0.3543  0.2766 -0.9004
12388TIP3   OH258578   0.749   1.365   4.618  0.2748 -0.2616 -0.5378
12388TIP3    H158579   0.707   1.395   4.538  1.6630 -0.5391 -1.3992
12388TIP3    H258580   0.718   1.275   4.630 -0.9373  0.2025 -0.0256
12389TIP3   OH258581   2.027   2.521  15.472 -0.9075 -0.0895  0.0646
12389TIP3    H158582   1.948   2.519  15.418 -0.4101  0.4785 -0.7070
12389TIP3    H258583   2.052   2.429  15.481 -1.4455 -0.2444 -0.0065
12390TIP3   OH258584   4.679   0.565   2.037  0.4522 -0.1401 -0.7233
12390TIP3    H158585   4.614   0.542   1.970  0.3629 -1.2235 -0.2895
12390TIP3    H258586   4.637   0.634   2.089  0.3454  0.3875 -1.4948
12391TIP3   OH258587   6.240   3.929  14.284 -0.2250 -0.0300 -0.1976
12391TIP3    H158588   6.261   3.887  14.200 -0.2004  2.1969 -1.3699
12391TIP3    H258589   6.144   3.938  14.283 -0.0468  2.4704 -1.3215
12392TIP3   OH258590   2.444   6.504  12.127  0.1068  0.0509 -0.6065
12392TIP3    H158591   2.365   6.494  12.073 -0.5832  0.8238  0.2233
12392TIP3    H258592   2.486   6.582  12.093  0.5403 -0.3804 -1.0705
12393TIP3   OH258593   4.801   3.589   2.473  0.8035 -0.6451  0.0040
12393TIP3    H158594   4.824   3.591   2.380 -0.0551 -1.5802 -0.2408
12393TIP3    H258595   4.717   3.544   2.476  1.3175 -1.5574  1.3427
12394TIP3   OH258596   1.688   2.980   6.440  0.2085 -0.1868 -0.5404
12394TIP3    H158597   1.749   3.032   6.493  0.8088 -1.0981 -0.3301
12394TIP3    H258598   1.602   2.999   6.477  0.6894 -1.4576  1.3467
12395TIP3   OH258599   2.543   6.027   4.648 -0.2140  0.7469  0.0384
12395TIP3    H158600   2.573   6.037   4.558 -0.1211 -1.1455 -0.1775
12395TIP3    H258601   2.592   5.953   4.683 -1.8062  0.0451  0.9285
12396TIP3   OH258602   1.906   1.290   5.316  0.0753 -0.2139  0.0919
12396TIP3    H158603   1.880   1.325   5.401  0.1158  0.1803 -0.0564
12396TIP3    H258604   1.949   1.207   5.336 -1.9279 -1.2612  0.2951
12397TIP3   OH258605   1.262   3.532  11.440 -0.5322  0.3304 -0.1850
12397TIP3    H158606   1.287   3.441  11.421  0.3628  0.6263 -0.4813
12397TIP3    H258607   1.345   3.575  11.462 -1.2742  0.3632  3.0677
12398TIP3   OH258608   1.905   4.917  10.659 -0.2908  0.0783 -0.1095
12398TIP3    H158609   1.870   5.003  10.634  0.1674  0.2265 -0.2480
12398TIP3    H258610   1.997   4.921  10.634 -0.5854 -0.9787 -1.4715
12399TIP3   OH258611   6.151   1.193  15.522 -0.4766 -0.5433  0.3396
12399TIP3    H158612   6.151   1.222  15.614 -0.1521 -1.7357  0.7390
12399TIP3    H258613   6.058   1.182  15.501 -0.5592 -0.1449  0.4897
12400TIP3   OH258614   6.304   5.504  12.140  0.6989  0.5008  0.6415
12400TIP3    H158615   6.331   5.476  12.052 -1.7336  1.6749 -0.5804
12400TIP3    H258616   6.382   5.544  12.177  2.1481 -1.1611 -0.4605
12401TIP3   OH258617   6.040   2.822  17.001 -0.1610  0.2328 -0.0539
12401TIP3    H158618   6.057   2.838  16.908 -0.7408  0.3883 -0.1397
12401TIP3    H258619   6.010   2.907  17.035 -0.0749  0.1457  0.2477
12402TIP3   OH258620   3.209   2.874  15.068 -0.5133 -0.3824 -0.4791
12402TIP3    H158621   3.243   2.791  15.102 -0.0639  0.3788  0.9967
12402TIP3    H258622   3.118   2.855  15.047 -0.0586 -1.6084 -1.4961
12403TIP3   OH258623   5.014   2.254  13.369 -0.5505  0.5567  0.1720
12403TIP3    H158624   5.098   2.219  13.340 -1.4307 -0.6279 -1.0564
12403TIP3    H258625   4.970   2.180  13.411 -1.1054  1.0964  0.5687
12404TIP3   OH258626   6.309   6.229  13.587 -0.2773 -0.5396 -0.2946
12404TIP3    H158627   6.324   6.240  13.493  1.0497 -1.5930 -0.2300
12404TIP3    H258628   6.396   6.215  13.624 -0.5660  1.4013  1.3417
12405TIP3   OH258629   6.787   3.799   4.360  0.1287 -0.3522 -0.2047
12405TIP3    H158630   6.796   3.812   4.455 -0.5021  1.4042 -0.3548
12405TIP3    H258631   6.692   3.804   4.344  0.1835 -1.2189 -0.8654
12406TIP3   OH258632   2.715   6.212  10.729 -0.8471  0.0922 -0.4271
12406TIP3    H158633   2.716   6.117  10.741  0.1928 -0.2438 -2.6268
12406TIP3    H258634   2.663   6.225  10.650  2.1144  0.9313 -2.4048
12407TIP3   OH258635   0.643   5.057   2.203 -0.4079 -0.3441  0.7733
12407TIP3    H158636   0.611   5.134   2.156 -0.2534 -1.1053 -0.6474
12407TIP3    H258637   0.724   5.033   2.159  0.3194 -0.4846  2.1295
12408TIP3   OH258638   3.090   5.784   1.010  0.0743  0.2263  0.1939
12408TIP3    H158639   3.043   5.701   1.024 -1.2121  0.6718 -1.2255
12408TIP3    H258640   3.181   5.764   1.032 -0.1109 -1.7128 -0.6079
12409TIP3   OH258641   0.668   4.232   2.044  0.1554  0.1155  0.4659
12409TIP3    H158642   0.601   4.286   2.086 -0.2704 -1.8787  2.5401
12409TIP3    H258643   0.720   4.294   1.993 -2.9837  1.8211 -0.9768
12410TIP3   OH258644   6.377   4.104  11.144 -0.0995  0.2145  0.1415
12410TIP3    H158645   6.464   4.076  11.115 -0.0713 -0.2281  0.6407
12410TIP3    H258646   6.319   4.031  11.122 -0.2693  0.3290  0.2069
12411TIP3   OH258647   1.549   0.295   0.937 -0.4156  0.0175 -0.1938
12411TIP3    H158648   1.480   0.298   0.870 -0.7383 -1.7378  0.0222
12411TIP3    H258649   1.595   0.213   0.920  0.5864  0.3776  0.6982
12412TIP3   OH258650   6.221   2.722   1.490  0.3098  0.4125  0.5849
12412TIP3    H158651   6.226   2.648   1.550  1.7185 -0.7238 -0.8677
12412TIP3    H258652   6.217   2.683   1.403 -2.7406  1.9819 -0.1236
12413TIP3   OH258653   5.241   5.979  12.782 -0.2239 -0.8856  0.0693
12413TIP3    H158654   5.303   6.033  12.833  0.8015  0.3330 -2.3176
12413TIP3    H258655   5.201   5.922  12.847  1.9808 -0.3628  2.0450
12414TIP3   OH258656   3.383   0.816   5.664 -0.5253  0.1713  0.5565
12414TIP3    H158657   3.357   0.904   5.690 -2.0819 -0.3083  0.7337
12414TIP3    H258658   3.319   0.759   5.706  0.0812 -1.0128 -0.0668
12415TIP3   OH258659   3.871   3.598  13.791 -0.2108  0.4593 -0.2891
12415TIP3    H158660   3.848   3.672  13.847 -2.3397 -0.6825  0.4425
12415TIP3    H258661   3.795   3.540  13.795  0.6503 -0.9222 -2.2911
12416TIP3   OH258662   2.708   1.954  16.447  0.0799  0.2721 -0.2119
12416TIP3    H158663   2.723   1.860  16.446 -0.4609  0.1809 -0.2612
12416TIP3    H258664   2.773   1.990  16.388 -1.1085 -0.2942 -1.9335
12417TIP3   OH258665   6.558   6.354  12.050  0.1083  0.1644  0.3852
12417TIP3    H158666   6.629   6.397  12.002 -0.0955  0.1388  0.0612
12417TIP3    H258667   6.565   6.389  12.139 -0.1450  0.9838  0.0915
12418TIP3   OH258668   0.028   3.884   5.648 -0.0861 -0.3683  0.0020
12418TIP3    H158669  -0.047   3.858   5.701 -1.0879 -0.6731 -1.5197
12418TIP3    H258670  -0.010   3.921   5.568  1.3804 -0.4642 -0.7772
12419TIP3   OH258671   5.675   6.326  16.857  0.1818  0.2108 -0.3401
12419TIP3    H158672   5.627   6.248  16.830  2.2062 -1.7063  1.2444
12419TIP3    H258673   5.751   6.328  16.800 -0.2468  1.5576 -0.9098
12420TIP3   OH258674   6.608   3.879  11.255 -0.1603  0.4487  0.2497
12420TIP3    H158675   6.547   3.893  11.327 -0.4415 -0.7112  0.2524
12420TIP3    H258676   6.598   3.787  11.233 -1.4895  1.1731 -2.5659
12421TIP3   OH258677   0.609   5.859  16.491  0.4215 -0.0798 -0.0918
12421TIP3    H158678   0.544   5.913  16.447  1.5837  0.6503 -0.9908
12421TIP3    H258679   0.657   5.920  16.548 -0.3598 -0.8123  1.3966
12422TIP3   OH258680   1.657   5.592   6.257 -0.2969 -0.4127 -0.0408
12422TIP3    H158681   1.588   5.574   6.194 -0.2469  1.3381 -0.6547
12422TIP3    H258682   1.714   5.516   6.253 -1.0815 -0.9677 -1.0477
12423TIP3   OH258683   6.195   3.848   2.934 -0.5554  0.0520 -0.2835
12423TIP3    H158684   6.167   3.863   2.844  2.2789  2.4390 -0.9030
12423TIP3    H258685   6.289   3.831   2.928 -0.6767 -1.9969  2.0851
12424TIP3   OH258686   6.296   4.227   5.520  0.1434 -0.1207 -0.0982
12424TIP3    H158687   6.371   4.257   5.571  0.8493 -0.2131 -1.0598
12424TIP3    H258688   6.234   4.300   5.522 -0.1225 -0.3549  1.3998
12425TIP3   OH258689   1.422   2.295  13.109 -0.1567 -0.1647 -0.3249
12425TIP3    H158690   1.492   2.291  13.173  0.4478 -0.7058 -1.0089
12425TIP3    H258691   1.344   2.266  13.156  0.2039 -0.1834  0.2636
12426TIP3   OH258692   5.496   4.340  15.067 -0.5798  0.2529  0.0364
12426TIP3    H158693   5.408   4.335  15.104 -0.9388  1.7896 -0.5020
12426TIP3    H258694   5.527   4.250  15.062 -1.6501 -0.1979  1.3596
12427TIP3   OH258695   1.520   3.513  15.719 -0.2113 -0.1822 -0.2235
12427TIP3    H158696   1.525   3.432  15.668  1.3237  0.9059 -1.9569
12427TIP3    H258697   1.552   3.581  15.659 -0.0387  1.4768  1.6411
12428TIP3   OH258698   4.067   0.446   2.883  0.2143 -0.2297  0.3336
12428TIP3    H158699   4.074   0.376   2.818  1.9923 -1.2682  1.5546
12428TIP3    H258700   3.975   0.470   2.883 -0.0135 -0.9268 -1.7910
12429TIP3   OH258701   1.914   6.585  17.029  0.0784 -0.2278 -0.6517
12429TIP3    H158702   1.857   6.598  17.105  1.1502  0.9187 -0.0068
12429TIP3    H258703   1.885   6.501  16.991  0.5663 -1.6626  1.9509
12430TIP3   OH258704   0.263   3.339  11.970  0.0362  0.4931  0.1007
12430TIP3    H158705   0.237   3.331  11.878 -1.7990  0.2017  0.6267
12430TIP3    H258706   0.305   3.255  11.990 -2.3849 -0.7315  0.3656
12431TIP3   OH258707   2.798   1.476   5.170  0.2756 -0.4596 -0.2391
12431TIP3    H158708   2.713   1.443   5.140 -0.0319  0.1362 -0.0331
12431TIP3    H258709   2.781   1.507   5.259  1.1113 -1.9316  0.4783
12432TIP3   OH258710   5.105   2.070  16.239  0.0156  0.2622 -0.2951
12432TIP3    H158711   5.094   2.131  16.165  4.2861  1.4968 -0.1824
12432TIP3    H258712   5.163   2.002  16.205 -0.0819 -0.5993  1.1983
12433TIP3   OH258713   3.529   0.272   3.989 -0.1258 -0.2868  0.3519
12433TIP3    H158714   3.572   0.222   4.060 -0.3091 -1.2823 -0.2131
12433TIP3    H258715   3.573   0.241   3.909  0.6902  1.4697  0.0850
12434TIP3   OH258716   6.124   4.877   4.893  0.4850  0.1529 -0.2839
12434TIP3    H158717   6.179   4.813   4.938  0.0367  0.2508  0.4051
12434TIP3    H258718   6.124   4.953   4.950  2.3934  1.4562 -1.8707
12435TIP3   OH258719   2.527   0.257   4.828  0.3483  0.3200 -0.0926
12435TIP3    H158720   2.480   0.340   4.826  0.6748  0.5074 -1.7116
12435TIP3    H258721   2.459   0.190   4.827  0.0916  0.5588  0.7443
12436TIP3   OH258722   0.478   6.691   3.846 -0.1729  0.0967 -0.6356
12436TIP3    H158723   0.556   6.635   3.844  0.1065  0.4518  0.1067
12436TIP3    H258724   0.510   6.778   3.870 -0.8039  0.2265 -0.2129
12437TIP3   OH258725   4.978   1.759  13.728 -0.0105 -0.8030 -0.1647
12437TIP3    H158726   5.014   1.845  13.709 -0.1452 -0.2299  1.9998
12437TIP3    H258727   5.051   1.699  13.713  1.1896  0.0881  1.7915
12438TIP3   OH258728   5.228   1.462  14.889  0.6458 -0.6468 -0.2514
12438TIP3    H158729   5.213   1.557  14.893 -0.3712 -0.8052 -0.0110
12438TIP3    H258730   5.166   1.431  14.823  0.8091 -1.1747 -0.1570
12439TIP3   OH258731   3.675   6.100  14.094  0.2399 -0.3449 -0.5583
12439TIP3    H158732   3.709   6.011  14.083  0.2005 -0.5773  1.0045
12439TIP3    H258733   3.584   6.088  14.119  0.0985  0.1628 -0.8245
12440TIP3   OH258734   5.508   1.006  13.421 -0.0052 -0.1340 -0.1992
12440TIP3    H158735   5.520   1.081  13.362  1.1756  1.2793  1.6998
12440TIP3    H258736   5.498   0.931  13.362  2.6163  0.9457 -2.2504
12441TIP3   OH258737   4.867   1.613   4.807  0.3022 -0.1629 -1.0623
12441TIP3    H158738   4.948   1.660   4.788 -0.0724  2.0452  2.1190
12441TIP3    H258739   4.882   1.572   4.892 -0.8584 -2.5193 -1.8976
12442TIP3   OH258740   2.846   4.652  15.618 -1.1587  0.3610 -0.2495
12442TIP3    H158741   2.794   4.731  15.604  0.3023  1.2469 -0.9758
12442TIP3    H258742   2.790   4.594  15.670 -3.2102  0.8544 -1.8067
12443TIP3   OH258743   2.196   1.068   2.534  0.2095  0.0616 -0.0515
12443TIP3    H158744   2.120   1.046   2.589 -0.6895 -1.4935 -1.7615
12443TIP3    H258745   2.229   1.150   2.569 -1.6638  0.2639  1.4067
12444TIP3   OH258746   4.222   1.230  16.284 -0.7507  0.0907  0.0408
12444TIP3    H158747   4.163   1.207  16.213  0.6617 -0.5284 -0.9927
12444TIP3    H258748   4.193   1.177  16.358 -2.5003  1.0549  0.0878
12445TIP3   OH258749   5.037   1.193  14.177 -0.4820 -0.2645  0.3681
12445TIP3    H158750   5.064   1.104  14.200 -1.5074  0.0174  3.0394
12445TIP3    H258751   5.067   1.246  14.251 -0.4350  1.5380 -0.8933
12446TIP3   OH258752   1.880   3.592   3.295 -0.1773  0.4507 -0.1904
12446TIP3    H158753   1.904   3.632   3.211  0.8634  1.6841  0.6718
12446TIP3    H258754   1.828   3.659   3.339 -1.0221 -0.3303  0.0248
12447TIP3   OH258755   2.348   0.574  13.703  0.1501 -0.3179 -0.3239
12447TIP3    H158756   2.311   0.564  13.616  1.2385 -0.3096 -0.8013
12447TIP3    H258757   2.442   0.560  13.691  0.4757  0.9164  0.6322
12448TIP3   OH258758   6.551   3.968  16.391 -0.0095  0.4119 -0.7365
12448TIP3    H158759   6.575   3.891  16.443 -0.9568  0.2564 -0.5084
12448TIP3    H258760   6.569   4.042  16.449 -0.6721  0.2631 -0.3397
12449TIP3   OH258761   4.450   1.789  12.949  0.0871 -0.5518 -0.1575
12449TIP3    H158762   4.399   1.837  13.014  1.6152 -1.4304  1.8102
12449TIP3    H258763   4.390   1.723  12.915 -0.7387 -0.1148  0.4189
12450TIP3   OH258764   3.242   5.192  16.881  0.1274  0.5420 -0.6250
12450TIP3    H158765   3.205   5.235  16.805 -1.8619  3.6557  1.8497
12450TIP3    H258766   3.306   5.253  16.915 -0.8712  0.4692  1.5675
12451TIP3   OH258767   2.170   2.065  13.213 -0.4304 -0.1365  0.3126
12451TIP3    H158768   2.262   2.090  13.223 -0.7193  1.6270 -1.0535
12451TIP3    H258769   2.163   1.983  13.263  2.1590 -0.9859 -0.5020
12452TIP3   OH258770   6.536   2.857  15.768  0.1323 -0.0424  0.4408
12452TIP3    H158771   6.501   2.842  15.856 -0.3888  0.8509  0.4018
12452TIP3    H258772   6.458   2.873  15.714  0.4331 -0.8547 -0.2381
12453TIP3   OH258773   2.203   5.999   3.755  0.2821  0.1465  0.0224
12453TIP3    H158774   2.117   6.040   3.752  0.3058  0.3040  1.1826
12453TIP3    H258775   2.263   6.072   3.771  0.3856 -0.2410  1.4915
12454TIP3   OH258776   2.578   2.477  14.046  0.5174  0.3627 -0.1971
12454TIP3    H158777   2.598   2.401  14.101  2.3845  0.4560 -0.6825
12454TIP3    H258778   2.500   2.452  13.998 -1.0924  0.2110  2.3381
12455TIP3   OH258779   5.376   2.307   0.482  0.3871 -0.7775 -0.2035
12455TIP3    H158780   5.411   2.254   0.553  0.7260 -0.3037 -0.0125
12455TIP3    H258781   5.398   2.258   0.403  0.9606 -0.7760 -0.0482
12456TIP3   OH258782   0.933   2.205   2.892  0.2646  0.3438  0.1813
12456TIP3    H158783   0.985   2.253   2.956  0.8422  1.0621 -0.7808
12456TIP3    H258784   0.997   2.179   2.825 -0.5497  0.9476 -0.8584
12457TIP3   OH258785   5.302   1.307  15.446 -0.2857 -0.1772  0.4837
12457TIP3    H158786   5.235   1.376  15.452 -0.7108 -0.4055 -1.2725
12457TIP3    H258787   5.257   1.227  15.472 -1.4177 -0.7296 -2.7461
12458TIP3   OH258788   0.552   4.691  12.958 -0.0143  0.1209  0.4049
12458TIP3    H158789   0.563   4.774  12.911  0.8932 -0.0081  0.3768
12458TIP3    H258790   0.641   4.657  12.969 -0.2685 -0.2307  1.5398
12459TIP3   OH258791   3.884   1.720  13.994 -0.0319 -0.2001  0.5031
12459TIP3    H158792   3.848   1.684  13.913  1.7566  0.2210 -0.5308
12459TIP3    H258793   3.934   1.797  13.966 -0.8052  0.9978  2.2375
12460TIP3   OH258794   1.163   5.413   3.467  0.2831 -0.4437 -0.0349
12460TIP3    H158795   1.181   5.338   3.524  0.5504  0.6272  1.3415
12460TIP3    H258796   1.082   5.451   3.502 -0.1890 -0.4331 -1.1038
12461TIP3   OH258797   2.020   2.057  12.972 -0.0290 -0.0842  0.3935
12461TIP3    H158798   2.082   2.081  13.041 -0.5817 -1.5529  1.4423
12461TIP3    H258799   2.076   2.032  12.898  0.5676  1.4248  0.2877
12462TIP3   OH258800   5.171   2.733   2.988 -0.0545 -0.2216  0.0939
12462TIP3    H158801   5.124   2.779   2.918 -0.1869 -0.3406  0.1041
12462TIP3    H258802   5.220   2.664   2.942 -0.3293 -0.4519  0.1438
12463TIP3   OH258803   1.625   3.055   4.548  0.1704 -0.5706 -0.5469
12463TIP3    H158804   1.542   3.065   4.593 -0.5400 -0.8565 -1.7455
12463TIP3    H258805   1.691   3.059   4.617 -0.8731 -1.0435  0.5092
12464TIP3   OH258806   2.940   0.531   0.276 -0.0468 -0.3393 -0.1566
12464TIP3    H158807   2.982   0.532   0.362 -0.7801 -0.1229  0.2146
12464TIP3    H258808   2.869   0.595   0.284 -0.3696 -0.6081 -0.7940
12465TIP3   OH258809   6.511   3.628  14.228  0.6239 -0.0970 -0.2632
12465TIP3    H158810   6.567   3.552  14.212  1.2979  0.4561 -0.5713
12465TIP3    H258811   6.515   3.678  14.147  0.9786  0.7641  0.2757
12466TIP3   OH258812   3.344   6.245  13.163 -0.1615  0.3600  0.0052
12466TIP3    H158813   3.350   6.155  13.197 -0.8923  1.0382  2.0637
12466TIP3    H258814   3.268   6.282  13.207  0.1280  1.9951 -0.8227
12467TIP3   OH258815   3.152   2.956   2.368 -0.5081 -0.0443 -0.6266
12467TIP3    H158816   3.097   3.034   2.354 -1.7998 -0.9521 -0.8345
12467TIP3    H258817   3.237   2.991   2.393 -0.8979  1.4480 -1.2537
12468TIP3   OH258818   0.386   3.028   5.069 -1.0115  0.6335  0.1779
12468TIP3    H158819   0.327   3.102   5.055 -0.4688  1.0309 -0.0819
12468TIP3    H258820   0.471   3.069   5.086 -0.2995  0.0758 -1.7387
12469TIP3   OH258821   0.484   6.187   4.366  0.3233 -0.1353  0.1601
12469TIP3    H158822   0.543   6.263   4.374 -0.6867  0.8280 -1.1532
12469TIP3    H258823   0.496   6.140   4.448  0.2296  1.9985  1.4854
12470TIP3   OH258824   3.930   6.560  15.248 -0.2912 -0.0670  0.2396
12470TIP3    H158825   3.981   6.515  15.315  0.1088  2.0502  1.4303
12470TIP3    H258826   3.989   6.563  15.172  1.0023  1.3232  1.2268
12471TIP3   OH258827   2.009   5.251   3.293  0.5692 -0.4365 -0.1623
12471TIP3    H158828   1.957   5.327   3.317 -0.7946 -1.3215 -0.2205
12471TIP3    H258829   2.023   5.259   3.198  0.8669 -0.0141 -0.0853
12472TIP3   OH258830   0.929   3.731  13.044  0.7991  0.4560 -0.1971
12472TIP3    H158831   0.889   3.717  12.958  1.8589 -0.2345 -0.5956
12472TIP3    H258832   0.889   3.663  13.100 -1.4515  2.1918  0.4475
12473TIP3   OH258833   3.459   4.163  14.113  0.0858  0.6475 -0.4149
12473TIP3    H158834   3.368   4.141  14.095 -0.2229  0.4609  1.2061
12473TIP3    H258835   3.487   4.098  14.178  1.8612 -0.2330 -1.9900
12474TIP3   OH258836   4.627   1.237   6.099  0.3706  0.1569  0.4526
12474TIP3    H158837   4.672   1.321   6.109  0.5254 -0.0047  1.2292
12474TIP3    H258838   4.594   1.237   6.010 -1.2521  1.8518  0.9975
12475TIP3   OH258839   3.421   1.301  16.793 -0.5019 -0.0658  0.7318
12475TIP3    H158840   3.423   1.396  16.798 -2.3196 -0.0326  2.7319
12475TIP3    H258841   3.360   1.281  16.722 -0.1830  0.2652  0.3663
12476TIP3   OH258842   0.992   5.185  13.949  0.1461 -0.7070 -0.0665
12476TIP3    H158843   0.974   5.132  13.871  0.5687  0.3690 -0.9128
12476TIP3    H258844   1.039   5.261  13.916  3.0319 -1.6286  1.6048
12477TIP3   OH258845   2.360   2.253  16.414 -0.3502 -0.1472 -0.4697
12477TIP3    H158846   2.284   2.311  16.424  0.0488  0.3042 -0.0311
12477TIP3    H258847   2.411   2.267  16.493  2.0661  2.2886 -2.2438
12478TIP3   OH258848   5.972   0.826   1.459  0.3756 -0.1823 -0.1465
12478TIP3    H158849   6.006   0.762   1.521 -1.3610 -0.4077  0.6368
12478TIP3    H258850   5.950   0.775   1.381 -2.8923 -1.0372  1.1704
12479TIP3   OH258851   2.202   5.901  10.911  0.0260 -0.0585 -0.0751
12479TIP3    H158852   2.289   5.940  10.913 -0.7476  1.7582  0.1910
12479TIP3    H258853   2.150   5.953  10.973 -1.3078 -0.9501 -0.3866
12480TIP3   OH258854   3.746   4.729   4.877 -0.0819 -0.2028 -0.6453
12480TIP3    H158855   3.771   4.642   4.908 -1.1682 -0.8675 -1.5697
12480TIP3    H258856   3.704   4.714   4.792 -1.8413  1.0324 -0.0555
12481TIP3   OH258857   3.521   4.669  12.471 -0.4130 -0.1523 -0.2805
12481TIP3    H158858   3.460   4.694  12.540  1.1234  1.2369  0.6465
12481TIP3    H258859   3.471   4.610  12.414 -1.7412 -1.3056  1.9595
12482TIP3   OH258860   4.771   6.502   3.119  0.6893 -0.4885 -0.3841
12482TIP3    H158861   4.692   6.488   3.065 -0.1139 -0.3047  0.7077
12482TIP3    H258862   4.754   6.584   3.166  0.5370 -1.5581  1.5312
12483TIP3   OH258863   5.691   0.336   3.750  0.1421 -0.2430 -0.1003
12483TIP3    H158864   5.767   0.309   3.802  1.3098  1.0105 -1.0696
12483TIP3    H258865   5.647   0.402   3.804  0.9481  0.5348 -0.3583
12484TIP3   OH258866   4.760   1.266   0.388  0.1079 -0.0274  0.2382
12484TIP3    H158867   4.768   1.359   0.370 -0.3592  0.0320  0.3409
12484TIP3    H258868   4.670   1.244   0.365  0.4416 -0.6235 -0.5405
12485TIP3   OH258869   4.164   2.553  12.197 -1.1733  0.2920  0.0017
12485TIP3    H158870   4.168   2.540  12.102  1.3964  0.6819 -0.0228
12485TIP3    H258871   4.140   2.646  12.207 -0.7339  0.4400 -0.2879
12486TIP3   OH258872   3.294   1.664  12.613 -0.0903 -0.0228 -0.0460
12486TIP3    H158873   3.298   1.628  12.702  2.6925  1.5749  0.5610
12486TIP3    H258874   3.241   1.600  12.565  0.5913 -2.3843  2.0971
12487TIP3   OH258875   0.931   4.275   2.420 -0.0689 -0.1283  0.1309
12487TIP3    H158876   0.958   4.183   2.424  0.8063  0.1683  1.6650
12487TIP3    H258877   0.980   4.310   2.346 -0.8764 -1.0064 -0.8689
12488TIP3   OH258878   1.162   5.928  14.539 -0.2346  0.0887  0.1046
12488TIP3    H158879   1.144   5.988  14.612  0.4371  0.0935  0.2721
12488TIP3    H258880   1.093   5.947  14.476 -0.6090  0.3485  0.5781
12489TIP3   OH258881   4.936   3.519   4.144  0.3495 -0.5092  0.5157
12489TIP3    H158882   4.977   3.438   4.113  0.0665  0.4658 -2.8067
12489TIP3    H258883   4.844   3.497   4.153  0.3015 -0.6407 -0.2094
12490TIP3   OH258884   4.896   0.154  14.563 -0.4220 -0.3089 -0.8857
12490TIP3    H158885   4.891   0.092  14.635  1.4704 -0.8054 -1.1168
12490TIP3    H258886   4.807   0.187  14.553 -1.0440 -1.4162  0.6132
12491TIP3   OH258887   1.364   1.802  12.893 -0.0911 -0.1212 -0.0219
12491TIP3    H158888   1.454   1.830  12.877 -0.4182  1.1620  0.2518
12491TIP3    H258889   1.325   1.875  12.942 -1.6844 -0.0123 -1.3774
12492TIP3   OH258890   3.251   5.470   6.301  0.4490 -0.0812 -0.4842
12492TIP3    H158891   3.272   5.393   6.354  1.7437 -0.1948 -1.1196
12492TIP3    H258892   3.172   5.447   6.253 -0.9693  0.1424  1.6012
12493TIP3   OH258893   3.711   3.238   6.373  0.2329 -0.1320  0.4477
12493TIP3    H158894   3.627   3.249   6.328  0.1242  0.1248  0.7049
12493TIP3    H258895   3.687   3.203   6.459  0.4862 -1.2428  0.0826
12494TIP3   OH258896   6.788   4.414  11.316  0.3956  0.6300 -0.3874
12494TIP3    H158897   6.728   4.352  11.275 -0.9842  1.9362 -0.4293
12494TIP3    H258898   6.853   4.432  11.248  0.1410  0.1220 -0.7720
12495TIP3   OH258899   1.161   2.354  14.917 -0.1754  0.4079 -0.4556
12495TIP3    H158900   1.082   2.304  14.936 -0.7802  2.1822  2.1993
12495TIP3    H258901   1.136   2.413  14.846  0.3155 -2.2307 -3.0461
12496TIP3   OH258902   2.462   1.121   5.691 -0.5979  0.8421 -0.2630
12496TIP3    H158903   2.468   1.028   5.672  1.2414  1.1492 -1.4186
12496TIP3    H258904   2.381   1.130   5.741 -0.9025 -1.3333 -0.2704
12497TIP3   OH258905   0.992   2.902  12.176 -0.5835 -0.0189 -0.5695
12497TIP3    H158906   1.043   2.908  12.094  2.3461 -1.2383  1.0087
12497TIP3    H258907   1.034   2.965  12.234 -0.2301 -1.7203  1.0934
12498TIP3   OH258908   3.048   5.482  14.056  1.1757 -0.0920 -0.2500
12498TIP3    H158909   3.082   5.393  14.066  0.1805 -0.3617  1.0964
12498TIP3    H258910   3.016   5.505  14.143 -0.4520  0.7855 -1.0256
12499TIP3   OH258911   3.810   3.588   0.016 -0.5776 -0.6232  0.8557
12499TIP3    H158912   3.760   3.567   0.095  1.1575  0.5780  2.3595
12499TIP3    H258913   3.814   3.684   0.015 -0.2657 -0.6211 -0.5356
12500TIP3   OH258914   4.839   4.823  15.565  0.1422  0.6059  0.1093
12500TIP3    H158915   4.835   4.770  15.486 -1.0428  0.6559  0.1138
12500TIP3    H258916   4.758   4.802  15.612  1.1730  0.0100  1.6927
12501TIP3   OH258917   0.437   2.133  11.673  0.3212  0.1354  0.0175
12501TIP3    H158918   0.369   2.199  11.657  0.6490  0.3484 -0.5028
12501TIP3    H258919   0.421   2.105  11.763 -0.0824  0.6231  0.1065
12502TIP3   OH258920   6.437   6.785  10.691  0.3282 -0.1379  0.0113
12502TIP3    H158921   6.425   6.863  10.637 -0.4695 -2.6119 -3.6963
12502TIP3    H258922   6.529   6.763  10.682  0.5171  0.2444  0.9194
12503TIP3   OH258923   4.294   1.997   0.957  0.4344  0.3018 -0.1606
12503TIP3    H158924   4.214   2.048   0.974 -0.0795 -0.3469 -0.5570
12503TIP3    H258925   4.263   1.907   0.952  1.1291  0.0948 -0.8297
12504TIP3   OH258926   6.734   2.862   2.384 -0.1129 -0.4516  0.4092
12504TIP3    H158927   6.696   2.838   2.468  0.6628 -1.1245  0.5875
12504TIP3    H258928   6.686   2.809   2.320  1.1879 -2.1178  0.7416
12505TIP3   OH258929   0.445   2.907   2.111 -0.1471  0.0220 -0.4981
12505TIP3    H158930   0.517   2.845   2.096 -0.0204  0.5000 -2.0188
12505TIP3    H258931   0.369   2.867   2.068 -0.3034  0.4514 -0.6260
12506TIP3   OH258932   3.966   2.960   1.788 -0.3635  0.0723  0.3425
12506TIP3    H158933   4.049   2.917   1.804  0.1912  1.2152  0.6540
12506TIP3    H258934   3.989   3.039   1.739 -1.4680 -0.5612 -1.2647
12507TIP3   OH258935   3.611   4.849  12.752  0.1572 -0.2162 -0.1603
12507TIP3    H158936   3.594   4.769  12.801  0.7008  0.6562  1.5041
12507TIP3    H258937   3.524   4.888  12.740 -0.0973 -0.9749 -0.8854
12508TIP3   OH258938   0.641   5.135  16.611  0.2765  0.6388  0.1134
12508TIP3    H158939   0.584   5.131  16.534  0.4148 -0.2707  0.0473
12508TIP3    H258940   0.600   5.200  16.668 -1.2690 -0.5408  0.4099
12509TIP3   OH258941   5.173   3.956   5.549  0.4327  0.3379  0.4512
12509TIP3    H158942   5.256   3.993   5.581  1.6731 -1.0726 -0.9684
12509TIP3    H258943   5.146   4.016   5.479  0.0014  1.0304  1.1900
12510TIP3   OH258944   5.819   3.754  12.206  0.2778 -0.3147  0.5457
12510TIP3    H158945   5.840   3.827  12.147  0.2330 -1.4690 -0.9655
12510TIP3    H258946   5.894   3.695  12.197  2.2592  1.1654  4.6825
12511TIP3   OH258947   1.367   1.012  13.400  0.1395  0.1786  0.0478
12511TIP3    H158948   1.356   1.084  13.339  0.9758  1.5624  1.4683
12511TIP3    H258949   1.338   1.046  13.484 -0.9243 -1.6656  0.4808
12512TIP3   OH258950   6.641   3.349   6.032  0.1178 -0.0884 -0.0020
12512TIP3    H158951   6.627   3.355   5.937  1.1705  1.1440 -0.1148
12512TIP3    H258952   6.605   3.431   6.066  1.5111  0.4051  0.3847
12513TIP3   OH258953   2.035   5.001  15.781  0.4961  0.4065 -0.2904
12513TIP3    H158954   2.087   4.938  15.731  0.3372  0.5990 -0.7105
12513TIP3    H258955   2.098   5.047  15.836  0.4411 -1.0456  1.0479
12514TIP3   OH258956   2.177   0.045  12.832  0.0927  0.7411 -0.3023
12514TIP3    H158957   2.138   0.068  12.916  1.5370  0.3785  0.4927
12514TIP3    H258958   2.184  -0.051  12.834  2.5644  0.8692  0.3414
12515TIP3   OH258959   4.473   5.371  16.313  0.4219 -0.3994  0.0182
12515TIP3    H158960   4.386   5.392  16.278 -0.7263  0.1807  2.9466
12515TIP3    H258961   4.532   5.430  16.266 -1.4878  2.9186  1.4196
12516TIP3   OH258962   6.258   2.996   1.462  0.0684 -0.1803 -0.4434
12516TIP3    H158963   6.336   3.013   1.514  0.6978 -2.7784 -0.3815
12516TIP3    H258964   6.250   2.900   1.461 -2.3335 -0.0536 -1.6136
12517TIP3   OH258965   2.633   4.600  15.361 -0.1174 -0.3593  0.3036
12517TIP3    H158966   2.714   4.570  15.404 -0.8137 -2.0807  0.4887
12517TIP3    H258967   2.578   4.631  15.432 -0.5168 -1.4002  0.4650
12518TIP3   OH258968   0.512   4.549  12.048 -0.4105  0.4620  0.3300
12518TIP3    H158969   0.560   4.491  12.106  1.1519  1.5513  0.1803
12518TIP3    H258970   0.522   4.510  11.961 -0.5696  0.2170  0.4193
12519TIP3   OH258971   5.413   6.473   6.146  0.0241  0.0075 -0.1599
12519TIP3    H158972   5.343   6.468   6.210 -0.7897  0.9731 -0.9402
12519TIP3    H258973   5.493   6.457   6.196 -0.6243  0.2906  0.9979
12520TIP3   OH258974   0.429   1.084  15.499 -0.1013 -0.1297 -0.4871
12520TIP3    H158975   0.375   1.163  15.496  0.2902  0.1159 -1.4864
12520TIP3    H258976   0.376   1.017  15.456  0.3662  0.1155 -1.4835
12521TIP3   OH258977   5.276   2.141   3.831 -0.0237 -0.4838 -0.2557
12521TIP3    H158978   5.292   2.113   3.741  1.2854 -0.0396 -0.1778
12521TIP3    H258979   5.224   2.071   3.870 -1.1172 -0.4148 -1.5112
12522TIP3   OH258980   0.872   0.070   4.635  0.1609  0.0893  0.3511
12522TIP3    H158981   0.888   0.162   4.656 -1.4673  0.3142  0.7725
12522TIP3    H258982   0.794   0.047   4.686  0.5091 -1.5206  0.2174
12523TIP3   OH258983   6.578   0.376  11.264 -0.2510 -0.0295  0.1165
12523TIP3    H158984   6.552   0.463  11.236  1.2709  0.2787 -0.4381
12523TIP3    H258985   6.648   0.351  11.204  0.4744 -0.9467  1.2964
12524TIP3   OH258986   5.618   4.279   0.681  0.1549 -0.0025  0.3189
12524TIP3    H158987   5.620   4.372   0.704 -0.3853  0.1861 -0.3803
12524TIP3    H258988   5.546   4.243   0.732  1.5481 -0.4712  2.0917
12525TIP3   OH258989   6.333   4.524   4.726  0.1356 -0.0280  0.3077
12525TIP3    H158990   6.277   4.447   4.735 -0.0186  0.2106  1.6162
12525TIP3    H258991   6.422   4.490   4.730  0.0907 -0.0137  2.6925
12526TIP3   OH258992   5.359   1.965  16.554  0.4806  0.4220 -0.8667
12526TIP3    H158993   5.362   2.061  16.547 -0.0211  0.3799 -2.0862
12526TIP3    H258994   5.363   1.947  16.647  1.2375  1.6067 -0.6519
12527TIP3   OH258995   2.718   2.645   1.839 -0.0002  0.0333  0.2746
12527TIP3    H158996   2.678   2.649   1.752 -2.9804  1.5225  1.5549
12527TIP3    H258997   2.753   2.733   1.853 -0.8084  0.2415  1.0779
12528TIP3   OH258998   6.315   3.911  16.263  0.2595  0.3043 -0.1868
12528TIP3    H158999   6.387   3.951  16.312  0.1133  1.8810 -1.1796
12528TIP3    H259000   6.358   3.875  16.185  0.1967 -0.3094  0.0556
12529TIP3   OH259001   4.132   6.544  17.233  0.0700  0.0007 -0.0460
12529TIP3    H159002   4.078   6.623  17.232  0.5680  0.4990  2.9894
12529TIP3    H259003   4.124   6.509  17.144 -3.0056  1.5145 -0.5150
12530TIP3   OH259004   1.853   0.165   5.508  0.9346 -0.8171 -0.2881
12530TIP3    H159005   1.800   0.124   5.577  0.6441  1.8548  1.2479
12530TIP3    H259006   1.789   0.215   5.456  1.5592  0.0477 -0.2465
12531TIP3   OH259007   5.660   0.425  14.971 -0.0081 -0.1907  0.4586
12531TIP3    H159008   5.644   0.347  15.025  1.2331 -0.0822  0.9994
12531TIP3    H259009   5.611   0.494  15.014 -1.5705 -0.7512 -0.3249
12532TIP3   OH259010   5.762   3.237   6.586 -0.2662  0.7195 -0.2972
12532TIP3    H159011   5.790   3.183   6.661 -1.9959  1.5780  1.0348
12532TIP3    H259012   5.699   3.182   6.540 -2.8053  1.8016  1.6302
12533TIP3   OH259013   3.031   2.475  15.168  0.1058  0.8224 -0.6876
12533TIP3    H159014   3.015   2.462  15.075 -1.8052  2.5453 -0.6721
12533TIP3    H259015   2.957   2.433  15.212  1.3310 -0.5696  0.1464
12534TIP3   OH259016   0.935   3.073   5.473 -0.7553  0.2345 -0.7125
12534TIP3    H159017   1.022   3.052   5.506 -0.6586  1.8487  0.1193
12534TIP3    H259018   0.890   2.988   5.470 -0.4942 -0.1971  2.8346
12535TIP3   OH259019   2.485   3.994  15.757  0.1578 -0.1503  0.2842
12535TIP3    H159020   2.466   3.901  15.760  1.0302 -0.3977 -1.1424
12535TIP3    H259021   2.407   4.033  15.717 -0.8148 -0.0451  2.1823
12536TIP3   OH259022   1.095   5.600  14.154  0.5490  0.1390  0.2316
12536TIP3    H159023   1.106   5.686  14.195  2.0231  1.3122 -2.3410
12536TIP3    H259024   1.007   5.572  14.180  0.2574  2.1334  1.6341
12537TIP3   OH259025   3.114   5.345  11.322  0.0517  0.1238 -0.4372
12537TIP3    H159026   3.133   5.387  11.237 -0.4808  1.8984  0.2667
12537TIP3    H259027   3.076   5.415  11.374 -0.6538 -1.2358  0.9218
12538TIP3   OH259028   1.462   3.718  14.257  0.1906  0.1668  0.2443
12538TIP3    H159029   1.402   3.679  14.193  0.1597  2.3709 -1.1678
12538TIP3    H259030   1.406   3.775  14.310  0.4945 -0.4140  1.2193
12539TIP3   OH259031   6.566   5.426   4.328 -0.5902  0.7054 -0.3612
12539TIP3    H159032   6.505   5.398   4.259 -1.2362  2.2718 -0.4691
12539TIP3    H259033   6.615   5.498   4.288  1.0104 -0.1953 -0.1017
12540TIP3   OH259034   4.970   2.045   5.331 -0.1706 -0.0952  0.1545
12540TIP3    H159035   4.895   2.090   5.292 -0.0653  0.6551  0.7849
12540TIP3    H259036   4.990   1.974   5.270 -1.4527 -0.3754  0.0329
12541TIP3   OH259037   3.732   5.831   0.762  0.7338 -0.0523  0.1630
12541TIP3    H159038   3.781   5.869   0.835  1.0749 -0.0873 -0.0454
12541TIP3    H259039   3.676   5.903   0.732  0.2318 -0.1810  0.7665
12542TIP3   OH259040   5.432   1.196   5.781  0.4671 -0.2206  0.0003
12542TIP3    H159041   5.466   1.282   5.757 -0.4116  0.2544  0.4079
12542TIP3    H259042   5.438   1.145   5.700 -0.4443  0.6997 -0.6799
12543TIP3   OH259043   0.468   3.787  13.485 -0.2229 -0.1527 -0.6516
12543TIP3    H159044   0.441   3.790  13.393 -0.5043  0.3112 -0.5575
12543TIP3    H259045   0.474   3.879  13.511  0.3672 -0.2704 -0.3512
12544TIP3   OH259046   5.278   0.499   4.998 -1.0741  0.0785  0.4377
12544TIP3    H159047   5.222   0.456   4.933 -0.9611 -0.9527  0.9910
12544TIP3    H259048   5.308   0.579   4.956 -1.4862 -0.2776 -0.5499
12545TIP3   OH259049   4.129   0.324   4.555  0.3021 -0.0133  0.0056
12545TIP3    H159050   4.193   0.387   4.589 -0.2406  0.0862  0.8938
12545TIP3    H259051   4.141   0.246   4.609 -0.3415  0.0238  0.2184
12546TIP3   OH259052   0.046   4.864   3.869 -0.6314  0.6116 -0.0985
12546TIP3    H159053   0.034   4.805   3.943 -2.3209 -0.1799 -0.9504
12546TIP3    H259054   0.005   4.946   3.897 -0.3425  0.6553  0.2104
12547TIP3   OH259055   4.268   1.075  11.119  0.0586  0.6298  0.0753
12547TIP3    H159056   4.289   1.094  11.211 -1.0325  1.8605  0.1044
12547TIP3    H259057   4.352   1.076  11.074  0.5100  0.9959  0.8994
12548TIP3   OH259058   5.206   6.218  16.982  0.4771 -0.3646  0.1060
12548TIP3    H159059   5.193   6.313  16.977  0.5941 -0.4205 -2.7421
12548TIP3    H259060   5.127   6.186  17.026  0.5910  1.0375  1.4406
12549TIP3   OH259061   6.656   2.329  14.220  0.1709  0.0024 -0.1977
12549TIP3    H159062   6.594   2.261  14.244  1.2015 -1.4986 -1.5561
12549TIP3    H259063   6.602   2.405  14.199 -0.9193  0.3161  3.1897
12550TIP3   OH259064   2.849   1.373  15.724  0.1368  0.1867 -0.4732
12550TIP3    H159065   2.938   1.337  15.720  0.2355  0.2825  0.5361
12550TIP3    H259066   2.793   1.302  15.693  0.3126 -0.9793  1.6807
12551TIP3   OH259067   2.181   4.597   5.473  0.1074  0.2957 -0.3130
12551TIP3    H159068   2.110   4.651   5.437 -0.4884 -1.1021 -1.2989
12551TIP3    H259069   2.143   4.510   5.481  1.5331 -0.3391 -0.2611
12552TIP3   OH259070   0.450   1.489   5.055 -0.1639 -0.7109 -0.4467
12552TIP3    H159071   0.504   1.430   5.002  0.3141  0.6557 -1.5801
12552TIP3    H259072   0.511   1.527   5.118 -0.1037 -0.2856 -0.7501
12553TIP3   OH259073   1.435   2.074   4.464  0.1762  0.5910  0.0244
12553TIP3    H159074   1.431   2.147   4.525  0.8233 -0.0402  0.8334
12553TIP3    H259075   1.380   2.006   4.503 -0.1309  0.5042 -0.5403
12554TIP3   OH259076   1.008   2.883  15.160 -0.0569 -0.2889  0.0283
12554TIP3    H159077   1.009   2.973  15.126  2.1242  0.0132  0.7042
12554TIP3    H259078   1.101   2.862  15.173 -0.4748 -2.8829 -0.6990
12555TIP3   OH259079   5.962   4.002   1.320  0.6437 -0.2504 -0.3768
12555TIP3    H159080   5.871   3.979   1.342  1.0076 -2.2377 -0.7168
12555TIP3    H259081   5.980   3.955   1.239  2.3422 -0.9535  0.3425
12556TIP3   OH259082   2.394   2.996   1.108  0.1454  0.2156  0.0770
12556TIP3    H159083   2.402   3.018   1.016 -2.2427 -1.2936 -0.5675
12556TIP3    H259084   2.315   3.042   1.137 -0.1677 -0.7806  0.8653
12557TIP3   OH259085   1.292   6.290   3.221 -0.2330  0.3443  0.3010
12557TIP3    H159086   1.279   6.197   3.200  1.0446 -0.1391  1.4609
12557TIP3    H259087   1.210   6.332   3.196 -0.2522 -0.8082 -1.7926
12558TIP3   OH259088   3.309   1.991   1.133  0.2205  0.8984  0.0969
12558TIP3    H159089   3.249   1.943   1.191 -0.6415 -0.3931 -1.7544
12558TIP3    H259090   3.251   2.047   1.080  0.9924  2.1104  0.5056
12559TIP3   OH259091   4.534   3.890  11.897 -1.0222 -0.3275  0.5218
12559TIP3    H159092   4.507   3.909  11.986 -0.6468  0.7804  0.4186
12559TIP3    H259093   4.548   3.976  11.857  1.8181 -0.7640  0.3367
12560TIP3   OH259094   4.616   3.345   1.324 -0.3390 -0.2480 -0.2133
12560TIP3    H159095   4.707   3.360   1.349 -1.0799  1.0053  1.9910
12560TIP3    H259096   4.585   3.431   1.294 -0.9964 -0.4907 -0.2400
12561TIP3   OH259097   6.689   4.040   5.054  0.8724 -0.8664  0.0756
12561TIP3    H159098   6.662   3.956   5.091 -0.8570  0.3273  1.7001
12561TIP3    H259099   6.784   4.044   5.069  0.8130 -2.0741  0.8744
12562TIP3   OH259100   4.128   5.208   5.985 -0.4362 -0.1030 -0.2074
12562TIP3    H159101   4.206   5.255   5.953 -0.5104 -0.8641 -1.5595
12562TIP3    H259102   4.112   5.245   6.072  0.2336  1.5025 -0.7355
12563TIP3   OH259103   4.964   3.202   5.674  0.4280 -0.0796  0.4455
12563TIP3    H159104   5.034   3.139   5.654  0.8007  0.4756 -0.0322
12563TIP3    H259105   4.886   3.148   5.688  0.4883 -0.5975 -1.0396
12564TIP3   OH259106   0.759   5.976  14.944 -0.7735  0.3296 -0.4938
12564TIP3    H159107   0.740   6.047  15.005  1.5346  1.1996 -0.6922
12564TIP3    H259108   0.787   6.019  14.864  3.0533 -0.6124  0.1349
12565TIP3   OH259109   4.272   1.938  12.455  0.2611  0.0792  0.8555
12565TIP3    H159110   4.290   2.020  12.501 -0.6690  1.0378 -0.4210
12565TIP3    H259111   4.178   1.925  12.465 -0.2202  0.9963 -1.7521
12566TIP3   OH259112   3.553   3.157   4.313 -0.3259  0.6901  0.7374
12566TIP3    H159113   3.516   3.220   4.252  1.0308  1.2348  0.4466
12566TIP3    H259114   3.636   3.196   4.341  0.7208 -1.0826  0.3013
12567TIP3   OH259115   2.443   2.369   0.265 -0.3598  0.2070  0.4315
12567TIP3    H159116   2.532   2.398   0.250  0.9500 -2.6802  1.7231
12567TIP3    H259117   2.419   2.323   0.185 -0.6370  0.8329  0.1511
12568TIP3   OH259118   2.677   3.605   5.371  0.4038 -0.7896  0.1910
12568TIP3    H159119   2.669   3.699   5.385  1.9330 -0.4363 -1.0615
12568TIP3    H259120   2.642   3.592   5.282  2.4450 -0.9803 -0.6323
12569TIP3   OH259121   6.773   2.843   4.575  0.1082 -0.3313  0.3106
12569TIP3    H159122   6.704   2.779   4.590  0.2237 -0.7995 -1.0389
12569TIP3    H259123   6.752   2.915   4.635 -0.2296 -1.4499  1.5808
12570TIP3   OH259124   2.212   1.216   2.802  0.1393  0.1647  0.1391
12570TIP3    H159125   2.155   1.141   2.780 -0.4836  0.8463 -0.6316
12570TIP3    H259126   2.260   1.187   2.880 -2.2850  0.0766  1.7046
12571TIP3   OH259127   0.705   0.047  13.663  0.8003  0.3401 -0.0678
12571TIP3    H159128   0.775   0.104  13.630  1.5630  0.3353  1.4271
12571TIP3    H259129   0.687  -0.013  13.591  1.0288  1.5111 -1.1408
12572TIP3   OH259130   3.176   5.628   2.119  0.4519 -0.4898 -0.1119
12572TIP3    H159131   3.148   5.719   2.135  2.6398  0.3143 -0.5007
12572TIP3    H259132   3.162   5.584   2.203  0.9181  0.6570  0.5981
12573TIP3   OH259133   3.674   3.413  11.844  0.4216  0.5271  0.0230
12573TIP3    H159134   3.701   3.491  11.892 -0.2521  0.6786  0.1526
12573TIP3    H259135   3.693   3.433  11.753  1.5770  0.2918  0.1908
12574TIP3   OH259136   3.842   6.707   4.316  0.0661 -0.0244 -0.2180
12574TIP3    H159137   3.875   6.671   4.234 -0.9123 -0.2362 -0.5319
12574TIP3    H259138   3.857   6.638   4.380 -0.0226 -0.2307 -0.4175
12575TIP3   OH259139   5.841   2.025   1.399  0.2115  0.3250  0.2226
12575TIP3    H159140   5.910   2.062   1.454 -0.2115  1.4242  0.0307
12575TIP3    H259141   5.794   2.101   1.365 -0.6124 -0.3917 -0.2715
12576TIP3   OH259142   2.156   6.369   5.824  0.2170 -0.0155  0.5983
12576TIP3    H159143   2.159   6.284   5.868 -1.6939 -0.5003 -0.1031
12576TIP3    H259144   2.201   6.355   5.741 -0.9927 -0.6541  0.0366
12577TIP3   OH259145   1.497   6.256   4.958 -0.2920  0.5838 -0.0823
12577TIP3    H159146   1.570   6.215   5.005 -0.6725 -0.9336 -0.7370
12577TIP3    H259147   1.419   6.214   4.993 -0.6277 -0.0192 -1.4774
12578TIP3   OH259148   5.866   2.477   1.513  0.1654  0.3123  0.0449
12578TIP3    H159149   5.791   2.418   1.525  0.5529 -0.0365  0.8085
12578TIP3    H259150   5.830   2.551   1.464 -0.0549 -1.0962 -2.0542
12579TIP3   OH259151   5.690   4.153   5.623  0.4574  0.6457 -0.2582
12579TIP3    H159152   5.704   4.207   5.545 -0.7920  2.1571  0.5177
12579TIP3    H259153   5.732   4.201   5.694  0.7545 -0.2423  0.1773
12580TIP3   OH259154   1.719   6.060   4.613 -0.5027  0.2010  0.3928
12580TIP3    H159155   1.789   6.096   4.668 -0.2016  2.5145 -1.3696
12580TIP3    H259156   1.641   6.110   4.638 -0.0343  2.4820 -2.2379
12581TIP3   OH259157   3.584   1.906   0.276  0.1399 -0.0882  0.4626
12581TIP3    H159158   3.545   1.904   0.188  2.2242 -1.0801 -0.5286
12581TIP3    H259159   3.631   1.990   0.279  0.2282 -0.1411  0.5454
12582TIP3   OH259160   3.126   6.109   0.365 -0.5004  0.2377 -0.5240
12582TIP3    H159161   3.080   6.148   0.439  0.3841 -1.4240  0.9986
12582TIP3    H259162   3.057   6.084   0.304 -1.3906  0.2246  0.4663
12583TIP3   OH259163   4.262   0.159   2.512 -0.0217  0.1464 -0.1605
12583TIP3    H159164   4.329   0.197   2.569 -0.5534  0.9285 -0.0424
12583TIP3    H259165   4.184   0.212   2.528  0.0469  0.9540 -2.2805
12584TIP3   OH259166   4.969   0.472  17.041  0.7913  0.2372 -0.1216
12584TIP3    H159167   5.023   0.519  16.977 -0.7332  1.0313 -0.8834
12584TIP3    H259168   4.913   0.539  17.079  0.0937 -0.6149  0.3938
12585TIP3   OH259169   0.488   6.499  15.642  0.2697 -0.3192  0.2216
12585TIP3    H159170   0.531   6.559  15.581 -0.2274 -0.9807 -0.8031
12585TIP3    H259171   0.541   6.420  15.640 -0.7085 -0.9736 -0.6968
12586TIP3   OH259172   6.469   3.216  11.451  0.6111  0.5966 -0.3160
12586TIP3    H159173   6.523   3.140  11.472  1.4630  1.3258  0.2346
12586TIP3    H259174   6.384   3.180  11.428  1.2160 -0.5708 -0.8259
12587TIP3   OH259175   2.371   5.264  12.967 -0.2931 -0.5478 -0.3176
12587TIP3    H159176   2.405   5.216  13.043 -0.7742 -0.3453  0.0289
12587TIP3    H259177   2.277   5.247  12.968 -0.3090 -0.5048 -0.8437
12588TIP3   OH259178   6.458   3.986  11.460 -0.0431 -0.2460 -0.5740
12588TIP3    H159179   6.367   3.984  11.431 -0.1176 -2.2109 -0.3183
12588TIP3    H259180   6.473   3.899  11.497  1.5701  0.4645  0.5448
12589TIP3   OH259181   1.452   5.715   2.741 -0.3748 -0.4014  0.2363
12589TIP3    H159182   1.545   5.729   2.723 -0.1688 -0.5495  1.1212
12589TIP3    H259183   1.447   5.624   2.770 -1.0481 -0.8924 -1.3240
12590TIP3   OH259184   4.803   1.708  10.597 -0.5163  0.8123 -0.1950
12590TIP3    H159185   4.794   1.803  10.604 -1.7766  0.6472  0.7880
12590TIP3    H259186   4.885   1.689  10.642 -0.5879  1.3709  0.1873
12591TIP3   OH259187   5.637   6.337  11.395  0.0630 -0.3986  0.3263
12591TIP3    H159188   5.625   6.431  11.411  0.8232 -0.4553  1.3236
12591TIP3    H259189   5.665   6.332  11.304 -3.0738  0.0671 -0.7913
12592TIP3   OH259190   2.133   1.138  15.392 -0.5021 -0.2068  0.0824
12592TIP3    H159191   2.042   1.167  15.387 -0.9140 -1.1579  1.4398
12592TIP3    H259192   2.185   1.218  15.385 -1.4385  0.3591 -0.6023
12593TIP3   OH259193   1.033   1.630   4.324 -0.2346  0.0764  0.1233
12593TIP3    H159194   0.938   1.635   4.338 -0.4674 -1.5205 -0.5917
12593TIP3    H259195   1.068   1.708   4.366 -2.0702  1.9092 -1.5601
12594TIP3   OH259196   2.625   4.863   2.946 -0.1283  0.4318  0.1268
12594TIP3    H159197   2.664   4.795   3.001 -0.3820 -0.2978 -0.5885
12594TIP3    H259198   2.699   4.917   2.918 -0.0601  1.1976  1.6817
12595TIP3   OH259199   1.727   0.701  15.781 -0.1369 -0.0613 -0.2416
12595TIP3    H159200   1.643   0.662  15.803  0.3407 -0.6876  0.5527
12595TIP3    H259201   1.777   0.698  15.863  1.1288 -0.9566 -0.9954
12596TIP3   OH259202   3.532   3.347  15.771  0.1864  0.2773  0.1244
12596TIP3    H159203   3.557   3.280  15.835 -0.6107  0.5713  0.7636
12596TIP3    H259204   3.600   3.342  15.703  2.4516  1.5583  2.1318
12597TIP3   OH259205   1.395   1.715   2.773  0.2742 -0.2112  0.3021
12597TIP3    H159206   1.397   1.621   2.755 -0.1495 -0.3683  1.0407
12597TIP3    H259207   1.486   1.743   2.766  0.7281 -1.0669  2.0710
12598TIP3   OH259208   0.385   6.698   0.070  0.2441  0.3499  0.2430
12598TIP3    H159209   0.340   6.620   0.104 -2.4502  1.8184  0.3267
12598TIP3    H259210   0.326   6.730   0.001  1.7440  1.8288 -0.3990
12599TIP3   OH259211   2.437   6.330  16.526  0.3002 -1.0150  0.0822
12599TIP3    H159212   2.420   6.300  16.437 -0.6113  1.2077 -0.5664
12599TIP3    H259213   2.488   6.410  16.516 -2.0780  0.8044  1.3224
12600TIP3   OH259214   3.547   6.149  11.276 -0.0140  0.0927 -0.5135
12600TIP3    H159215   3.512   6.061  11.261 -0.1293  0.0893 -0.2378
12600TIP3    H259216   3.469   6.204  11.285  0.0438  0.5008 -2.1887
12601TIP3   OH259217   0.127   4.835  11.975 -0.0782  0.5216 -0.0310
12601TIP3    H159218   0.038   4.859  11.947 -1.3025 -1.4068  1.9279
12601TIP3    H259219   0.148   4.900  12.043 -0.4546  0.3471  0.2596
12602TIP3   OH259220   1.413   0.664   1.106 -0.4703  0.4914 -0.2244
12602TIP3    H159221   1.359   0.743   1.111 -1.0813  0.1356 -1.1236
12602TIP3    H259222   1.496   0.695   1.069  0.4907  1.2792  2.3113
12603TIP3   OH259223   4.623   4.917   4.442 -0.0151  0.3969 -0.3422
12603TIP3    H159224   4.570   4.839   4.424  0.1542  0.7925 -3.0512
12603TIP3    H259225   4.562   4.990   4.430  0.7487  0.8014 -2.1544
12604TIP3   OH259226   1.139   1.258  15.700 -0.2331  1.1321 -0.8635
12604TIP3    H159227   1.050   1.226  15.714  0.4224 -0.8852 -1.0556
12604TIP3    H259228   1.170   1.212  15.623  1.9596 -0.5144  0.8527
12605TIP3   OH259229   0.338   4.089  16.661  0.6480 -0.3489 -0.0328
12605TIP3    H159230   0.425   4.075  16.698  0.7322  0.2004 -0.0124
12605TIP3    H259231   0.335   4.032  16.584  1.3657  0.2792 -0.5444
12606TIP3   OH259232   5.058   0.205  17.126  0.0597 -0.0920  0.1290
12606TIP3    H159233   5.045   0.300  17.119 -0.2891 -0.1447  0.0104
12606TIP3    H259234   4.970   0.170  17.141 -0.6502 -0.7992 -4.2869
12607TIP3   OH259235   3.656   3.824  12.537 -0.7566 -0.1143 -0.0901
12607TIP3    H159236   3.620   3.900  12.582 -1.9212 -0.7967  0.1838
12607TIP3    H259237   3.586   3.758  12.542  0.0122 -1.0122 -0.7964
12608TIP3   OH259238   0.715   5.645  12.658  0.0918 -0.0736  0.1706
12608TIP3    H159239   0.710   5.706  12.731 -0.1846  0.2677 -0.1342
12608TIP3    H259240   0.645   5.671  12.599  0.4073 -0.2545 -0.2928
12609TIP3   OH259241   4.690   4.082   2.575  0.3711  0.3512  0.2368
12609TIP3    H159242   4.660   4.043   2.493 -0.5226  1.2509  0.1141
12609TIP3    H259243   4.657   4.023   2.643  3.1899 -1.7576 -0.0737
12610TIP3   OH259244   5.117   0.551   4.761 -0.4023  0.4620  0.7082
12610TIP3    H159245   5.133   0.537   4.668 -0.1605 -0.0797  0.8254
12610TIP3    H259246   5.022   0.562   4.768 -0.5379 -0.5119  0.5186
12611TIP3   OH259247   4.418   6.335  16.824  0.2169  0.3750  0.4950
12611TIP3    H159248   4.508   6.305  16.840 -0.4468 -1.8998  0.2710
12611TIP3    H259249   4.363   6.263  16.855 -1.4690  0.8999 -1.0958
12612TIP3   OH259250   5.661   2.666   0.056 -1.0008  0.2016  0.0285
12612TIP3    H159251   5.757   2.660   0.062 -0.9026 -0.0270 -1.4534
12612TIP3    H259252   5.641   2.757   0.075 -0.5806  0.0815  1.1637
12613TIP3   OH259253   3.368   6.505  10.882  0.1213 -0.4398 -0.2586
12613TIP3    H159254   3.421   6.523  10.803 -0.4695  0.7775 -0.4002
12613TIP3    H259255   3.289   6.558  10.870  0.1511 -0.0097  1.2925
12614TIP3   OH259256   2.809   4.426   5.382  0.6718  0.4089  0.1392
12614TIP3    H159257   2.879   4.377   5.338 -0.4362 -0.0414 -1.1789
12614TIP3    H259258   2.832   4.518   5.367  0.5713  0.2598 -1.0043
12615TIP3   OH259259   1.061   6.404  13.748 -0.2398  0.1412 -0.1132
12615TIP3    H159260   1.006   6.421  13.672 -0.4877  2.3384  0.5095
12615TIP3    H259261   1.103   6.488  13.768  1.6661 -0.9369  0.7724
12616TIP3   OH259262   6.093   0.656   3.317  0.3233 -0.2581 -0.0177
12616TIP3    H159263   6.112   0.686   3.406  0.2282 -1.1238  0.3101
12616TIP3    H259264   6.037   0.724   3.280  1.5080  0.8026  0.0783
12617TIP3   OH259265   1.871   6.412  12.080 -0.0326  0.1987 -0.5315
12617TIP3    H159266   1.831   6.490  12.118 -0.4164 -1.3074  2.3744
12617TIP3    H259267   1.965   6.424  12.095 -0.1409 -0.1444  0.4836
12618TIP3   OH259268   0.444   5.037   4.748  0.2934 -0.5477  0.7879
12618TIP3    H159269   0.351   5.013   4.738 -1.0934  3.8385  1.2358
12618TIP3    H259270   0.451   5.070   4.837  2.1289 -0.0358  0.4923
12619TIP3   OH259271   3.321   0.003   1.281 -0.1333  0.2089  0.2841
12619TIP3    H159272   3.265   0.031   1.353 -1.6557  0.7110 -1.0149
12619TIP3    H259273   3.286   0.050   1.205  0.3009 -1.5826 -1.0905
12620TIP3   OH259274   5.868   6.111  10.671  0.1059 -0.3272  0.0729
12620TIP3    H159275   5.961   6.128  10.659  0.2594  0.2193  1.8681
12620TIP3    H259276   5.825   6.193  10.646  0.2071 -0.1573  0.4499
12621TIP3   OH259277   3.752   0.911  11.973 -0.0195  0.4474 -0.2807
12621TIP3    H159278   3.671   0.871  12.005 -0.6143  1.0387 -0.9861
12621TIP3    H259279   3.814   0.839  11.967 -0.9845 -0.3331 -1.2613
12622TIP3   OH259280   5.259   6.076  13.152 -0.3857  0.0483 -0.2280
12622TIP3    H159281   5.224   6.145  13.208  1.4137 -1.6586  3.2589
12622TIP3    H259282   5.349   6.101  13.135 -0.1773 -0.6746 -0.2421
12623TIP3   OH259283   6.445   4.808   1.180 -0.2302  0.1435 -0.1612
12623TIP3    H159284   6.448   4.840   1.090 -0.7635  0.7124  0.0124
12623TIP3    H259285   6.505   4.866   1.228 -0.7188  0.4940  0.0357
12624TIP3   OH259286   3.759   2.592  11.918 -0.3206 -0.0084 -0.1199
12624TIP3    H159287   3.696   2.591  11.847 -0.1143  1.7900 -0.3739
12624TIP3    H259288   3.725   2.657  11.980 -0.8269 -1.9461  1.7843
12625TIP3   OH259289   3.488   2.225  14.441 -0.4119  0.1129  0.3556
12625TIP3    H159290   3.505   2.272  14.360 -1.4620  0.7116  0.4737
12625TIP3    H259291   3.574   2.191  14.467 -0.0399  0.0186 -0.9272
12626TIP3   OH259292   3.608   1.091  11.000  0.5375 -0.0495 -0.1957
12626TIP3    H159293   3.599   1.021  10.936  2.1560 -1.5051  1.0930
12626TIP3    H259294   3.695   1.128  10.984  1.7334 -1.5980  2.1674
12627TIP3   OH259295   0.468   0.469   1.026 -0.1327  0.2166 -0.1138
12627TIP3    H159296   0.451   0.559   1.054 -1.3816  0.3427 -1.1798
12627TIP3    H259297   0.439   0.415   1.100 -0.8732  0.6408 -0.0894
12628TIP3   OH259298   3.780   0.226  16.558 -0.3578 -0.4253  0.2726
12628TIP3    H159299   3.776   0.318  16.585 -0.5730 -0.1360 -0.7159
12628TIP3    H259300   3.815   0.228  16.469 -0.2116 -1.3150  0.2991
12629TIP3   OH259301   0.412   4.262  12.587 -0.1556 -0.5598 -0.0462
12629TIP3    H159302   0.408   4.358  12.596  1.4282 -0.5809  1.2831
12629TIP3    H259303   0.476   4.247  12.518  0.8038 -0.6692  0.8535
12630TIP3   OH259304   1.429   5.583   2.338  0.2598 -0.2588  0.0647
12630TIP3    H159305   1.499   5.647   2.347  0.6488 -0.7342  0.5736
12630TIP3    H259306   1.357   5.618   2.391  1.0222 -0.9625  1.6633
12631TIP3   OH259307   6.264   6.097   0.520 -0.0510  0.4086  0.6105
12631TIP3    H159308   6.344   6.148   0.508  0.1619 -0.5363 -3.6994
12631TIP3    H259309   6.292   6.006   0.508 -1.6886  0.0848 -1.4936
12632TIP3   OH259310   0.376   3.707   3.669  0.5472  0.4600  0.5525
12632TIP3    H159311   0.333   3.631   3.630  1.8533  0.2859 -0.6061
12632TIP3    H259312   0.312   3.740   3.732  0.0923 -1.8456  1.4304
12633TIP3   OH259313   0.146   1.533  17.074  0.0979  0.0163  0.0674
12633TIP3    H159314   0.199   1.502  17.147 -0.5493  2.5758  1.7485
12633TIP3    H259315   0.089   1.460  17.053  0.5541 -0.9177  1.8963
12634TIP3   OH259316   3.020   1.781  11.191  0.3449 -0.4157 -0.3001
12634TIP3    H159317   2.941   1.777  11.245 -0.3946  1.1158 -1.2130
12634TIP3    H259318   3.091   1.799  11.253 -0.4450  1.0157  0.2356
12635TIP3   OH259319   0.518   4.463   2.152 -0.2356  0.6164 -0.1017
12635TIP3    H159320   0.587   4.438   2.214  1.4927  1.7946 -1.4845
12635TIP3    H259321   0.515   4.558   2.156 -2.5066  0.5817  0.6172
12636TIP3   OH259322   4.819   1.529  16.308  0.5350 -0.6862  0.7658
12636TIP3    H159323   4.726   1.551  16.310  0.2329 -1.9146  2.6048
12636TIP3    H259324   4.852   1.554  16.394  1.6409 -1.2737  0.5325
12637TIP3   OH259325   6.621   0.592   1.894  0.0718  0.2440 -0.0141
12637TIP3    H159326   6.670   0.674   1.889  0.1526  0.1436 -0.9252
12637TIP3    H259327   6.534   0.613   1.861 -0.3715  0.3025  1.1399
12638TIP3   OH259328   5.010   3.344  15.491 -0.5693  0.3327 -0.3411
12638TIP3    H159329   4.996   3.329  15.584  1.2156 -1.5872 -0.3198
12638TIP3    H259330   4.922   3.338  15.452 -1.0619 -1.1443  0.9258
12639TIP3   OH259331   1.382   2.426  13.659 -0.0605 -0.4554  0.2161
12639TIP3    H159332   1.378   2.487  13.734  0.4181 -2.1465  1.6912
12639TIP3    H259333   1.476   2.420  13.639 -0.2258  0.4477 -0.9786
12640TIP3   OH259334   2.229   3.349  12.554  1.0853 -0.1549  0.1459
12640TIP3    H159335   2.309   3.400  12.562  0.8477  0.3665 -0.6443
12640TIP3    H259336   2.170   3.406  12.504  1.0456 -1.4600 -1.3716
12641TIP3   OH259337   1.767   6.021  16.709  0.0154 -0.5820  1.0455
12641TIP3    H159338   1.755   5.952  16.643  0.5969 -0.9431  1.3115
12641TIP3    H259339   1.736   6.101  16.667  2.0972 -0.4436 -0.3740
12642TIP3   OH259340   4.960   4.493   3.639 -0.1921 -0.1363 -0.3594
12642TIP3    H159341   4.874   4.504   3.600 -0.8267 -0.8160  0.7836
12642TIP3    H259342   5.021   4.506   3.567 -1.2101  1.0610 -1.0493
12643TIP3   OH259343   4.652   4.586  11.115 -0.2950 -0.0444 -0.5206
12643TIP3    H159344   4.595   4.612  11.042  0.6365  1.0189 -0.8964
12643TIP3    H259345   4.616   4.632  11.191 -0.3857  0.0478 -0.6185
12644TIP3   OH259346   2.479   4.427   1.075 -0.4771  0.5928 -0.7325
12644TIP3    H159347   2.570   4.401   1.087 -0.8326  0.0838  1.0752
12644TIP3    H259348   2.451   4.381   0.996  0.3623 -0.5083 -0.4065
12645TIP3   OH259349   6.759   3.964   2.497  0.2632  0.2433  0.2942
12645TIP3    H159350   6.759   4.052   2.535 -0.5421  0.4321 -0.1249
12645TIP3    H259351   6.735   3.978   2.405  0.6434 -0.3645  0.1024
12646TIP3   OH259352   4.615   3.522   5.659 -0.1392 -0.2000  0.3341
12646TIP3    H159353   4.583   3.609   5.632 -1.0186 -0.7335 -0.4041
12646TIP3    H259354   4.651   3.537   5.746  0.2018  1.0152  0.0097
12647TIP3   OH259355   3.064   3.804   4.354 -0.0695 -0.1001 -0.1482
12647TIP3    H159356   3.021   3.786   4.438  0.4681  0.7124  0.3144
12647TIP3    H259357   3.047   3.726   4.302 -0.9711 -0.3535  0.4837
12648TIP3   OH259358   6.326   5.719   4.515 -0.3975 -0.8977 -0.0853
12648TIP3    H159359   6.265   5.792   4.530  0.9438 -0.1039  2.0496
12648TIP3    H259360   6.326   5.707   4.420 -2.2346  0.4984 -0.3204
12649TIP3   OH259361   0.810   6.460   3.060  0.7235  0.3211 -0.0597
12649TIP3    H159362   0.797   6.530   3.124 -0.2080  1.1664 -1.1224
12649TIP3    H259363   0.723   6.442   3.025  1.2687  0.2943 -1.4954
12650TIP3   OH259364   6.159   4.239  16.028  0.2184  0.0386  0.5678
12650TIP3    H159365   6.092   4.175  16.053  1.5829 -2.6602 -2.0182
12650TIP3    H259366   6.234   4.219  16.084  0.9865 -1.4695 -0.8925
12651TIP3   OH259367   6.621   3.762  16.559  0.4884  0.3310  0.2164
12651TIP3    H159368   6.643   3.682  16.607  1.5452 -0.1369 -1.0142
12651TIP3    H259369   6.596   3.824  16.628 -1.3437 -1.3273  1.1359
12652TIP3   OH259370   3.782   4.551  15.611 -0.5630  0.0281  0.1068
12652TIP3    H159371   3.704   4.507  15.576 -0.0807 -1.6699  1.0911
12652TIP3    H259372   3.747   4.626  15.659 -1.4614  0.3000 -0.9338
12653TIP3   OH259373   1.263   5.013  12.503 -0.3716 -0.3546 -0.3866
12653TIP3    H159374   1.284   5.086  12.560  0.5483  0.2781 -1.4924
12653TIP3    H259375   1.336   4.952  12.514 -1.5950 -1.6336  1.2734
12654TIP3   OH259376   1.872   1.593   4.556  0.2480  0.1499 -0.5151
12654TIP3    H159377   1.892   1.512   4.602 -0.5789 -0.3837 -1.0452
12654TIP3    H259378   1.937   1.598   4.486  1.4894  0.9505  0.6511
12655TIP3   OH259379   0.948   6.364   5.397  0.8013  0.2072 -0.1563
12655TIP3    H159380   0.887   6.437   5.392  0.7844  0.1887 -0.2318
12655TIP3    H259381   0.940   6.331   5.486 -0.8461 -1.1402 -0.7612
12656TIP3   OH259382   4.664   4.496  14.077  0.8352 -0.1038 -0.3475
12656TIP3    H159383   4.590   4.537  14.034  0.3109 -0.9829 -0.3025
12656TIP3    H259384   4.738   4.511  14.018  0.4235 -0.0619 -0.8537
12657TIP3   OH259385   3.578   0.302  11.354  0.6571 -0.6939  0.1008
12657TIP3    H159386   3.531   0.219  11.343 -1.7599  0.5563  0.3487
12657TIP3    H259387   3.625   0.314  11.272 -1.4116 -0.8942 -1.1821
12658TIP3   OH259388   4.963   4.629  11.521 -0.2999  0.0507 -0.4914
12658TIP3    H159389   4.910   4.707  11.507  0.9051  0.7922 -1.1561
12658TIP3    H259390   5.039   4.641  11.463  1.5096 -0.0717  1.7056
12659TIP3   OH259391   0.658   5.235   3.133  0.5882  0.3318 -0.3902
12659TIP3    H159392   0.615   5.317   3.156  0.8475  0.5140 -0.5517
12659TIP3    H259393   0.588   5.170   3.133  0.7554  0.0100  2.3809
12660TIP3   OH259394   3.357   3.609  14.200 -0.1769 -1.3158 -0.1033
12660TIP3    H159395   3.335   3.678  14.137  0.5944 -0.2088  0.8097
12660TIP3    H259396   3.283   3.549  14.196 -1.0273 -0.2686 -0.6726
12661TIP3   OH259397   3.726   3.340   0.518  0.2864 -0.1713 -0.9950
12661TIP3    H159398   3.631   3.350   0.510  0.0384 -1.4241 -0.0972
12661TIP3    H259399   3.752   3.291   0.441 -0.0243 -0.9519 -0.6204
12662TIP3   OH259400   6.584   0.724  12.266 -0.4337 -0.0153 -0.0307
12662TIP3    H159401   6.575   0.814  12.296 -2.1588  0.0852 -0.7283
12662TIP3    H259402   6.647   0.729  12.193 -0.6541  0.6457 -0.1798
12663TIP3   OH259403   4.682   2.438   3.057 -0.2696  0.6278 -0.0915
12663TIP3    H159404   4.650   2.433   3.147 -0.4491  1.4268 -0.1073
12663TIP3    H259405   4.778   2.440   3.067 -0.1026 -2.3862 -0.0728
12664TIP3   OH259406   5.569   6.385   2.749  0.3779  0.3040 -0.1914
12664TIP3    H159407   5.493   6.401   2.804  0.1558 -2.8435  0.5900
12664TIP3    H259408   5.557   6.296   2.716  3.6157 -0.2679 -0.1705
12665TIP3   OH259409   2.856   2.031  13.447  0.4834 -0.9428 -0.5935
12665TIP3    H159410   2.775   2.075  13.475 -0.1419 -2.2731 -0.2550
12665TIP3    H259411   2.826   1.955  13.398  1.5536 -1.1302 -0.9855
12666TIP3   OH259412   4.589   6.116  16.339  0.1882  0.8041  0.0348
12666TIP3    H159413   4.540   6.138  16.418 -0.2656  1.5458 -0.4437
12666TIP3    H259414   4.665   6.174  16.340  0.4972  0.4041  0.2190
12667TIP3   OH259415   0.145   5.595   0.972 -0.6054  0.0324  0.6141
12667TIP3    H159416   0.167   5.502   0.976 -2.5463 -0.4257  2.7873
12667TIP3    H259417   0.112   5.608   0.883  1.5954 -0.8128 -0.4049
12668TIP3   OH259418   4.576   5.646   5.362  0.0918 -0.9728 -0.3830
12668TIP3    H159419   4.597   5.687   5.446 -0.3677 -0.1383 -0.6683
12668TIP3    H259420   4.554   5.718   5.305 -1.9984 -1.6909 -0.5560
12669TIP3   OH259421   2.630   4.475  10.742  0.5617 -0.2262  0.5231
12669TIP3    H159422   2.634   4.471  10.837 -0.8521 -0.7146  0.5863
12669TIP3    H259423   2.627   4.383  10.714  0.3016 -0.0857  0.0625
12670TIP3   OH259424   5.898   0.557  13.441 -0.0166 -0.2514 -0.7959
12670TIP3    H159425   5.861   0.632  13.488  3.1780 -1.0457  3.6183
12670TIP3    H259426   5.978   0.590  13.400  0.4169 -0.8337 -0.4348
12671TIP3   OH259427   1.908   0.779  15.613 -0.0418  0.2356  0.2484
12671TIP3    H159428   1.826   0.754  15.656 -0.1274  0.8084  0.4162
12671TIP3    H259429   1.923   0.870  15.639  0.1462  0.4425 -0.5577
12672TIP3   OH259430   4.416   0.686   3.450  0.0590  0.0621 -0.5507
12672TIP3    H159431   4.321   0.700   3.444 -0.0242 -0.4788 -0.4685
12672TIP3    H259432   4.453   0.754   3.393 -0.3010  1.2978  0.6174
12673TIP3   OH259433   4.339   0.012  13.378 -0.1463 -0.6596 -0.2363
12673TIP3    H159434   4.259  -0.032  13.348 -1.2583 -0.3682  2.1039
12673TIP3    H259435   4.360  -0.029  13.461  1.0477  0.5849  0.1110
12674TIP3   OH259436   1.132   3.204  13.850 -0.0198 -0.6261  0.5054
12674TIP3    H159437   1.107   3.242  13.766 -0.3460 -0.6541  0.5878
12674TIP3    H259438   1.214   3.248  13.873  0.5897 -1.3102 -0.2901
12675TIP3   OH259439   3.134   0.684   1.400  0.1120  0.2174 -0.0147
12675TIP3    H159440   3.145   0.748   1.329  2.6285  0.0908  0.1644
12675TIP3    H259441   3.148   0.599   1.358 -3.8821 -0.4493 -0.3939
12676TIP3   OH259442   3.235   3.039  15.879  0.0942  0.2996 -0.2647
12676TIP3    H159443   3.247   3.011  15.969  2.8591  0.7221 -0.4296
12676TIP3    H259444   3.172   3.111  15.884 -0.9643 -0.6761  1.0951
12677TIP3   OH259445   4.286   1.171  14.890 -0.3692 -0.8087  0.3888
12677TIP3    H159446   4.313   1.182  14.799 -0.3489  1.9136  0.6571
12677TIP3    H259447   4.192   1.187  14.889 -0.1355  0.7590  1.0213
12678TIP3   OH259448   2.880   1.589   3.744  0.3853  0.4572 -0.1977
12678TIP3    H159449   2.893   1.499   3.775 -1.3129  0.6567  1.1970
12678TIP3    H259450   2.959   1.635   3.770  0.9611 -0.4441 -0.2852
12679TIP3   OH259451   4.427   0.307   5.632 -0.3814 -0.2363  0.1811
12679TIP3    H159452   4.455   0.396   5.610  2.4191 -0.7070  1.3945
12679TIP3    H259453   4.354   0.319   5.693  1.1321  1.3462  1.8031
12680TIP3   OH259454   0.034   1.951   4.544 -0.2854 -0.0586 -0.0124
12680TIP3    H159455   0.111   1.903   4.575 -0.1942  0.0636 -0.0495
12680TIP3    H259456   0.067   2.008   4.474 -0.1054  1.1028  0.9721
12681TIP3   OH259457   3.832   3.386  14.969  0.0761  0.1611  0.1698
12681TIP3    H159458   3.920   3.348  14.968  0.0811  0.0007  2.3022
12681TIP3    H259459   3.789   3.345  15.045 -1.6655  0.6290 -0.5130
12682TIP3   OH259460   4.943   4.334   3.872  0.6965  0.0177 -0.2497
12682TIP3    H159461   4.942   4.384   3.954  2.3285  1.0771 -0.8230
12682TIP3    H259462   4.961   4.399   3.805 -2.7030 -0.4298 -1.8333
12683TIP3   OH259463   3.815   0.070  11.461 -0.1648  0.0150  0.1435
12683TIP3    H159464   3.760   0.039  11.389 -0.8130  0.5264  0.4117
12683TIP3    H259465   3.762   0.058  11.539  0.6532 -0.8166  0.5795
12684TIP3   OH259466   5.243   4.634  15.189  0.3667  0.1208  0.0977
12684TIP3    H159467   5.266   4.726  15.195 -0.4929  0.7489 -3.7945
12684TIP3    H259468   5.183   4.619  15.263  0.3460  2.7054  0.6828
12685TIP3   OH259469   6.240   4.442   3.568 -0.4568  0.0447  0.3420
12685TIP3    H159470   6.284   4.517   3.528 -0.4866 -0.6273 -1.0383
12685TIP3    H259471   6.183   4.479   3.636  0.2972  1.1554  0.3748
12686TIP3   OH259472   1.959   1.768  15.402 -0.1281  0.2228 -0.8067
12686TIP3    H159473   1.938   1.814  15.321  0.2926 -0.1000 -1.1022
12686TIP3    H259474   1.960   1.836  15.469 -0.7867  0.4478 -1.0153
12687TIP3   OH259475   6.439   1.295   0.534  0.1922  0.5927 -0.9216
12687TIP3    H159476   6.501   1.308   0.605 -1.2639  2.1400  0.1175
12687TIP3    H259477   6.448   1.202   0.512  1.1025  0.2104  0.8694
12688TIP3   OH259478   2.315   3.487  14.056  0.6951 -0.5469 -0.1430
12688TIP3    H159479   2.273   3.546  13.994  1.1321  0.5429  0.5715
12688TIP3    H259480   2.251   3.476  14.126  1.0439  0.0078  0.2739
12689TIP3   OH259481   1.997   5.565   6.407  0.3263  0.2160  0.6160
12689TIP3    H159482   2.060   5.577   6.337 -0.7303  1.1207 -0.2088
12689TIP3    H259483   1.915   5.543   6.363 -0.6811  2.1073  1.4390
12690TIP3   OH259484   5.031   5.280   6.848  0.2469 -0.0286 -0.1395
12690TIP3    H159485   4.989   5.363   6.868  0.0592  0.5368 -2.5836
12690TIP3    H259486   5.018   5.227   6.926 -2.6196  1.0708  0.2430
12691TIP3   OH259487   0.615   5.300   2.060  0.2266  0.8802 -0.0003
12691TIP3    H159488   0.681   5.309   1.991 -1.3975 -0.7000 -1.8424
12691TIP3    H259489   0.534   5.331   2.020 -0.4347  1.7330  1.8672
12692TIP3   OH259490   6.563   5.132  13.425  0.0038 -0.6282 -0.1266
12692TIP3    H159491   6.608   5.059  13.382  1.8478  0.2868  0.1719
12692TIP3    H259492   6.628   5.169  13.484 -1.6512 -0.2146  1.5365
12693TIP3   OH259493   6.426   2.389   0.193 -0.1054 -0.1412 -0.4340
12693TIP3    H159494   6.384   2.308   0.164  1.7992 -0.6005 -2.1730
12693TIP3    H259495   6.429   2.382   0.289  0.5335 -2.4480 -0.5614
12694TIP3   OH259496   2.242   4.397  15.588 -0.3642 -0.1030  0.5059
12694TIP3    H159497   2.216   4.440  15.670 -0.0991  0.1279  0.4719
12694TIP3    H259498   2.338   4.396  15.591 -0.3574 -0.2873  0.2958
12695TIP3   OH259499   5.069   4.516   5.259  0.1219 -0.2403 -0.0348
12695TIP3    H159500   5.042   4.591   5.207  1.2404 -1.7444 -3.0502
12695TIP3    H259501   5.162   4.529   5.274 -0.0820 -0.0868  1.2187
12696TIP3   OH259502   3.131   5.320  15.368 -0.5736 -0.0586  0.3966
12696TIP3    H159503   3.127   5.264  15.445  0.2834  1.7370  1.8244
12696TIP3    H259504   3.080   5.398  15.392 -0.5875  0.3946 -0.9970
12697TIP3   OH259505   2.175   2.797   0.990 -0.0535 -0.1084  0.4394
12697TIP3    H159506   2.135   2.746   1.060  0.2827  1.5655  1.8986
12697TIP3    H259507   2.269   2.793   1.009  0.4203 -2.2679 -1.7745
12698TIP3   OH259508   4.801   1.658  12.329  0.0105  0.6350 -0.1534
12698TIP3    H159509   4.795   1.749  12.359 -2.0504  0.4389  0.1913
12698TIP3    H259510   4.883   1.626  12.366 -0.5497  1.5801  2.0804
12699TIP3   OH259511   1.313   2.428   4.432  0.2920 -0.4770 -0.1555
12699TIP3    H159512   1.242   2.449   4.370 -0.3621 -1.1864  0.3316
12699TIP3    H259513   1.295   2.484   4.508  1.6575  1.1197 -0.9563
12700TIP3   OH259514   3.225   1.408  17.028 -0.7622  0.1845 -0.1418
12700TIP3    H159515   3.164   1.456  17.084 -1.0668 -1.1061  0.6827
12700TIP3    H259516   3.287   1.474  16.998 -1.1023  1.0728  1.0340
12701TIP3   OH259517   2.158   4.727  14.094  0.3783  0.2033 -0.0692
12701TIP3    H159518   2.163   4.766  14.007  0.9491  0.8270  0.2305
12701TIP3    H259519   2.209   4.647  14.087 -2.0755 -1.3915 -1.1126
12702TIP3   OH259520   3.184   3.440  11.271  0.0687 -0.4124  1.1195
12702TIP3    H159521   3.276   3.464  11.275  0.0159  0.4095 -1.0317
12702TIP3    H259522   3.184   3.345  11.256  0.5369 -0.4388  1.2730
12703TIP3   OH259523   5.403   3.857  16.582 -0.0653 -0.6774 -0.1415
12703TIP3    H159524   5.487   3.888  16.550  0.5216  0.9485  2.6484
12703TIP3    H259525   5.345   3.933  16.575 -1.1238 -1.5626 -1.3308
12704TIP3   OH259526   1.879   4.180   1.342 -0.2407 -0.7953 -0.3751
12704TIP3    H159527   1.823   4.122   1.393 -0.6534  0.5372  0.7491
12704TIP3    H259528   1.852   4.167   1.252 -3.0728  0.4684  0.1848
12705TIP3   OH259529   1.393   5.126  17.020  0.0800  0.2428 -0.6203
12705TIP3    H159530   1.435   5.138  17.105 -3.1585 -0.8798  1.3192
12705TIP3    H259531   1.365   5.214  16.994  1.1001  0.5912 -0.5914
12706TIP3   OH259532   2.326   1.077   4.072  0.1870 -0.0986 -0.2564
12706TIP3    H159533   2.349   1.147   4.010 -0.9395 -2.5847 -3.8036
12706TIP3    H259534   2.377   1.002   4.042 -1.8038 -1.9052  0.6812
12707TIP3   OH259535   6.465   3.451  14.997  0.1506 -0.4619  0.0453
12707TIP3    H159536   6.507   3.504  15.065  0.3313 -2.0300  1.2124
12707TIP3    H259537   6.391   3.410  15.041 -1.0172  0.1388 -1.2918
12708TIP3   OH259538   1.589   2.561  13.275  0.5800  0.0832  0.0397
12708TIP3    H159539   1.574   2.467  13.264  0.3771 -0.2986  2.8504
12708TIP3    H259540   1.655   2.566  13.345  1.2768  2.0276 -0.7107
12709TIP3   OH259541   1.994   6.052   6.127 -0.0046 -0.0093  0.3994
12709TIP3    H159542   2.047   6.011   6.058  1.2149  0.1818  1.1900
12709TIP3    H259543   1.936   6.112   6.079  0.8844  0.1920 -0.4611
12710TIP3   OH259544   6.031   1.371  16.008  0.1521 -0.3849  0.6469
12710TIP3    H159545   6.039   1.446  16.066  1.1665 -0.6846  0.9221
12710TIP3    H259546   5.952   1.388  15.957 -0.3239  0.2593  1.5661
12711TIP3   OH259547   5.987   0.567  13.808  0.3236  0.7267 -0.4311
12711TIP3    H159548   6.026   0.650  13.781  1.0921  1.2289  2.0119
12711TIP3    H259549   6.047   0.501  13.774  0.8390  1.2783 -0.6135
12712TIP3   OH259550   3.863   4.653  13.911  0.3896 -0.2891  0.7208
12712TIP3    H159551   3.953   4.620  13.916  0.8576  0.5305 -1.3900
12712TIP3    H259552   3.843   4.655  13.817 -0.7221  2.4245  0.9337
12713TIP3   OH259553   4.136   2.510   1.146  0.0818  0.3506  0.0885
12713TIP3    H159554   4.199   2.438   1.147  0.9807  1.1105  0.1131
12713TIP3    H259555   4.186   2.586   1.177 -1.1983  0.7085  1.4380
12714TIP3   OH259556   5.204   2.184   3.081 -0.5916 -0.0266  0.3938
12714TIP3    H159557   5.225   2.095   3.107  0.5248 -0.0680 -0.5458
12714TIP3    H259558   5.167   2.176   2.993 -1.4583  0.3579  0.7130
12715TIP3   OH259559   3.695   1.824  16.440  0.4105 -0.1502  0.3434
12715TIP3    H159560   3.642   1.822  16.359 -1.4068  1.9549  1.3570
12715TIP3    H259561   3.672   1.743  16.485 -0.9825  0.0992  0.1416
12716TIP3   OH259562   6.181   3.702   5.635  0.1354 -0.2988 -0.3718
12716TIP3    H159563   6.191   3.617   5.592 -1.4586 -0.6436 -0.1179
12716TIP3    H259564   6.089   3.725   5.621 -0.2984 -0.1236  2.2432
12717TIP3   OH259565   1.532   0.788   3.022 -0.1092 -0.3290  0.1928
12717TIP3    H159566   1.608   0.774   2.966  0.3288  0.9312  0.4394
12717TIP3    H259567   1.534   0.882   3.041 -1.2113 -0.4471  0.9436
12718TIP3   OH259568   2.386   5.177   6.425  0.2241 -0.1661 -0.5182
12718TIP3    H159569   2.353   5.228   6.498 -0.0055 -0.9912 -0.0352
12718TIP3    H259570   2.461   5.227   6.392  0.8636 -0.2087  0.8149
12719TIP3   OH259571   5.247   2.133  13.036 -0.2419  0.4612 -0.5222
12719TIP3    H159572   5.209   2.219  13.054  0.7848  0.7579  0.3546
12719TIP3    H259573   5.330   2.153  12.991 -0.5799 -0.1276 -1.4380
12720TIP3   OH259574   6.194   5.596   4.853 -0.6013  0.1337  0.0504
12720TIP3    H159575   6.270   5.609   4.795 -0.1129  0.6121  0.7821
12720TIP3    H259576   6.229   5.611   4.941 -1.6642  0.8620  0.3560
12721TIP3   OH259577   5.279   2.472   5.974  0.2482 -0.1332 -0.0841
12721TIP3    H159578   5.343   2.401   5.969  1.4465  0.6660  2.5179
12721TIP3    H259579   5.299   2.527   5.898  2.0053 -0.4318  0.1245
12722TIP3   OH259580   6.532   5.291  16.540  0.2229 -0.1590  0.0731
12722TIP3    H159581   6.626   5.299  16.560  0.0228  1.1628  0.6027
12722TIP3    H259582   6.491   5.274  16.625  0.0324 -1.5282 -0.2660
12723TIP3   OH259583   4.386   2.394   4.414 -0.2322 -0.3995  0.3898
12723TIP3    H159584   4.297   2.385   4.450 -0.2179  0.0345  0.5379
12723TIP3    H259585   4.429   2.312   4.436 -1.0544 -1.2202 -0.9673
12724TIP3   OH259586   2.075   5.785   3.992  0.1946  0.4522  0.1201
12724TIP3    H159587   1.996   5.764   3.942  0.1728  1.4191 -0.2724
12724TIP3    H259588   2.102   5.870   3.960  1.2332  0.2749  0.4716
12725TIP3   OH259589   1.838   2.787  12.819  0.1485 -0.0885  0.1750
12725TIP3    H159590   1.802   2.718  12.763  0.1886 -0.3275  0.4396
12725TIP3    H259591   1.839   2.865  12.764  0.1378 -0.3099 -0.1417
12726TIP3   OH259592   1.812   2.684  11.472 -0.2742  0.1471 -0.1322
12726TIP3    H159593   1.841   2.747  11.406 -0.9917  0.4635 -0.1568
12726TIP3    H259594   1.873   2.611  11.464  0.5547  0.8292 -0.1198
12727TIP3   OH259595   0.714   6.542  16.066  0.1670  0.0513 -0.1303
12727TIP3    H159596   0.645   6.478  16.085 -0.6000  0.8992  0.0034
12727TIP3    H259597   0.696   6.615  16.126  0.6365  0.6713 -0.7290
12728TIP3   OH259598   3.250   1.426   4.913 -0.1310  0.6060  0.3645
12728TIP3    H159599   3.203   1.464   4.840 -0.6527 -0.5642  0.0586
12728TIP3    H259600   3.196   1.444   4.989  0.2660  1.5694  0.4263
12729TIP3   OH259601   0.330   2.200   0.499 -0.0884 -0.1386 -0.2661
12729TIP3    H159602   0.282   2.270   0.544 -0.6283 -1.3373  1.1032
12729TIP3    H259603   0.264   2.131   0.487  1.1083 -1.5712  1.0741
12730TIP3   OH259604   3.106   5.474   0.727 -0.2658 -0.6169  0.1681
12730TIP3    H159605   3.024   5.479   0.777  0.9119  4.2166  2.1533
12730TIP3    H259606   3.094   5.536   0.656  1.3946 -0.4888 -0.0156
12731TIP3   OH259607   4.443   5.109  14.642  0.1995  0.2501 -0.2309
12731TIP3    H159608   4.470   5.157  14.564 -1.2813  0.1369 -0.8601
12731TIP3    H259609   4.349   5.126  14.648 -0.1534 -1.6771  0.1546
12732TIP3   OH259610   0.684   0.516   0.464 -0.0199  0.1262 -0.9979
12732TIP3    H159611   0.655   0.600   0.499 -0.9555 -0.6641  0.2216
12732TIP3    H259612   0.669   0.523   0.370 -1.7477  0.7291 -0.7268
12733TIP3   OH259613   5.333   6.425  14.885 -0.2544  0.2638 -0.3608
12733TIP3    H159614   5.419   6.465  14.882 -0.2356  0.4867  1.7978
12733TIP3    H259615   5.346   6.336  14.853  0.4060  0.8278 -1.7122
12734TIP3   OH259616   2.053   0.091  15.953  0.5419  0.4654  0.1391
12734TIP3    H159617   1.987   0.066  16.018  1.7552 -1.9618  0.5121
12734TIP3    H259618   2.005   0.148  15.893 -1.7348 -0.6479  0.7728
12735TIP3   OH259619   4.804   1.853   2.657 -0.3601 -0.5667  0.2091
12735TIP3    H159620   4.864   1.925   2.636  0.3277 -0.7185  1.5167
12735TIP3    H259621   4.858   1.775   2.653 -0.7865 -0.8617  0.1368
12736TIP3   OH259622   6.498   3.749  11.633  0.3617  0.0226 -0.3207
12736TIP3    H159623   6.449   3.785  11.707 -0.2444  1.5826 -1.4177
12736TIP3    H259624   6.463   3.660  11.622  0.9661 -0.5083  1.6556
12737TIP3   OH259625   0.193   3.191   0.579  0.0156  0.1253  0.5346
12737TIP3    H159626   0.181   3.215   0.671  1.5562 -0.6335  0.9767
12737TIP3    H259627   0.283   3.158   0.575  0.4093  1.2639 -1.4931
12738TIP3   OH259628   2.164   1.485   0.672 -1.0575  0.5520  0.0152
12738TIP3    H159629   2.128   1.433   0.600 -0.9412  0.0153  0.3351
12738TIP3    H259630   2.138   1.437   0.751 -1.0812  1.0688  0.3263
12739TIP3   OH259631   4.501   6.107  13.085  0.1678 -0.1837  0.1765
12739TIP3    H159632   4.423   6.080  13.037 -1.2259  1.1745  1.5683
12739TIP3    H259633   4.548   6.163  13.024  0.2018 -1.2021 -0.7627
12740TIP3   OH259634   1.396   0.708   6.611  0.1871  0.7082  0.3012
12740TIP3    H159635   1.340   0.637   6.644  0.1952  1.1110  1.2174
12740TIP3    H259636   1.335   0.777   6.586  0.1735  0.3534 -0.6972
12741TIP3   OH259637   1.762   1.296   3.074 -0.0415  0.0860  0.3337
12741TIP3    H159638   1.831   1.325   3.133  0.3153 -1.1229  0.5541
12741TIP3    H259639   1.806   1.283   2.990  0.0320 -0.7153  0.4820
12742TIP3   OH259640   2.202   3.333   0.470 -0.5530  0.2031  0.8531
12742TIP3    H159641   2.194   3.237   0.472 -0.7648  0.2184  0.8082
12742TIP3    H259642   2.112   3.364   0.456 -0.3851  0.3799  0.1364
12743TIP3   OH259643   1.809   5.635   3.501  0.0209 -0.5433 -0.1035
12743TIP3    H159644   1.812   5.730   3.497  0.2694 -0.5507 -0.1293
12743TIP3    H259645   1.882   5.611   3.558 -0.4168 -0.6880  0.4005
12744TIP3   OH259646   5.492   4.372   6.098  0.2212  0.8358  0.4146
12744TIP3    H159647   5.572   4.338   6.139  3.1290  1.6862 -3.8751
12744TIP3    H259648   5.467   4.447   6.153  1.6313 -0.1837  2.5692
12745TIP3   OH259649   4.356   1.793   5.150  0.2034 -0.5664  0.2246
12745TIP3    H159650   4.391   1.879   5.126  0.5678 -0.3130  1.5686
12745TIP3    H259651   4.393   1.734   5.085  0.9653  0.1140  0.0192
12746TIP3   OH259652   5.141   2.222   5.461 -0.5397 -0.0383 -0.2378
12746TIP3    H159653   5.225   2.180   5.439 -0.4765  1.3429 -2.9926
12746TIP3    H259654   5.075   2.163   5.424 -0.7915 -0.7182  1.2337
12747TIP3   OH259655   6.392   1.797  14.481  0.1064  0.0089 -0.5469
12747TIP3    H159656   6.471   1.773  14.432 -0.5118  0.0419 -1.5812
12747TIP3    H259657   6.330   1.727  14.462 -0.6438  0.7933 -1.0416
12748TIP3   OH259658   2.791   0.356   4.321 -0.0770  0.0657  0.2241
12748TIP3    H159659   2.807   0.366   4.227 -0.4957  1.0346  0.2375
12748TIP3    H259660   2.771   0.263   4.333 -0.4189  0.0088 -0.7169
12749TIP3   OH259661   0.561   2.116  16.884 -0.5629 -0.4608 -0.0663
12749TIP3    H159662   0.468   2.120  16.864 -0.6428 -1.6472 -0.0026
12749TIP3    H259663   0.565   2.082  16.973 -0.0763 -0.3614 -0.0493
12750TIP3   OH259664   0.215   1.997   5.224  0.3306 -0.0100  0.0451
12750TIP3    H159665   0.173   1.923   5.269  0.5891 -0.6176 -0.6788
12750TIP3    H259666   0.236   1.962   5.137 -0.9139  1.3787 -0.8674
12751TIP3   OH259667   0.943   6.668   0.357 -0.1692  0.1726 -0.0479
12751TIP3    H159668   0.958   6.632   0.270 -0.1009 -0.1050  0.0769
12751TIP3    H259669   0.976   6.601   0.417  1.1867  1.0054  0.1816
12752TIP3   OH259670   1.847   4.199   3.590 -0.3223  0.2905 -0.1390
12752TIP3    H159671   1.911   4.139   3.629 -1.5279 -1.5060 -0.7999
12752TIP3    H259672   1.845   4.176   3.497 -1.9777  0.2304 -0.1269
12753TIP3   OH259673   0.570   4.645   6.012 -0.5921  0.6335  0.3065
12753TIP3    H159674   0.519   4.692   5.946 -1.4009 -2.9732 -1.9498
12753TIP3    H259675   0.511   4.640   6.087 -1.3855  1.2267 -0.2487
12754TIP3   OH259676   0.229   2.465  12.283 -0.6823 -0.3872  0.3650
12754TIP3    H159677   0.149   2.467  12.232 -0.0296 -0.0414 -0.6679
12754TIP3    H259678   0.226   2.545  12.336 -0.2406  0.5096 -0.9215
12755TIP3   OH259679   3.999   3.883  15.748  0.2399 -0.0568 -0.2870
12755TIP3    H159680   4.033   3.859  15.834  1.5975 -0.4913 -0.9225
12755TIP3    H259681   3.909   3.910  15.765 -0.2234 -2.1833  0.9698
12756TIP3   OH259682   2.835   2.141  11.273 -0.6964  0.3804 -0.0196
12756TIP3    H159683   2.868   2.225  11.241 -1.5845  0.9978  0.6266
12756TIP3    H259684   2.772   2.112  11.206  1.0857 -0.8118 -1.2673
12757TIP3   OH259685   1.739   4.362  13.725  0.0405  0.2305  0.3873
12757TIP3    H159686   1.738   4.442  13.673  0.4652 -0.0242 -0.0236
12757TIP3    H259687   1.832   4.346  13.741 -0.0259 -0.3259  0.2335
12758TIP3   OH259688   6.373   0.882   1.210 -0.5557  0.2987  1.0041
12758TIP3    H159689   6.299   0.926   1.168  0.1668  0.8175  0.2380
12758TIP3    H259690   6.351   0.789   1.205 -0.3070  0.3050 -0.9481
12759TIP3   OH259691   2.901   4.713   3.405 -0.4011 -0.7187  0.3534
12759TIP3    H159692   2.948   4.647   3.355 -2.1489 -1.7276 -0.0564
12759TIP3    H259693   2.956   4.728   3.482  1.7555 -0.0038 -1.2250
12760TIP3   OH259694   2.719   3.899  15.216 -0.1236 -0.3099  0.1980
12760TIP3    H159695   2.632   3.932  15.192 -0.1086 -0.9282 -0.7919
12760TIP3    H259696   2.715   3.806  15.196  0.0881 -0.7793  2.2159
12761TIP3   OH259697   5.071   2.133   2.392 -0.1241  0.2897  0.0200
12761TIP3    H159698   5.003   2.177   2.341 -1.5109 -1.2707  0.4540
12761TIP3    H259699   5.153   2.174   2.363 -0.9583  0.2311 -2.6273
12762TIP3   OH259700   0.538   6.568   0.821  0.1253 -0.5722  0.2054
12762TIP3    H159701   0.628   6.576   0.790  0.1620 -0.0646  0.4343
12762TIP3    H259702   0.497   6.506   0.760  0.5424 -0.5625 -0.0876
12763TIP3   OH259703   2.714   5.877   0.362  0.0879  0.0517  0.5252
12763TIP3    H159704   2.645   5.891   0.426  0.9605  0.0637  1.4848
12763TIP3    H259705   2.775   5.817   0.405 -0.3914 -1.7129 -1.1070
12764TIP3   OH259706   6.650   3.511   1.718 -0.1636 -0.5771 -0.7848
12764TIP3    H159707   6.701   3.584   1.683  1.0128  0.3307  2.4280
12764TIP3    H259708   6.575   3.503   1.659  0.3771  2.3349 -2.0400
12765TIP3   OH259709   3.838   5.989   5.490 -0.1686  0.2079 -0.1631
12765TIP3    H159710   3.808   6.035   5.568 -0.7714  0.4187 -0.5177
12765TIP3    H259711   3.758   5.957   5.448  0.2034 -0.6644 -0.2341
12766TIP3   OH259712   2.940   5.137   0.131  0.0348 -0.4537 -0.1084
12766TIP3    H159713   2.900   5.223   0.142 -1.2539 -1.1944  1.2823
12766TIP3    H259714   2.877   5.076   0.169  0.2616 -2.1844 -2.3057
12767TIP3   OH259715   2.454   5.015  12.941  0.7187  0.3159  0.0328
12767TIP3    H159716   2.453   4.925  12.911  0.2689  0.2443  0.2524
12767TIP3    H259717   2.546   5.041  12.937  0.8291 -0.1020 -0.1698
12768TIP3   OH259718   5.856   0.754   1.922  0.6047 -0.4434 -0.3374
12768TIP3    H159719   5.806   0.688   1.872 -0.7518  0.1918  0.1197
12768TIP3    H259720   5.802   0.833   1.917  2.6446  0.9565 -1.6653
12769TIP3   OH259721   6.007   5.418   2.140  0.0691  0.5171  0.5533
12769TIP3    H159722   6.101   5.433   2.145 -0.0537  0.9279  1.9955
12769TIP3    H259723   5.997   5.358   2.066  1.2138  2.2884 -1.1264
12770TIP3   OH259724   2.043   2.405  15.772  0.4002 -0.2541 -0.2515
12770TIP3    H159725   2.120   2.422  15.717 -0.2576  1.5644 -0.6668
12770TIP3    H259726   2.006   2.491  15.789  0.1603 -0.8009  2.5119
12771TIP3   OH259727   0.206   0.417   5.680  0.6958  0.8505  0.0826
12771TIP3    H159728   0.177   0.432   5.590 -1.3427 -0.1338  0.5200
12771TIP3    H259729   0.266   0.342   5.672 -0.3954 -0.0132 -0.3541
12772TIP3   OH259730   4.545   5.618   3.696 -0.3083 -0.5237 -0.0678
12772TIP3    H159731   4.451   5.597   3.690 -0.0802 -1.2313 -1.3820
12772TIP3    H259732   4.566   5.602   3.788 -0.9821 -2.6320 -0.2156
12773TIP3   OH259733   1.799   1.114   3.689  0.0902  0.7469 -0.7012
12773TIP3    H159734   1.886   1.108   3.728  0.4600 -0.8183 -1.6686
12773TIP3    H259735   1.748   1.164   3.752  1.6927  1.7356 -0.1322
12774TIP3   OH259736   6.194   0.096  16.656 -0.3445 -0.5975 -0.6365
12774TIP3    H159737   6.162   0.007  16.644 -1.6623 -0.3300  0.6099
12774TIP3    H259738   6.126   0.140  16.708  0.8535  0.7692 -0.1314
12775TIP3   OH259739   6.653   3.759   0.241  0.2769  0.2245 -0.1502
12775TIP3    H159740   6.698   3.830   0.195 -2.9743  2.3899 -0.3430
12775TIP3    H259741   6.645   3.791   0.331 -0.5422 -0.2330 -0.0507
12776TIP3   OH259742   6.466   5.443   2.348 -0.2161 -0.6760  0.1725
12776TIP3    H159743   6.471   5.348   2.356  0.9243 -0.6824 -0.3930
12776TIP3    H259744   6.434   5.473   2.433 -1.9270 -1.6451 -0.0905
12777TIP3   OH259745   3.103   1.390  11.225 -0.5532 -0.5568 -0.6541
12777TIP3    H159746   3.176   1.410  11.167  0.0664  0.1581  0.3333
12777TIP3    H259747   3.059   1.474  11.239 -0.9878 -0.8071 -0.4860
12778TIP3   OH259748   4.087   6.780  15.843  0.1685 -0.0420  0.1046
12778TIP3    H159749   4.155   6.779  15.776 -1.1987  0.6063 -1.3681
12778TIP3    H259750   4.017   6.834  15.806 -1.4246 -1.1978  1.2699
12779TIP3   OH259751   1.476   0.578  13.114  0.2500 -0.2782  0.6331
12779TIP3    H159752   1.558   0.624  13.095  0.3058 -0.8377 -0.5478
12779TIP3    H259753   1.499   0.513  13.180  0.6151 -0.0228  0.7592
12780TIP3   OH259754   3.442   1.707  11.505  0.1076 -0.7884  0.4370
12780TIP3    H159755   3.348   1.716  11.490  0.1592  0.0495  0.6127
12780TIP3    H259756   3.467   1.630  11.453  0.0210  1.1417 -2.6951
12781TIP3   OH259757   3.919   5.234  17.204 -0.0792 -0.4493 -0.1479
12781TIP3    H159758   3.891   5.313  17.250  1.0777 -1.1199  1.8375
12781TIP3    H259759   4.009   5.253  17.177 -0.5200 -0.3203 -1.6218
12782TIP3   OH259760   4.706   2.349  17.014  0.2768 -0.2161  0.1225
12782TIP3    H159761   4.720   2.318  16.925  0.5919  3.6102 -1.3628
12782TIP3    H259762   4.793   2.348  17.054  0.2278 -1.4021  0.2281
12783TIP3   OH259763   1.200   4.131   4.505 -1.0752  0.1628  0.1905
12783TIP3    H159764   1.179   4.224   4.517  0.0093  0.3953  0.3432
12783TIP3    H259765   1.127   4.085   4.546 -0.4187  0.9451  2.3955
12784TIP3   OH259766   0.936   4.388   6.206 -0.3794 -0.3355  0.2261
12784TIP3    H159767   0.863   4.341   6.246 -1.0658  1.5613  1.3464
12784TIP3    H259768   0.967   4.447   6.275  0.8941  0.3350 -0.8776
12785TIP3   OH259769   3.670   2.577  15.370  0.5199  0.1928  0.5616
12785TIP3    H159770   3.597   2.556  15.429  0.5810 -0.7384  0.3312
12785TIP3    H259771   3.747   2.578  15.426  0.8454 -2.4567  0.2900
12786TIP3   OH259772   3.170   2.469   5.636 -0.4251  0.6138  0.3400
12786TIP3    H159773   3.253   2.516   5.627  0.3762 -0.8526 -0.3239
12786TIP3    H259774   3.155   2.464   5.730  1.4364 -1.0242  0.6229
12787TIP3   OH259775   2.785   4.402  12.407 -0.2437  0.6423 -0.0856
12787TIP3    H159776   2.737   4.322  12.387 -0.4393  0.7671 -0.1148
12787TIP3    H259777   2.877   4.377  12.399 -0.2279 -0.1239  1.9088
12788TIP3   OH259778   5.625   1.470  10.769  0.1274  0.0256 -0.8986
12788TIP3    H159779   5.603   1.410  10.841  0.6579  0.8188 -0.0587
12788TIP3    H259780   5.599   1.422  10.690 -1.4964 -0.4395 -0.1426
12789TIP3   OH259781   2.111   5.441  16.121 -0.1594 -0.0669 -0.2348
12789TIP3    H159782   2.069   5.448  16.207 -0.2103 -1.3052 -0.1376
12789TIP3    H259783   2.187   5.498  16.127 -1.0716  1.1768  0.0396
12790TIP3   OH259784   2.552   6.569  13.570  0.1211 -0.6585  0.0734
12790TIP3    H159785   2.628   6.619  13.541 -0.3268 -0.7800 -1.4260
12790TIP3    H259786   2.561   6.484  13.526 -1.4398 -0.2741 -1.0992
12791TIP3   OH259787   3.099   0.408  12.289 -0.0638  0.1450 -0.0327
12791TIP3    H159788   3.119   0.435  12.378 -0.6759 -1.0074  0.4662
12791TIP3    H259789   3.184   0.386  12.251  0.0466 -0.9344  0.8013
12792TIP3   OH259790   1.867   0.118   4.327 -0.3621  0.0350  0.0826
12792TIP3    H159791   1.773   0.136   4.322 -0.5333 -1.1347 -1.5126
12792TIP3    H259792   1.878   0.035   4.282  0.9606 -1.8136  3.4430
12793TIP3   OH259793   2.517   1.660   5.729 -0.0265  0.4751 -0.8592
12793TIP3    H159794   2.467   1.729   5.774 -1.0411 -0.5093 -0.4127
12793TIP3    H259795   2.592   1.645   5.786  0.2527  1.2713 -1.0068
12794TIP3   OH259796   2.877   3.990  11.303  0.4347 -0.4118 -0.4799
12794TIP3    H159797   2.880   4.084  11.284 -1.4784 -0.3715 -0.8277
12794TIP3    H259798   2.937   3.978  11.376 -0.8074  1.4645  0.9581
12795TIP3   OH259799   2.665   0.633   3.053  0.4668  0.2515 -0.9338
12795TIP3    H159800   2.578   0.668   3.034  0.8561  0.9448 -1.4955
12795TIP3    H259801   2.708   0.702   3.102  0.3781 -0.4852  0.2121
12796TIP3   OH259802   4.008   4.641   3.070  0.5191 -0.2034 -0.1180
12796TIP3    H159803   4.062   4.636   2.992  1.2003 -0.5480  0.3666
12796TIP3    H259804   3.919   4.656   3.037  0.8093 -0.2698 -0.9464
12797TIP3   OH259805   1.484   3.660   2.308  0.0277  0.2594 -0.2267
12797TIP3    H159806   1.465   3.748   2.340 -1.2196 -0.0381 -0.0953
12797TIP3    H259807   1.446   3.602   2.374 -0.0826 -0.3730 -0.8359
12798TIP3   OH259808   6.665   0.658  15.552  0.2997 -0.5379  0.2420
12798TIP3    H159809   6.675   0.569  15.518  1.5617 -0.9925  1.7102
12798TIP3    H259810   6.571   0.677  15.542  0.4369 -0.8655 -2.7656
12799TIP3   OH259811   5.681   0.138   0.837 -0.0150 -0.3292  0.1228
12799TIP3    H159812   5.717   0.070   0.781  0.6190 -0.6076  0.8641
12799TIP3    H259813   5.726   0.218   0.809  2.1757 -0.8632  1.8660
12800TIP3   OH259814   5.557   2.785   5.871 -0.6540  0.0396 -0.2367
12800TIP3    H159815   5.627   2.808   5.810 -0.7117  1.9560  0.3438
12800TIP3    H259816   5.601   2.737   5.941 -0.1787 -0.0927 -0.6209
12801TIP3   OH259817   2.039   3.751   0.477 -0.1176  0.3565 -0.1401
12801TIP3    H159818   2.060   3.715   0.391 -1.3437 -2.5796  0.6827
12801TIP3    H259819   2.105   3.714   0.536 -0.5372  0.6337  0.5182
12802TIP3   OH259820   2.573   3.052  16.818  0.1246  0.2952  0.1039
12802TIP3    H159821   2.569   3.109  16.741  0.7884 -1.5582 -1.3553
12802TIP3    H259822   2.482   3.027  16.834 -0.1095  1.3006  0.4358
12803TIP3   OH259823   0.530   6.192   2.246  0.3018  0.0704 -0.6886
12803TIP3    H159824   0.461   6.147   2.294  0.2695  1.3199  0.4720
12803TIP3    H259825   0.563   6.259   2.306  0.7013  1.2605 -2.1630
12804TIP3   OH259826   5.207   5.183   5.272  0.8426  0.4182  0.2183
12804TIP3    H159827   5.162   5.199   5.190  0.5154 -0.0047  0.3119
12804TIP3    H259828   5.246   5.096   5.261  0.1676  0.0415  0.7902
12805TIP3   OH259829   6.605   2.993  11.778  0.2746  0.1444  0.3469
12805TIP3    H159830   6.628   2.933  11.848 -2.3898  0.2029  1.3836
12805TIP3    H259831   6.603   3.079  11.820  0.9709  0.5401 -0.3947
12806TIP3   OH259832   4.346   5.610  15.715  0.6721 -0.2428  0.4671
12806TIP3    H159833   4.278   5.544  15.728  1.0056 -0.6893 -0.0177
12806TIP3    H259834   4.337   5.636  15.624  2.6174 -1.9929 -0.2787
12807TIP3   OH259835   4.104   4.125   0.836  0.1229 -0.5483 -0.0092
12807TIP3    H159836   4.109   4.052   0.774 -0.6799 -1.0127  0.4487
12807TIP3    H259837   4.168   4.189   0.803  1.3871 -1.7541 -0.0225
12808TIP3   OH259838   4.397   0.686   1.301 -0.2153 -0.3125  0.0465
12808TIP3    H159839   4.412   0.713   1.211  1.0303 -0.7382  0.1097
12808TIP3    H259840   4.418   0.764   1.353  1.1174 -0.6586  0.0784
12809TIP3   OH259841   6.423   0.174  11.572 -0.2615 -0.1259 -0.1510
12809TIP3    H159842   6.369   0.204  11.499 -1.1541 -0.2078  0.4520
12809TIP3    H259843   6.441   0.254  11.622  0.2394 -0.0891 -0.3838
12810TIP3   OH259844   2.829   0.034  10.888 -0.2468  0.1996  0.3095
12810TIP3    H159845   2.880   0.108  10.855  1.5006 -0.1995  1.9669
12810TIP3    H259846   2.832  -0.030  10.816 -1.4222  1.5074 -0.9684
12811TIP3   OH259847   6.478   0.284   4.958  0.4995 -0.0266 -0.1344
12811TIP3    H159848   6.466   0.377   4.976  0.4483  0.2958 -1.6993
12811TIP3    H259849   6.413   0.263   4.891 -1.8395 -2.0541  2.5207
12812TIP3   OH259850   5.410   6.128   0.517 -0.1466 -0.7377  0.1322
12812TIP3    H159851   5.435   6.049   0.470  2.7642  0.0784  0.1352
12812TIP3    H259852   5.474   6.136   0.588 -1.1793  0.9244  0.9577
12813TIP3   OH259853   6.117   3.118  15.735 -0.1353  0.3616 -0.1917
12813TIP3    H159854   6.083   3.202  15.765 -0.2570  0.7042 -1.2393
12813TIP3    H259855   6.087   3.112  15.644  1.3359 -0.0298 -0.6643
12814TIP3   OH259856   3.320   2.676   4.471 -0.1550 -0.2662  0.8206
12814TIP3    H159857   3.343   2.637   4.386 -2.2457 -2.5461  1.1933
12814TIP3    H259858   3.258   2.745   4.449  1.7532  1.4161  0.3447
12815TIP3   OH259859   0.623   5.678   0.657  0.2996 -0.4504 -0.5938
12815TIP3    H159860   0.688   5.660   0.725  1.2077  0.1025 -1.2983
12815TIP3    H259861   0.666   5.741   0.599 -2.1704  2.9791  0.9731
12816TIP3   OH259862   4.643   6.632  13.997  0.3409  0.3047 -0.0544
12816TIP3    H159863   4.707   6.675  14.055  0.9237 -0.9135  0.2325
12816TIP3    H259864   4.603   6.565  14.052 -1.5454  1.3326 -0.1003
12817TIP3   OH259865   0.764   1.729   4.758 -0.2845  0.3292  0.1776
12817TIP3    H159866   0.722   1.669   4.696  0.1860  1.0041 -0.8144
12817TIP3    H259867   0.721   1.813   4.743  0.5902  0.7515 -0.0115
12818TIP3   OH259868   6.782   0.400   1.368  0.1386  0.1864  0.5442
12818TIP3    H159869   6.711   0.448   1.412 -1.4640 -2.0567  0.5549
12818TIP3    H259870   6.786   0.316   1.414  0.4849 -1.0459 -1.6405
12819TIP3   OH259871   1.168   3.124  12.000  0.4191 -0.3375 -0.1676
12819TIP3    H159872   1.215   3.096  11.921 -0.1214 -1.0063 -0.2606
12819TIP3    H259873   1.077   3.135  11.971  0.2431 -0.4534  0.3276
12820TIP3   OH259874   1.624   5.693   4.095 -0.1928  0.0503 -0.3218
12820TIP3    H159875   1.628   5.788   4.107  0.2095  0.1266 -1.0142
12820TIP3    H259876   1.547   5.680   4.039  0.3630  0.0661 -1.1017
12821TIP3   OH259877   2.505   2.081  15.108  0.5681  0.2010 -0.2326
12821TIP3    H159878   2.456   2.062  15.028  0.4419  1.3145 -0.4339
12821TIP3    H259879   2.543   2.168  15.093  0.1508  0.6349  1.1080
12822TIP3   OH259880   5.963   4.861   0.461 -0.2192  0.5448  0.7504
12822TIP3    H159881   5.978   4.821   0.546 -0.6369  0.3786  0.7452
12822TIP3    H259882   5.943   4.788   0.403 -1.9737  0.8234  0.9478
12823TIP3   OH259883   0.463   3.117   0.544  0.1881 -0.3696 -0.2562
12823TIP3    H159884   0.527   3.178   0.581 -1.0061  0.3304  0.7616
12823TIP3    H259885   0.515   3.057   0.490  1.9397 -0.9277  1.9005
12824TIP3   OH259886   3.978   3.081   3.075  0.1147 -0.2407  0.5415
12824TIP3    H159887   4.035   3.152   3.044 -2.6426  0.9728 -2.2655
12824TIP3    H259888   4.008   3.004   3.027 -0.4848  0.3765 -0.8766
12825TIP3   OH259889   6.408   4.878   1.703  0.2885 -0.7351  0.0177
12825TIP3    H159890   6.365   4.808   1.751 -1.1350  0.9146  1.3110
12825TIP3    H259891   6.462   4.834   1.638 -0.7639 -2.9934  0.5826
12826TIP3   OH259892   1.626   0.171   4.706 -0.1106  0.2571 -0.5599
12826TIP3    H159893   1.657   0.202   4.791 -1.3658 -0.6823  0.2772
12826TIP3    H259894   1.694   0.112   4.675 -1.0204 -1.9595  1.3509
12827TIP3   OH259895   0.828   3.029  15.786  0.2437 -0.0111 -0.0666
12827TIP3    H159896   0.744   3.058  15.822  0.3748  1.6334 -0.9679
12827TIP3    H259897   0.887   3.104  15.798  1.5835 -1.1081  0.4952
12828TIP3   OH259898   4.719   0.098  11.486 -0.1223  0.1372 -0.0361
12828TIP3    H159899   4.632   0.113  11.449 -0.4103  2.0412  1.2389
12828TIP3    H259900   4.779   0.136  11.422 -0.0687 -2.0948 -1.4223
12829TIP3   OH259901   4.962   6.389   1.022 -0.2047 -0.0136 -0.7810
12829TIP3    H159902   4.944   6.301   1.054  1.1929 -0.5341 -1.3738
12829TIP3    H259903   4.896   6.444   1.066 -0.1724 -1.1186  0.7386
12830TIP3   OH259904   0.826   5.304   4.751 -0.1127  0.3066 -0.1400
12830TIP3    H159905   0.899   5.253   4.717 -0.2074  0.4562 -0.5787
12830TIP3    H259906   0.825   5.285   4.845 -0.3185 -0.7154 -0.3351
12831TIP3   OH259907   6.742   0.375   4.713 -0.3903  0.3159 -0.8726
12831TIP3    H159908   6.766   0.285   4.694 -1.4985 -0.4839  1.1844
12831TIP3    H259909   6.754   0.421   4.630 -0.1218 -1.7783 -2.0716
12832TIP3   OH259910   5.560   3.927   0.128 -0.0864 -0.1955 -0.3555
12832TIP3    H159911   5.621   3.996   0.152 -0.4414 -0.1479  0.4084
12832TIP3    H259912   5.530   3.890   0.211 -0.1236 -1.0757 -0.7451
12833TIP3   OH259913   3.698   0.091   1.561  0.6073 -0.1864  0.2125
12833TIP3    H159914   3.620   0.067   1.611  1.3537  3.2364  3.4207
12833TIP3    H259915   3.665   0.145   1.489 -0.0719  0.9138  1.3177
12834TIP3   OH259916   3.141   0.627   2.408 -0.2784 -0.0973 -0.7066
12834TIP3    H159917   3.073   0.658   2.348 -0.3889 -1.0832 -1.1128
12834TIP3    H259918   3.203   0.700   2.414  0.4103 -0.4105 -3.0427
12835TIP3   OH259919   4.913   5.299   1.705  0.1910 -0.4605  0.0350
12835TIP3    H159920   4.830   5.270   1.666  0.3330 -2.2916  1.0039
12835TIP3    H259921   4.942   5.371   1.648 -2.9053  1.5030  0.6601
12836TIP3   OH259922   5.672   3.691  15.902  0.1368  0.5565 -0.6652
12836TIP3    H159923   5.690   3.708  15.994  0.3199  1.0002 -0.7806
12836TIP3    H259924   5.596   3.746  15.882 -0.3322 -0.0617 -0.6036
12837TIP3   OH259925   2.021   1.650  12.859  0.3989  0.2115  0.1112
12837TIP3    H159926   2.074   1.651  12.939 -0.4396 -1.8225  0.7517
12837TIP3    H259927   2.060   1.718  12.804  0.9345  1.7559  2.2719
12838TIP3   OH259928   3.084   4.467   6.106  0.0315 -0.3162  0.3324
12838TIP3    H159929   3.039   4.431   6.183 -0.9420  0.0991 -0.0336
12838TIP3    H259930   3.083   4.562   6.120  0.3015 -0.2702  0.0453
12839TIP3   OH259931   0.897   2.212  14.895  0.4434 -0.2876  0.5462
12839TIP3    H159932   0.907   2.122  14.926 -0.1466 -0.7986 -0.6791
12839TIP3    H259933   0.883   2.203  14.801 -0.4442  1.0444  0.5321
12840TIP3   OH259934   6.171   2.098  12.213  0.5012  0.6993  0.1509
12840TIP3    H159935   6.109   2.080  12.142  0.2289 -0.1173  0.5859
12840TIP3    H259936   6.119   2.145  12.278  0.0033 -1.0167  1.0378
12841TIP3   OH259937   5.519   1.145   3.447  0.4161 -0.0760  0.1400
12841TIP3    H159938   5.472   1.217   3.491 -0.1146 -1.6024  2.2438
12841TIP3    H259939   5.501   1.158   3.354 -1.6481  1.1812  0.6416
12842TIP3   OH259940   2.768   0.485  13.069  0.5449 -0.0346 -0.0685
12842TIP3    H159941   2.679   0.479  13.033  1.3671  0.0465 -2.2873
12842TIP3    H259942   2.811   0.405  13.041  1.6624  0.6893 -0.5103
12843TIP3   OH259943   4.061   2.644  16.136  0.4998  0.1695  0.6537
12843TIP3    H159944   4.035   2.735  16.119 -0.2317 -0.5070 -2.4220
12843TIP3    H259945   4.150   2.639  16.103  0.9210 -0.0403  1.7658
12844TIP3   OH259946   4.218   1.688  14.770 -0.3406 -0.0753  0.0877
12844TIP3    H159947   4.251   1.615  14.823  0.1311 -0.8050 -1.1870
12844TIP3    H259948   4.294   1.716  14.718 -0.5015  1.3632  0.5633
12845TIP3   OH259949   1.537   4.299   0.751  0.4357  0.3638 -0.3468
12845TIP3    H159950   1.542   4.255   0.837 -1.0712  1.2162  0.2058
12845TIP3    H259951   1.618   4.273   0.707  0.7456 -0.9657  0.9144
12846TIP3   OH259952   5.280   5.830  13.320  0.1992  0.0716 -0.1271
12846TIP3    H159953   5.240   5.863  13.400 -0.3318  0.5575 -0.5862
12846TIP3    H259954   5.289   5.907  13.264 -1.1576 -0.5404 -1.2529
12847TIP3   OH259955   1.174   3.768  13.121  0.1624  0.2135  0.0424
12847TIP3    H159956   1.195   3.861  13.130 -1.3159  0.6376 -0.6047
12847TIP3    H259957   1.086   3.767  13.083  0.6357 -1.4506 -1.1201
12848TIP3   OH259958   0.263   2.087  17.099  0.0995  0.6924  0.0255
12848TIP3    H159959   0.262   2.168  17.149 -0.1417  0.8862 -0.2894
12848TIP3    H259960   0.263   2.115  17.008 -2.8033  0.3881 -0.1688
12849TIP3   OH259961   5.024   5.157   0.232  0.2977  0.1603  0.3902
12849TIP3    H159962   4.969   5.235   0.222  0.7272  0.7224  2.0571
12849TIP3    H259963   4.987   5.093   0.171 -0.8599  1.2298 -0.0775
12850TIP3   OH259964   0.666   1.761  12.519 -0.1225 -0.0330  0.1809
12850TIP3    H159965   0.579   1.721  12.511  0.6241 -1.2606 -2.8434
12850TIP3    H259966   0.648   1.855  12.525 -1.6766 -0.3296  0.6842
12851TIP3   OH259967   3.388   6.745   5.147 -0.5535  0.3762  0.3617
12851TIP3    H159968   3.317   6.780   5.200 -0.2855  0.4511  0.6778
12851TIP3    H259969   3.347   6.717   5.065 -1.1518 -0.7098  1.0185
12852TIP3   OH259970   5.067   2.747  11.890 -0.2825 -0.0263 -0.2523
12852TIP3    H159971   5.089   2.745  11.983  1.6134  0.8103 -0.6227
12852TIP3    H259972   5.108   2.668  11.854  0.9125  0.7853 -0.7186
12853TIP3   OH259973   3.286   5.844  14.643  0.3629 -0.0116  0.5816
12853TIP3    H159974   3.193   5.823  14.633  0.4546  0.0137 -0.3776
12853TIP3    H259975   3.328   5.810  14.564  0.9519  1.2447  0.3209
12854TIP3   OH259976   5.858   1.697   1.840  0.0740  0.6233  0.4221
12854TIP3    H159977   5.878   1.787   1.816 -1.0199  1.0103  0.8890
12854TIP3    H259978   5.911   1.679   1.917  0.9362  0.5747 -0.1772
12855TIP3   OH259979   1.226   1.982   5.525 -0.1073 -0.3256  0.3905
12855TIP3    H159980   1.207   1.954   5.615  1.7419 -3.4241 -0.0202
12855TIP3    H259981   1.151   1.950   5.474  0.4768 -1.8409  0.4120
12856TIP3   OH259982   0.645   3.400   3.089  0.0782 -0.1900  0.0470
12856TIP3    H159983   0.613   3.458   3.020  1.1088  0.9223  0.4610
12856TIP3    H259984   0.647   3.455   3.168  1.0346 -0.7924  0.4648
12857TIP3   OH259985   2.886   5.931  16.545  0.2244 -0.0202  0.2055
12857TIP3    H159986   2.841   5.847  16.550 -0.2131  0.0901 -1.4141
12857TIP3    H259987   2.835   5.989  16.601 -1.5210  0.0222 -1.3512
12858TIP3   OH259988   5.094   4.548   0.146  0.1721 -0.0749  0.1566
12858TIP3    H159989   5.142   4.466   0.132 -0.2347 -0.2723 -0.1180
12858TIP3    H259990   5.085   4.585   0.058 -2.1583 -1.1753 -0.1591
12859TIP3   OH259991   3.054   5.693   4.837 -0.0117  0.6181  0.1231
12859TIP3    H159992   3.082   5.713   4.748 -2.3530  0.8359 -0.6431
12859TIP3    H259993   3.051   5.778   4.881  0.4773  0.5990  0.1913
12860TIP3   OH259994   2.131   3.404   1.465 -0.0402  0.3107  0.1650
12860TIP3    H159995   2.179   3.389   1.383  0.2486 -1.2780  0.5781
12860TIP3    H259996   2.180   3.354   1.530 -0.7931  0.7954  1.1242
12861TIP3   OH259997   1.096   1.511  13.148  0.0950 -0.9179  0.5290
12861TIP3    H159998   1.048   1.539  13.070  0.4797 -2.3377 -0.2591
12861TIP3    H259999   1.169   1.573  13.155 -1.3310  0.7537  1.2609
12862TIP3   OH260000   3.412   0.023  12.384  0.1786  0.3592  0.2992
12862TIP3    H160001   3.346   0.009  12.316  0.1989 -0.8487  0.5111
12862TIP3    H260002   3.480  -0.041  12.364  1.5830  1.9684 -0.2590
12863TIP3   OH260003   0.107   4.673   2.834  0.1850 -0.0121  0.1915
12863TIP3    H160004   0.075   4.733   2.766  0.1014  0.0430  0.2808
12863TIP3    H260005   0.163   4.727   2.889  0.4241 -0.1061  0.0428
12864TIP3   OH260006   1.585   1.546   5.548 -0.1024  0.3679  0.1895
12864TIP3    H160007   1.638   1.611   5.502 -0.9444  0.9626  0.0231
12864TIP3    H260008   1.520   1.598   5.596 -0.3386 -0.3228  0.6384
12865TIP3   OH260009   0.034   1.612   2.777  0.1098  0.6782  0.2402
12865TIP3    H160010   0.023   1.629   2.683  1.6531  2.4599  0.3270
12865TIP3    H260011   0.127   1.625   2.793  0.0036 -0.3209  1.9163
12866TIP3   OH260012   5.936   4.336  16.662 -0.7952  0.1303 -0.0782
12866TIP3    H160013   5.905   4.339  16.571  0.1779  0.0912 -0.4226
12866TIP3    H260014   5.971   4.248  16.673 -0.2297  0.3693  0.0951
12867TIP3   OH260015   6.167   1.614   4.818 -0.4808  0.3090 -0.5060
12867TIP3    H160016   6.118   1.695   4.805 -0.4985  0.3964  0.1071
12867TIP3    H260017   6.189   1.585   4.729  1.7604  2.3614 -0.7350
12868TIP3   OH260018   0.695   5.991   0.766 -0.3236  0.0757 -0.1484
12868TIP3    H160019   0.729   5.910   0.802 -0.3864  0.4416  0.7640
12868TIP3    H260020   0.676   6.046   0.843 -0.8509  0.7207 -0.7186
12869TIP3   OH260021   1.332   3.063  15.621  0.3642 -0.1009  0.2511
12869TIP3    H160022   1.268   3.028  15.560  1.7170  0.3383 -1.5102
12869TIP3    H260023   1.408   3.006  15.611  0.1338 -0.9728  2.7236
12870TIP3   OH260024   3.954   5.381   4.820 -0.2941 -0.3914  0.2886
12870TIP3    H160025   3.906   5.360   4.900 -0.7632  1.5390  0.5604
12870TIP3    H260026   3.941   5.475   4.808  1.5977 -0.2230 -0.8573
12871TIP3   OH260027   3.517   5.744   5.182 -0.1948  0.2122 -0.0032
12871TIP3    H160028   3.478   5.825   5.215 -0.9782  0.0302 -0.4478
12871TIP3    H260029   3.474   5.675   5.232  1.6844  0.1179  1.5776
12872TIP3   OH260030   2.349   5.336  11.817  0.5241  0.6021  0.0179
12872TIP3    H160031   2.315   5.381  11.894 -0.0963 -0.7443  0.5425
12872TIP3    H260032   2.439   5.312  11.841  2.3302  4.7131 -1.5890
12873TIP3   OH260033   2.804   2.646  16.273  0.6312  0.1824 -0.4912
12873TIP3    H160034   2.756   2.722  16.304  3.2868  1.4369  0.8926
12873TIP3    H260035   2.873   2.633  16.337  1.8825 -1.7733 -2.0888
12874TIP3   OH260036   1.265   1.778  16.738 -0.3728 -0.2219  0.1153
12874TIP3    H160037   1.200   1.721  16.696  1.1507 -1.6202 -0.4526
12874TIP3    H260038   1.214   1.830  16.801 -1.8948 -1.9939  0.4481
12875TIP3   OH260039   1.734   0.261   5.964 -0.4061 -0.1950 -0.1752
12875TIP3    H160040   1.644   0.292   5.968  0.1720  1.5139  0.4609
12875TIP3    H260041   1.743   0.203   6.039 -0.4129  1.2846  0.9988
12876TIP3   OH260042   3.195   4.975   6.153  0.0816 -0.0487 -0.0018
12876TIP3    H160043   3.124   4.961   6.217 -0.5864  2.1204 -0.2030
12876TIP3    H260044   3.270   4.928   6.190 -1.0548 -1.1941  0.9442
12877TIP3   OH260045   5.269   1.256  16.277 -0.0186  0.3543  0.2103
12877TIP3    H160046   5.279   1.267  16.183  0.9356  1.6768  0.4412
12877TIP3    H260047   5.354   1.224  16.308 -0.2657  0.1021  0.6492
12878TIP3   OH260048   3.351   0.789   2.809 -0.3593  0.3480  0.4967
12878TIP3    H160049   3.366   0.843   2.731 -0.1303  1.1057  1.0554
12878TIP3    H260050   3.380   0.843   2.882 -0.6007 -0.3422  1.1201
12879TIP3   OH260051   6.106   3.226   0.459  0.0628 -0.1655  0.2140
12879TIP3    H160052   6.057   3.164   0.405 -1.3454  1.6181 -0.6988
12879TIP3    H260053   6.161   3.274   0.397 -2.0704  2.3704  0.0773
12880TIP3   OH260054   0.390   4.816   4.910 -0.2548  0.0099 -0.0906
12880TIP3    H160055   0.310   4.864   4.932  0.3072  0.3840  1.2827
12880TIP3    H260056   0.450   4.883   4.877 -0.1490 -0.0866 -0.0950
12881TIP3   OH260057   3.087   5.605  11.712  0.0658  0.1488  0.1239
12881TIP3    H160058   3.121   5.520  11.684  1.3748  0.1145  1.6948
12881TIP3    H260059   3.109   5.664  11.640  0.8497 -0.4735 -0.1588
12882TIP3   OH260060   4.829   1.684   3.802  0.0787 -0.3069 -0.5173
12882TIP3    H160061   4.879   1.609   3.770 -1.5725 -1.1253 -1.2624
12882TIP3    H260062   4.841   1.682   3.897  3.2735  0.8938 -0.7686
12883TIP3   OH260063   4.667   3.792   6.428  0.2580  0.3208  0.2134
12883TIP3    H160064   4.656   3.733   6.504 -0.9598 -0.0275 -0.2152
12883TIP3    H260065   4.605   3.863   6.444 -1.4400 -0.7122 -1.3385
12884TIP3   OH260066   5.874   2.322   4.764 -0.4121 -0.3420  0.3165
12884TIP3    H160067   5.966   2.312   4.741  0.7138  0.5770  3.7449
12884TIP3    H260068   5.842   2.392   4.706  0.9241 -0.8849 -1.1364
12885TIP3   OH260069   3.342   2.313   4.490 -0.1737  0.6397 -0.3292
12885TIP3    H160070   3.348   2.365   4.571 -0.1271 -0.6832  0.5437
12885TIP3    H260071   3.250   2.317   4.465 -0.1381  1.2844 -0.3822
12886TIP3   OH260072   6.153   5.866  16.808 -0.4023 -0.6869 -0.3178
12886TIP3    H160073   6.191   5.882  16.721 -0.2264  0.1244 -0.1001
12886TIP3    H260074   6.123   5.952  16.837  1.4622 -0.5352  1.3289
12887TIP3   OH260075   0.960   0.308  11.050 -0.0085  0.2337  0.4660
12887TIP3    H160076   0.902   0.380  11.024 -1.1770 -1.1610 -1.0228
12887TIP3    H260077   0.960   0.249  10.975 -0.0398 -1.9105  2.0539
12888TIP3   OH260078   0.574   2.000   5.011  0.7973 -0.0293 -0.0914
12888TIP3    H160079   0.537   1.976   5.096 -0.6372  0.9939 -0.3716
12888TIP3    H260080   0.622   2.081   5.027  0.6735  0.0698 -0.2098
12889TIP3   OH260081   4.876   5.343   4.940  0.0695 -0.5461 -0.0816
12889TIP3    H160082   4.825   5.359   5.019 -0.8785  0.5177 -0.8704
12889TIP3    H260083   4.851   5.414   4.881  3.0685  0.5151 -0.2310
12890TIP3   OH260084   0.153   1.238   5.066 -0.2512  0.7408  0.0289
12890TIP3    H160085   0.104   1.314   5.033  0.5582  1.2367 -0.0721
12890TIP3    H260086   0.098   1.202   5.135 -1.5341  0.2744 -1.1781
12891TIP3   OH260087   6.113   2.446  13.516 -0.4356  0.6536 -0.3460
12891TIP3    H160088   6.144   2.368  13.470 -0.6036  0.5328 -0.2527
12891TIP3    H260089   6.104   2.512  13.446 -1.3999  0.2596 -0.6185
12892TIP3   OH260090   2.057   0.152  17.195 -0.0118 -0.5353  0.0139
12892TIP3    H160091   2.058   0.148  17.099  3.1064  0.8498 -0.1413
12892TIP3    H260092   2.129   0.212  17.217 -0.2421 -1.2702  3.2556
12893TIP3   OH260093   4.215   2.658  15.652  0.1304  0.1048 -0.3121
12893TIP3    H160094   4.290   2.621  15.606  0.5665 -2.5847  2.2361
12893TIP3    H260095   4.252   2.731  15.702  0.5200  0.3470 -0.9398
12894TIP3   OH260096   2.833   3.017  11.653  0.2984  0.1032  0.0865
12894TIP3    H160097   2.746   2.978  11.643  0.3616 -0.0873  0.2583
12894TIP3    H260098   2.867   2.979  11.734  0.5727  0.1185 -0.0186
12895TIP3   OH260099   5.896   1.373   0.408 -0.3615  0.3218  0.1636
12895TIP3    H160100   5.805   1.359   0.436 -0.4983 -1.1558 -0.9310
12895TIP3    H260101   5.895   1.358   0.314  1.0975 -0.0702  0.1949
12896TIP3   OH260102   6.298   6.243   2.334 -0.0942  0.5871 -0.3634
12896TIP3    H160103   6.340   6.163   2.305 -0.6022  0.2645 -0.2222
12896TIP3    H260104   6.315   6.246   2.429  0.3900  0.9310 -0.4576
12897TIP3   OH260105   4.591   1.161  16.419  0.0845 -0.1311  0.8041
12897TIP3    H160106   4.503   1.128  16.403  0.4943  0.0518 -2.4327
12897TIP3    H260107   4.582   1.256  16.419  0.1339 -0.1231  1.5759
12898TIP3   OH260108   4.887   2.310   1.868  0.2128 -0.1483  0.1001
12898TIP3    H160109   4.904   2.226   1.909 -1.9225 -1.0041 -0.6421
12898TIP3    H260110   4.827   2.291   1.796 -0.7443  2.0451  0.2126
12899TIP3   OH260111   5.614   5.888  14.263  0.5542  0.1575  0.2394
12899TIP3    H160112   5.597   5.806  14.218 -0.9368  1.2005 -1.2336
12899TIP3    H260113   5.581   5.956  14.203  0.7006  1.7630  1.8711
12900TIP3   OH260114   3.027   1.651  14.315  0.1507 -0.0254 -0.1776
12900TIP3    H160115   3.072   1.725  14.356 -0.2212  0.6392 -0.9693
12900TIP3    H260116   3.084   1.625  14.243 -0.2754  0.2090 -0.5970
12901TIP3   OH260117   4.198   2.985  14.479 -0.5664 -0.2269 -0.5647
12901TIP3    H160118   4.173   3.075  14.501  2.2258  0.2388  1.2314
12901TIP3    H260119   4.174   2.975  14.387 -0.5385  2.5087 -0.9515
12902TIP3   OH260120   1.912   4.041  16.301 -0.3331  0.5885 -0.5907
12902TIP3    H160121   1.930   4.047  16.207  0.1666 -0.2865 -0.5620
12902TIP3    H260122   1.959   4.115  16.339  0.3151  0.3526 -0.9182
12903TIP3   OH260123   2.337   0.258   1.182 -0.0367  0.7636  0.6668
12903TIP3    H160124   2.425   0.252   1.146 -0.5159  1.6062 -0.7369
12903TIP3    H260125   2.320   0.172   1.220  0.5635 -0.1434 -1.0409
12904TIP3   OH260126   3.589   3.235   2.302 -0.4207  0.3861 -0.9012
12904TIP3    H160127   3.617   3.327   2.300  0.2301  0.1880 -1.1005
12904TIP3    H260128   3.671   3.185   2.295 -0.6460 -0.2184  0.4893
12905TIP3   OH260129   2.464   1.711   0.074  0.0165 -0.3426  0.0788
12905TIP3    H160130   2.452   1.758  -0.008  0.2997 -0.6607 -0.1433
12905TIP3    H260131   2.382   1.665   0.088  0.5132 -1.5299 -0.8145
12906TIP3   OH260132   4.941   5.228  11.527 -0.6284  0.5238  0.5042
12906TIP3    H160133   5.021   5.175  11.518 -0.9829  0.1762 -0.8651
12906TIP3    H260134   4.879   5.170  11.571 -0.8024 -0.0058 -0.3964
12907TIP3   OH260135   4.637   4.082  15.229 -0.7937 -0.0246  0.2997
12907TIP3    H160136   4.641   3.987  15.232 -0.1135  0.0158  1.2455
12907TIP3    H260137   4.639   4.103  15.136  2.5956 -0.8694  0.0344
12908TIP3   OH260138   4.551   1.849  13.652  0.0115 -0.2790 -0.1872
12908TIP3    H160139   4.461   1.872  13.630  0.2130  0.9364  0.1524
12908TIP3    H260140   4.595   1.934  13.660  0.8530 -0.8115  1.0160
12909TIP3   OH260141   5.610   1.362   1.263 -0.4066 -0.1291 -0.0270
12909TIP3    H160142   5.596   1.439   1.208 -3.3721 -1.3454 -1.1763
12909TIP3    H260143   5.705   1.348   1.260 -0.2764  0.4251 -4.1221
12910TIP3   OH260144   2.025   3.660   1.857 -0.0881  0.4925  0.0050
12910TIP3    H160145   2.004   3.572   1.826 -3.8087  0.4541  2.0695
12910TIP3    H260146   2.089   3.645   1.928 -0.1437 -0.4592 -0.1267
12911TIP3   OH260147   4.138   3.854   4.743  0.2555  0.0851 -0.2887
12911TIP3    H160148   4.111   3.923   4.803  1.3011 -0.5131  0.9312
12911TIP3    H260149   4.232   3.845   4.759  0.1159 -1.7180 -0.2754
12912TIP3   OH260150   6.759   2.383   0.439 -0.1406  0.0976  0.4486
12912TIP3    H160151   6.750   2.427   0.523  0.9298  0.3272  0.4681
12912TIP3    H260152   6.850   2.400   0.413 -0.1691 -0.7794 -0.2933
12913TIP3   OH260153   3.333   6.307   2.999 -0.2683  0.3253  0.4024
12913TIP3    H160154   3.394   6.373   3.030  0.7396  0.2893 -1.4016
12913TIP3    H260155   3.382   6.257   2.934 -2.1253  0.1354 -0.9297
12914TIP3   OH260156   3.239   6.245  13.793 -0.8204  0.0800  0.4273
12914TIP3    H160157   3.329   6.224  13.816 -0.7431  1.0542  1.0465
12914TIP3    H260158   3.186   6.188  13.849 -0.6031  0.8768  1.4654
12915TIP3   OH260159   5.320   1.187   2.377 -0.3625  0.3222 -0.0266
12915TIP3    H160160   5.300   1.274   2.413 -0.5590  0.5937 -0.7537
12915TIP3    H260161   5.243   1.134   2.400 -0.3059  0.3801  0.2985
12916TIP3   OH260162   5.771   3.168   1.424 -0.5607  0.2030 -0.2168
12916TIP3    H160163   5.862   3.186   1.448  0.3718  0.2784 -3.3160
12916TIP3    H260164   5.744   3.097   1.482  1.2649  0.5284  1.1423
12917TIP3   OH260165   4.808   3.784  14.232  0.0784 -0.4375  0.4356
12917TIP3    H160166   4.798   3.879  14.236  0.1830 -0.3148 -1.4343
12917TIP3    H260167   4.872   3.763  14.300 -0.6090  0.7186  1.4543
12918TIP3   OH260168   5.001   3.499   5.026 -0.2448  0.3335  0.3530
12918TIP3    H160169   4.937   3.508   5.098  1.0546 -1.0415  1.7515
12918TIP3    H260170   5.082   3.535   5.062  0.9916 -2.3068  0.4509
12919TIP3   OH260171   3.486   0.994   4.173  0.3841 -0.3201  0.5183
12919TIP3    H160172   3.467   0.986   4.079 -0.1540 -1.0822  0.6860
12919TIP3    H260173   3.413   0.949   4.216 -0.5342  1.9020  1.3949
12920TIP3   OH260174   2.922   3.562  11.586  0.2231 -0.6889  0.0743
12920TIP3    H160175   2.945   3.491  11.645 -0.1567 -0.3033  0.6965
12920TIP3    H260176   3.006   3.592  11.551  0.3724 -1.5578 -0.3459
12921TIP3   OH260177   3.974   5.607   5.027 -0.3439 -0.4598 -0.1686
12921TIP3    H160178   4.047   5.547   5.017 -0.0466 -0.5415  2.0046
12921TIP3    H260179   3.937   5.587   5.113 -1.8558  0.7405 -0.4781
12922TIP3   OH260180   6.575   3.927  11.879 -0.1095 -0.0761  0.0391
12922TIP3    H160181   6.558   3.853  11.936 -0.7518  0.2437  0.2746
12922TIP3    H260182   6.625   3.891  11.806  0.2057 -0.5971  0.5124
12923TIP3   OH260183   5.807   2.439   4.160 -0.1769  0.1073 -0.4059
12923TIP3    H160184   5.816   2.405   4.071 -0.2676 -0.6035 -0.1530
12923TIP3    H260185   5.730   2.496   4.156 -0.5225 -0.3687 -0.6570
12924TIP3   OH260186   1.955   2.223   4.214 -0.6886 -0.0840 -0.0914
12924TIP3    H160187   1.977   2.287   4.146  0.0150 -0.4103 -0.1851
12924TIP3    H260188   2.038   2.206   4.258 -1.0345 -0.3009  0.4831
12925TIP3   OH260189   3.298   2.001  11.814  0.2821 -0.1807  0.7425
12925TIP3    H160190   3.350   1.974  11.890 -0.8351  1.4393  2.1687
12925TIP3    H260191   3.362   2.019  11.746  1.3548 -1.2627  1.4268
12926TIP3   OH260192   0.310   5.109   6.053  0.0065 -0.9317 -0.1267
12926TIP3    H160193   0.369   5.043   6.015 -0.6725 -1.1448 -0.8335
12926TIP3    H260194   0.263   5.145   5.978  0.3698  0.3868  0.2451
12927TIP3   OH260195   6.740   2.947   1.080 -0.0248  0.0065 -0.4970
12927TIP3    H160196   6.734   3.000   1.159 -1.1729 -2.2155  1.0259
12927TIP3    H260197   6.827   2.966   1.045  0.3279  1.4426  1.0166
12928TIP3   OH260198   2.939   1.200   2.498  0.2913  0.1669  0.0225
12928TIP3    H160199   3.018   1.149   2.479  0.9194  1.3005 -0.4964
12928TIP3    H260200   2.968   1.268   2.558 -0.3818  0.3405  0.1580
12929TIP3   OH260201   2.714   6.461   5.739 -0.6382 -0.1785 -0.1806
12929TIP3    H160202   2.744   6.371   5.724 -2.9309 -0.6911 -2.4556
12929TIP3    H260203   2.695   6.464   5.832 -3.3692 -3.1463 -0.4553
12930TIP3   OH260204   5.517   1.546   4.419 -0.1331  0.0060  0.9947
12930TIP3    H160205   5.526   1.522   4.327 -0.9643  0.8724  0.6675
12930TIP3    H260206   5.513   1.462   4.465 -0.2960 -0.4459  0.1816
12931TIP3   OH260207   3.557   3.414  12.775  0.0019 -0.2979 -0.3766
12931TIP3    H160208   3.611   3.412  12.696  1.6417 -1.5882  0.6903
12931TIP3    H260209   3.495   3.342  12.763  0.3620 -0.6039 -0.4299
12932TIP3   OH260210   2.068   5.162   5.248 -0.1441  0.1538 -0.3219
12932TIP3    H160211   1.977   5.160   5.218  0.0710  1.2879 -1.1332
12932TIP3    H260212   2.104   5.076   5.224 -0.9585 -0.2427 -0.1334
12933TIP3   OH260213   5.411   0.024  15.474  0.0956  0.3098 -0.0224
12933TIP3    H160214   5.331  -0.017  15.441  0.0260  0.3021  0.1573
12933TIP3    H260215   5.444  -0.036  15.541 -0.7275  1.1809  1.2082
12934TIP3   OH260216   1.454   5.473   3.789 -0.2216 -0.2802  0.3524
12934TIP3    H160217   1.541   5.440   3.768 -0.3364 -0.6714  0.4752
12934TIP3    H260218   1.394   5.405   3.758 -0.5844  0.6963 -1.2115
12935TIP3   OH260219   2.395   4.355   3.491  0.4191 -0.3691  0.2017
12935TIP3    H160220   2.371   4.354   3.399  0.8074  0.6172  0.0681
12935TIP3    H260221   2.313   4.342   3.538  0.0155  0.3519 -0.2798
12936TIP3   OH260222   1.870   3.797   2.468 -0.1927 -0.3724 -0.1453
12936TIP3    H160223   1.890   3.760   2.554 -1.6858 -2.4090 -0.6115
12936TIP3    H260224   1.778   3.821   2.474 -0.0835  0.2518 -0.9236
12937TIP3   OH260225   4.825   5.240  16.146  0.0285 -0.0310  0.1420
12937TIP3    H160226   4.846   5.173  16.212  0.4887 -1.4230 -1.3445
12937TIP3    H260227   4.760   5.198  16.090  1.0166  0.4009 -1.3781
12938TIP3   OH260228   5.386   0.423  15.306 -0.5439  0.2695  0.2489
12938TIP3    H160229   5.333   0.469  15.372  1.4259  0.9051  1.4780
12938TIP3    H260230   5.473   0.463  15.313  0.1130 -0.6862 -1.7306
12939TIP3   OH260231   5.788   5.796  16.814 -0.4355  0.2087  0.6289
12939TIP3    H160232   5.721   5.768  16.876 -2.5841  3.2041 -0.1341
12939TIP3    H260233   5.748   5.784  16.728 -0.7573  3.4213  0.1985
12940TIP3   OH260234   6.458   2.967   3.659  0.0028 -0.9168 -0.5493
12940TIP3    H160235   6.488   2.926   3.740  0.8954 -1.5806 -1.1919
12940TIP3    H260236   6.387   3.025   3.686  1.6374  0.4571  0.9758
12941TIP3   OH260237   3.491   6.484  13.494 -0.5390 -0.6726 -0.0115
12941TIP3    H160238   3.551   6.478  13.420 -0.2711  0.8135  0.0563
12941TIP3    H260239   3.483   6.394  13.527  0.6030 -1.0885 -0.8378
12942TIP3   OH260240   2.175   2.894   3.954 -0.1999  0.3669 -0.3552
12942TIP3    H160241   2.124   2.913   3.876  0.6967  0.4823 -0.9298
12942TIP3    H260242   2.266   2.911   3.928  0.2285 -0.6986  0.3517
12943TIP3   OH260243   3.157   5.723  14.013 -0.4458  0.0421 -0.0422
12943TIP3    H160244   3.102   5.651  14.043 -0.4696 -0.1856 -0.6273
12943TIP3    H260245   3.236   5.681  13.980  0.3662  0.3948  1.3418
12944TIP3   OH260246   3.827   3.053  14.547  0.1676  0.2754 -0.2035
12944TIP3    H160247   3.762   3.075  14.614 -1.2484 -1.5719 -0.8727
12944TIP3    H260248   3.898   3.115  14.561 -0.5172  0.5962  2.3702
12945TIP3   OH260249   5.064   5.026   1.330 -0.7566  0.2146 -0.1397
12945TIP3    H160250   5.091   5.029   1.422 -0.7954 -0.2804 -0.1088
12945TIP3    H260251   5.004   5.100   1.320  0.6564  1.4057 -0.2281
12946TIP3   OH260252   2.194   4.427  14.459 -0.4169  0.3008 -0.0184
12946TIP3    H160253   2.112   4.427  14.410 -0.9407 -1.1849  0.8080
12946TIP3    H260254   2.167   4.422  14.551  0.5639  2.1610  0.4289
12947TIP3   OH260255   0.316   3.358  13.622  0.3698  0.1206  0.5047
12947TIP3    H160256   0.398   3.329  13.661  0.2922 -2.1691 -0.8334
12947TIP3    H260257   0.251   3.296  13.653 -0.1565 -0.2466 -1.1950
12948TIP3   OH260258   0.233   3.072   3.789 -0.4053  0.7695 -0.3746
12948TIP3    H160259   0.171   3.127   3.741 -0.2912  2.3467  1.1915
12948TIP3    H260260   0.317   3.116   3.777  0.1306 -0.3862 -1.0147
12949TIP3   OH260261   5.337   5.039  14.230  0.0494 -0.3904 -0.0181
12949TIP3    H160262   5.347   4.952  14.267 -1.4724 -0.9501 -0.8130
12949TIP3    H260263   5.363   5.099  14.300  0.3322 -1.4619  0.8097
12950TIP3   OH260264   3.180   4.554   2.540 -0.5366  0.2285  0.6474
12950TIP3    H160265   3.223   4.478   2.501 -0.9088 -0.4280  1.4762
12950TIP3    H260266   3.188   4.623   2.474 -0.1602 -0.5152 -0.1045
12951TIP3   OH260267   1.315   3.883  17.006 -0.1893  0.3211 -0.2077
12951TIP3    H160268   1.389   3.871  16.947 -1.2921 -0.7717 -1.4640
12951TIP3    H260269   1.285   3.973  16.989  0.1164  0.3520 -0.5847
12952TIP3   OH260270   4.605   2.115  13.416 -0.2434  0.1553 -0.0052
12952TIP3    H160271   4.590   2.171  13.492  1.3670  0.5351  0.0533
12952TIP3    H260272   4.689   2.073  13.433 -0.7599 -1.2324 -0.7060
12953TIP3   OH260273   4.359   5.818   4.348 -0.6374 -0.6958 -0.1653
12953TIP3    H160274   4.351   5.827   4.253  1.4941  0.1496 -0.3108
12953TIP3    H260275   4.269   5.819   4.380 -1.3523  0.0514 -2.0795
12954TIP3   OH260276   0.487   1.388  14.777 -0.9028 -0.1906 -0.4804
12954TIP3    H160277   0.543   1.310  14.787 -0.2994  0.3360  0.3957
12954TIP3    H260278   0.422   1.380  14.847 -1.9042 -0.7508 -1.4363
12955TIP3   OH260279   3.028   3.192  14.838 -0.1899 -0.3149  0.4978
12955TIP3    H160280   3.042   3.251  14.764 -0.7087  2.9065  2.7617
12955TIP3    H260281   3.073   3.111  14.814  2.8179  1.8447 -1.7811
12956TIP3   OH260282   3.972   0.387   2.424  1.2754  0.5101 -0.2818
12956TIP3    H160283   3.876   0.387   2.424  1.1770  0.6331  2.8182
12956TIP3    H260284   3.996   0.466   2.376 -0.1534  0.4704 -1.1266
12957TIP3   OH260285   3.358   4.940  12.711 -0.0532 -0.0628 -0.1281
12957TIP3    H160286   3.347   4.942  12.616  0.8854 -0.0683 -0.2530
12957TIP3    H260287   3.342   5.030  12.738 -3.2383 -0.5904  0.1179
12958TIP3   OH260288   3.706   3.586  15.882  0.0370  0.7993  0.0377
12958TIP3    H160289   3.631   3.547  15.836  1.5051 -1.2595 -0.7449
12958TIP3    H260290   3.780   3.532  15.857  1.9710  3.1868  0.2171
12959TIP3   OH260291   2.924   0.820  14.770  0.4714  0.4498  0.2413
12959TIP3    H160292   2.978   0.747  14.798  0.6711 -0.3189 -1.9802
12959TIP3    H260293   2.985   0.893  14.760  0.2348  1.0692  2.7008
12960TIP3   OH260294   6.084   1.734   0.447  0.0608 -0.2206 -0.1848
12960TIP3    H160295   6.103   1.705   0.536 -0.8163 -2.2963 -0.6199
12960TIP3    H260296   5.994   1.767   0.452  0.1590  0.0592 -0.2313
12961TIP3   OH260297   5.740   1.022  13.618  0.0074  0.2478 -0.0360
12961TIP3    H160298   5.685   1.019  13.540 -0.4716  0.3522  0.2992
12961TIP3    H260299   5.692   1.076  13.680  0.9877  1.2559 -0.1220
12962TIP3   OH260300   6.055   4.041  16.697  0.3109 -0.0067 -0.1984
12962TIP3    H160301   5.978   3.989  16.720  0.3029 -0.2224 -0.7031
12962TIP3    H260302   6.089   4.000  16.618  0.6426  0.4050 -0.2730
12963TIP3   OH260303   5.274   3.868  14.371  0.3548  0.1276 -0.2339
12963TIP3    H160304   5.298   3.953  14.335 -0.5469  0.2907 -0.4796
12963TIP3    H260305   5.239   3.887  14.457 -1.8798  0.2864 -1.1116
12964TIP3   OH260306   2.448   1.355   0.790 -0.8815  0.2583  0.4300
12964TIP3    H160307   2.490   1.326   0.709  0.7490 -0.3405  1.4380
12964TIP3    H260308   2.378   1.292   0.806 -1.0554  0.2434 -0.3841
12965TIP3   OH260309   2.312   6.618   4.091  0.1466 -0.1749  0.1170
12965TIP3    H160310   2.273   6.584   4.011  1.6133  0.7712 -1.0546
12965TIP3    H260311   2.401   6.583   4.091  1.2981  2.4669 -0.4768
12966TIP3   OH260312   4.618   3.224  14.286 -0.1757 -0.0005 -0.3543
12966TIP3    H160313   4.678   3.235  14.212  1.8357  2.4290  1.4831
12966TIP3    H260314   4.531   3.230  14.247  0.8093  1.9102 -2.4930
12967TIP3   OH260315   0.318   3.251  11.250 -0.0599 -0.1800  0.2395
12967TIP3    H160316   0.272   3.178  11.293  0.6783  0.2149  1.7737
12967TIP3    H260317   0.254   3.322  11.249  0.1470  0.0518  1.4515
12968TIP3   OH260318   4.996   1.270   2.309  0.2402  0.3702  0.2430
12968TIP3    H160319   4.985   1.200   2.374  0.6417  0.2016  0.1273
12968TIP3    H260320   4.964   1.232   2.227 -3.7691  1.6986  0.9324
12969TIP3   OH260321   1.456   1.932  13.880 -0.3680 -0.0711  0.1635
12969TIP3    H160322   1.522   1.891  13.823  1.0741  0.9162  1.0654
12969TIP3    H260323   1.376   1.934  13.826  0.1489 -1.8267 -0.7511
12970TIP3   OH260324   1.956   5.416  14.040  0.5340  0.2376  0.0463
12970TIP3    H160325   1.967   5.330  14.078  0.7776  0.1475 -0.2260
12970TIP3    H260326   1.976   5.405  13.947  1.9899  0.8746  0.2545
12971TIP3   OH260327   6.332   4.329   6.244 -0.1201  0.1113  0.3315
12971TIP3    H160328   6.427   4.335   6.240  0.1394 -1.8601  1.7493
12971TIP3    H260329   6.310   4.256   6.186 -0.8156  0.7841 -0.2679
12972TIP3   OH260330   0.217   6.097   2.699  0.0016 -0.3568 -0.1241
12972TIP3    H160331   0.290   6.106   2.760  0.9613  0.4779 -1.3524
12972TIP3    H260332   0.140   6.123   2.750  0.6132 -0.7490  1.0381
12973TIP3   OH260333   2.760   2.166   2.726  0.1281  0.3290 -0.6285
12973TIP3    H160334   2.745   2.134   2.816  0.2180 -0.3892 -0.8630
12973TIP3    H260335   2.841   2.123   2.699  0.3789  0.9492 -0.8716
12974TIP3   OH260336   3.090   6.131   5.795 -0.6315 -0.0056  0.2433
12974TIP3    H160337   3.173   6.178   5.797 -0.1209 -0.8736  0.1826
12974TIP3    H260338   3.036   6.173   5.862  1.4150 -2.2178  3.5353
12975TIP3   OH260339   6.711   0.504   5.729 -0.3930 -0.0222  0.7601
12975TIP3    H160340   6.772   0.447   5.776 -0.7254  0.2468  1.5211
12975TIP3    H260341   6.760   0.532   5.651 -0.4773 -1.9522 -0.0553
12976TIP3   OH260342   2.583   3.792   0.174  0.1517  0.3258 -0.1773
12976TIP3    H160343   2.651   3.735   0.138  0.8723  1.5792 -0.8708
12976TIP3    H260344   2.592   3.785   0.269 -0.0634 -1.0252 -0.2369
12977TIP3   OH260345   4.554   1.122   3.224 -0.2681 -0.1252  0.4393
12977TIP3    H160346   4.647   1.128   3.244 -0.6799  2.0384  2.0224
12977TIP3    H260347   4.542   1.179   3.148 -0.1631 -1.3511 -0.5395
12978TIP3   OH260348   3.064   5.947  16.129  0.6901  0.1471 -0.3865
12978TIP3    H160349   3.094   5.982  16.212 -2.2090 -0.4070  0.9950
12978TIP3    H260350   3.060   5.852  16.142 -0.1602  0.0809 -1.0181
12979TIP3   OH260351   5.602   5.226   6.163 -0.4751 -0.3381  0.0540
12979TIP3    H160352   5.660   5.183   6.225 -0.6114 -0.2476  0.2460
12979TIP3    H260353   5.545   5.281   6.217 -1.2715 -1.0332 -0.0539
12980TIP3   OH260354   5.792   2.703  16.851 -0.2723 -0.0915 -0.0809
12980TIP3    H160355   5.832   2.658  16.776  1.2034 -0.9647  1.1637
12980TIP3    H260356   5.866   2.741  16.899 -1.1485  0.2277  1.0676
12981TIP3   OH260357   1.228   1.687  12.472 -0.5947 -0.3037 -0.4950
12981TIP3    H160358   1.197   1.750  12.537  0.0738  0.1446 -0.5897
12981TIP3    H260359   1.276   1.622  12.524 -0.5786 -0.2751 -0.4735
12982TIP3   OH260360   1.179   5.117  12.921 -0.5051 -0.0346 -0.1400
12982TIP3    H160361   1.174   5.184  12.989 -1.7644 -0.4889  0.2487
12982TIP3    H260362   1.142   5.039  12.961  2.0090 -1.3536 -0.1953
12983TIP3   OH260363   4.641   6.133   5.831  0.0682 -0.3757  0.2531
12983TIP3    H160364   4.722   6.102   5.873  0.5676  0.0735 -0.3612
12983TIP3    H260365   4.671   6.188   5.759 -0.7915  0.5888  0.6108
12984TIP3   OH260366   2.907   3.792  12.637 -0.3030 -0.3342  0.2002
12984TIP3    H160367   2.865   3.748  12.711  0.0245 -0.1654  0.4893
12984TIP3    H260368   2.996   3.809  12.667  0.3273 -1.6599 -0.7933
12985TIP3   OH260369   4.619   2.339  15.768  0.9505 -0.0171 -0.9176
12985TIP3    H160370   4.616   2.246  15.747 -1.2602  0.2844 -2.2685
12985TIP3    H260371   4.557   2.350  15.840  2.5483  0.1931  0.4904
12986TIP3   OH260372   6.069   5.068  11.497  0.0058 -0.7532 -0.3668
12986TIP3    H160373   6.121   5.100  11.423 -1.7372  1.9776 -0.5642
12986TIP3    H260374   6.134   5.036  11.560  1.8622  1.0890 -1.2226
12987TIP3   OH260375   1.236   2.782  11.148 -0.1462  0.0592 -0.7859
12987TIP3    H160376   1.147   2.772  11.113  0.0434 -0.3901 -1.1573
12987TIP3    H260377   1.290   2.724  11.093  0.3903  0.3964 -0.6231
12988TIP3   OH260378   3.479   6.246  10.766 -0.0844  0.1717 -0.0298
12988TIP3    H160379   3.398   6.291  10.791 -0.3813  0.2457 -1.0741
12988TIP3    H260380   3.539   6.317  10.742 -0.5821  0.0448 -1.7665
12989TIP3   OH260381   0.492   6.255  15.951 -0.4128 -0.4321 -0.5449
12989TIP3    H160382   0.476   6.161  15.940  1.5457 -0.7073 -1.5384
12989TIP3    H260383   0.537   6.281  15.871  0.4345  1.0237  0.3554
12990TIP3   OH260384   4.882   3.443   5.616  0.1930 -0.4104  0.2228
12990TIP3    H160385   4.788   3.451   5.635  0.2586  1.4120 -0.0329
12990TIP3    H260386   4.905   3.355   5.644 -1.2694 -0.3508  1.7685
12991TIP3   OH260387   2.904   1.102   3.073 -0.3285 -0.4676 -0.5999
12991TIP3    H160388   2.891   1.159   2.997 -2.0465  0.4789  0.3609
12991TIP3    H260389   2.982   1.138   3.116 -1.3555  1.1743 -0.0367
12992TIP3   OH260390   6.077   3.658  10.616  0.5595 -0.2508 -0.2243
12992TIP3    H160391   6.002   3.698  10.660  0.1356 -1.9708  0.6912
12992TIP3    H260392   6.129   3.733  10.586  0.3286  1.0248  2.2474
12993TIP3   OH260393   3.326   3.140  16.902 -0.5103  0.1789  0.1525
12993TIP3    H160394   3.325   3.184  16.987 -1.3613  1.2664 -0.3966
12993TIP3    H260395   3.258   3.072  16.909 -3.1621  2.5296 -0.7376
12994TIP3   OH260396   2.683   5.812   4.739  0.1034  0.4850 -0.3092
12994TIP3    H160397   2.775   5.784   4.741 -0.2769 -1.0373 -1.5673
12994TIP3    H260398   2.658   5.818   4.831  1.1454 -0.2362  0.0443
12995TIP3   OH260399   4.513   5.332   1.417 -0.2614 -0.0697 -0.3774
12995TIP3    H160400   4.450   5.367   1.355  0.7452  2.5071 -0.0805
12995TIP3    H260401   4.468   5.260   1.460 -2.5424  0.8888 -1.0450
12996TIP3   OH260402   1.685   1.646  12.769 -0.2895  0.3414  0.3692
12996TIP3    H160403   1.779   1.662  12.765 -0.3189  0.2590 -1.2117
12996TIP3    H260404   1.647   1.732  12.785  0.0942  0.1342  2.9425
12997TIP3   OH260405   1.779   5.232  15.201 -0.4355  0.0086 -0.0764
12997TIP3    H160406   1.732   5.212  15.120 -1.1200 -0.4646  0.4172
12997TIP3    H260407   1.713   5.220  15.270  0.6829 -1.8405  0.7477
12998TIP3   OH260408   1.130   5.858  14.227  0.1427  0.3410  0.1587
12998TIP3    H160409   1.203   5.909  14.192 -0.4739 -0.3440 -2.3321
12998TIP3    H260410   1.058   5.875  14.166 -2.0433  1.4359  2.8053
12999TIP3   OH260411   5.069   1.413  12.018 -0.1098  0.4281 -0.7090
12999TIP3    H160412   5.067   1.328  12.062 -0.4015  1.4752  1.4125
12999TIP3    H260413   5.160   1.423  11.991 -0.0812 -0.5665 -1.0450
13000TIP3   OH260414   3.307   6.336  15.992 -0.1288 -0.4314 -0.2924
13000TIP3    H160415   3.350   6.408  16.038 -0.8439 -0.2399  0.1055
13000TIP3    H260416   3.363   6.317  15.917  1.0978 -0.7800  0.6809
13001TIP3   OH260417   0.754   1.011   1.478  0.2599  0.2907 -0.7039
13001TIP3    H160418   0.819   0.942   1.465 -0.9471 -0.5989 -2.5690
13001TIP3    H260419   0.694   0.976   1.543  0.7161  0.4131 -0.2138
13002TIP3   OH260420   6.764   4.847  12.362  0.2883 -0.3876 -0.7139
13002TIP3    H160421   6.692   4.834  12.300 -0.5256 -1.3180  0.3645
13002TIP3    H260422   6.734   4.804  12.442  0.7580  1.8234  0.7472
13003TIP3   OH260423   1.934   4.053   0.419  0.5210 -0.1405  0.0155
13003TIP3    H160424   1.930   3.975   0.474 -0.2576 -0.6013 -0.6649
13003TIP3    H260425   2.027   4.062   0.397  0.4943 -1.4918 -0.7495
13004TIP3   OH260426   6.510   3.287   1.447 -0.5732 -0.5879 -0.3900
13004TIP3    H160427   6.456   3.362   1.473  0.5452 -0.0256  0.3842
13004TIP3    H260428   6.500   3.224   1.518  0.7462  0.0343  0.3711
13005TIP3   OH260429   1.554   6.623  11.951 -0.4341  0.3740  0.3487
13005TIP3    H160430   1.514   6.569  12.018 -1.1398  1.1173  0.5422
13005TIP3    H260431   1.522   6.712  11.969  0.2113  0.7577 -0.3225
13006TIP3   OH260432   6.460   6.222  13.962  0.1111  0.1226  0.1414
13006TIP3    H160433   6.400   6.279  14.010 -1.7531 -0.1312 -1.7295
13006TIP3    H260434   6.403   6.168  13.907  2.0797  0.7775 -2.7582
13007TIP3   OH260435   0.520   1.653  13.506 -0.0283 -0.1740  0.5953
13007TIP3    H160436   0.567   1.631  13.426 -0.7602  0.0701  0.0953
13007TIP3    H260437   0.515   1.749  13.505 -1.4968 -0.2412  0.0849
13008TIP3   OH260438   1.348   0.679  16.857  0.1909 -0.3547  0.2939
13008TIP3    H160439   1.265   0.685  16.809 -0.6560 -2.4799  1.3407
13008TIP3    H260440   1.323   0.683  16.949  1.6431  2.1860  0.6743
13009TIP3   OH260441   5.566   0.444   5.420  0.5246  0.1031  0.1139
13009TIP3    H160442   5.636   0.505   5.398  1.4204 -0.7317  0.5821
13009TIP3    H260443   5.543   0.403   5.337 -1.0342  1.9917 -0.4714
13010TIP3   OH260444   6.271   3.720   2.080  0.0818  0.3683 -0.3506
13010TIP3    H160445   6.273   3.707   1.985 -0.3576  1.8961 -0.5886
13010TIP3    H260446   6.362   3.703   2.107  0.3805  0.6116 -1.1496
13011TIP3   OH260447   3.989   3.225   6.356  0.0767  0.3876 -0.5152
13011TIP3    H160448   3.987   3.320   6.366 -0.5799  0.1298  2.9518
13011TIP3    H260449   3.898   3.200   6.339  0.0192  0.2905 -0.0739
13012TIP3   OH260450   5.864   5.463  15.014  0.0730 -0.1059  0.2178
13012TIP3    H160451   5.935   5.402  15.036  0.6511 -0.5987 -2.6143
13012TIP3    H260452   5.905   5.549  15.010  0.7714 -0.4661 -2.0023
13013TIP3   OH260453   6.098   2.819   1.907 -0.9257  0.2622 -0.4241
13013TIP3    H160454   6.070   2.819   1.815  1.5022 -0.0930 -1.2568
13013TIP3    H260455   6.023   2.786   1.955 -2.1314  0.0428 -2.3457
13014TIP3   OH260456   1.452   4.133  11.803 -0.4716  0.1547  0.3462
13014TIP3    H160457   1.543   4.156  11.824 -0.7031  0.6228  0.8443
13014TIP3    H260458   1.410   4.217  11.785 -1.5254  0.2719  2.9375
13015TIP3   OH260459   6.097   1.203   1.046 -0.3862 -0.1065  0.3304
13015TIP3    H160460   6.038   1.209   0.970  1.5911  2.3838 -1.1717
13015TIP3    H260461   6.113   1.109   1.056 -1.9294 -0.6210 -1.3642
13016TIP3   OH260462   0.610   5.541   3.479 -0.1782  0.2920 -0.3621
13016TIP3    H160463   0.596   5.508   3.390  0.5351 -0.3985 -0.2281
13016TIP3    H260464   0.530   5.520   3.526 -0.3253  0.1257 -0.6880
13017TIP3   OH260465   1.852   1.850  13.378  0.4052 -0.1107  0.1642
13017TIP3    H160466   1.863   1.821  13.288 -2.5623 -0.5185 -0.1786
13017TIP3    H260467   1.858   1.946  13.374 -2.0850  0.0711 -0.9842
13018TIP3   OH260468   3.583   5.294  14.014  0.1927  0.1905  0.9574
13018TIP3    H160469   3.612   5.203  14.021  0.7110  0.1861 -0.8531
13018TIP3    H260470   3.488   5.289  14.005  0.2533 -0.2007  0.5274
13019TIP3   OH260471   6.208   0.864  15.108 -0.4642 -0.7154  0.1074
13019TIP3    H160472   6.188   0.849  15.200 -2.0088  1.7847  0.2843
13019TIP3    H260473   6.275   0.933  15.109 -0.4146 -0.7451 -0.6294
13020TIP3   OH260474   2.244   1.042   0.456  0.1842  0.0030 -0.2041
13020TIP3    H160475   2.201   1.007   0.378  0.7526  1.5911 -1.2739
13020TIP3    H260476   2.177   1.098   0.497 -0.3956 -1.4821  0.9550
13021TIP3   OH260477   0.432   2.839  12.629 -0.2835 -0.3789 -0.2381
13021TIP3    H160478   0.344   2.861  12.596 -0.2338 -0.7004 -0.5957
13021TIP3    H260479   0.463   2.771  12.569 -0.8761 -2.2438  1.4834
13022TIP3   OH260480   0.058   4.337  10.512  0.1938  0.2934 -0.3312
13022TIP3    H160481  -0.002   4.343  10.438  0.9064  0.4321 -0.9072
13022TIP3    H260482   0.134   4.389  10.485  0.9406 -0.5945  0.0356
13023TIP3   OH260483   2.521   6.706  10.621 -0.0264 -0.1110 -0.1307
13023TIP3    H160484   2.536   6.765  10.695  0.9438 -2.5909  1.8035
13023TIP3    H260485   2.515   6.619  10.661 -1.4939 -1.3565 -2.8159
13024TIP3   OH260486   4.993   4.050  12.066  0.5472  0.3927 -0.3019
13024TIP3    H160487   5.020   4.133  12.105 -0.4351  0.0101  1.2546
13024TIP3    H260488   4.898   4.048  12.077  0.4340 -0.4918 -1.2568
13025TIP3   OH260489   4.913   3.034  12.380  0.4181  0.1826 -0.8426
13025TIP3    H160490   4.991   3.061  12.428  1.2669  0.1879 -2.1615
13025TIP3    H260491   4.881   3.114  12.338  0.7764 -0.1452 -1.7663
13026TIP3   OH260492   0.774   3.720   2.001 -0.4951 -0.0169 -0.2556
13026TIP3    H160493   0.838   3.667   1.953 -1.4588 -0.6943 -0.8257
13026TIP3    H260494   0.827   3.777   2.056  0.5994 -2.2466  1.1465
13027TIP3   OH260495   0.035   6.348  13.647 -0.8917 -0.0344  0.1572
13027TIP3    H160496   0.054   6.271  13.593 -2.3586  1.0208 -2.0450
13027TIP3    H260497   0.111   6.405  13.636 -0.4616 -0.5222  0.5693
13028TIP3   OH260498   5.919   2.854  11.851  0.1018 -0.1966 -0.1555
13028TIP3    H160499   5.910   2.936  11.900  0.9679  0.0356 -0.3626
13028TIP3    H260500   5.963   2.795  11.911  2.9820  0.6960 -1.2308
13029TIP3   OH260501   0.305   6.634   4.421  0.1708 -0.0017 -0.2949
13029TIP3    H160502   0.294   6.541   4.399 -2.1695  0.2133 -0.2676
13029TIP3    H260503   0.342   6.673   4.341 -0.4771 -0.6725 -0.9453
13030TIP3   OH260504   2.835   4.036  11.677  0.1940  0.0071 -0.0029
13030TIP3    H160505   2.923   4.051  11.711 -0.0298  1.3621  0.0079
13030TIP3    H260506   2.800   3.966  11.733  0.0999  1.6517  2.1516
13031TIP3   OH260507   0.870   6.658   2.192  0.0402  0.0381  0.5996
13031TIP3    H160508   0.902   6.738   2.233 -0.5265  0.7474 -0.2879
13031TIP3    H260509   0.871   6.593   2.262  0.6405  0.7817  1.3030
13032TIP3   OH260510   5.371   5.162  16.979  0.0769 -0.4998  0.0925
13032TIP3    H160511   5.395   5.073  17.005  0.6811  0.0523  1.5565
13032TIP3    H260512   5.325   5.197  17.056 -1.1476  0.0931 -0.8799
13033TIP3   OH260513   6.386   0.945   0.775 -0.0129  0.5331 -0.7222
13033TIP3    H160514   6.464   0.897   0.746 -0.5752 -1.5565  1.0285
13033TIP3    H260515   6.328   0.946   0.699  1.5685  1.9533 -1.9943
13034TIP3   OH260516   1.956   4.733   3.601  0.7433 -0.3136 -0.3381
13034TIP3    H160517   1.958   4.828   3.593 -1.8142 -0.0321  1.2906
13034TIP3    H260518   1.983   4.716   3.692  1.1254 -1.1608 -0.5966
13035TIP3   OH260519   2.150   2.970   2.574  0.4190 -0.0674  0.3068
13035TIP3    H160520   2.174   2.991   2.665  2.0132 -0.3206 -0.0352
13035TIP3    H260521   2.125   3.054   2.536  1.1397  0.2812  0.5843
13036TIP3   OH260522   4.443   5.530  15.985  0.2583 -0.1598 -0.1510
13036TIP3    H160523   4.380   5.463  16.014 -0.7949  0.7700 -0.2157
13036TIP3    H260524   4.414   5.553  15.897  0.6282  0.3617 -0.1380
13037TIP3   OH260525   2.263   6.500  15.442  0.3301  0.0836 -0.0050
13037TIP3    H160526   2.306   6.519  15.359  0.3549 -0.8422 -0.2166
13037TIP3    H260527   2.223   6.414  15.430 -2.3097  1.2231 -0.1063
13038TIP3   OH260528   4.945   4.958   6.725  0.1363  0.0224 -0.3176
13038TIP3    H160529   4.991   4.999   6.652  0.0579 -0.0098 -0.3861
13038TIP3    H260530   4.945   5.024   6.794  1.4620 -0.4563  0.1756
13039TIP3   OH260531   4.367   1.702   5.431 -0.0576  0.0110 -0.2455
13039TIP3    H160532   4.418   1.782   5.421 -0.0735 -0.1445 -1.6992
13039TIP3    H260533   4.407   1.657   5.506  0.9619  0.6066 -0.4203
13040TIP3   OH260534   4.365   6.681   4.275 -0.0703 -0.6442  0.3324
13040TIP3    H160535   4.358   6.761   4.328 -0.8386  0.0627 -0.7740
13040TIP3    H260536   4.458   6.659   4.277  0.5170  1.4169 -0.8788
13041TIP3   OH260537   3.982   0.750  12.028 -0.4263 -0.4175 -0.4180
13041TIP3    H160538   4.078   0.751  12.030 -0.4379  1.4045  0.7937
13041TIP3    H260539   3.956   0.716  12.114 -0.8647  0.4749 -0.1906
13042TIP3   OH260540   2.655   5.216  12.656  0.0110 -0.3741  0.2938
13042TIP3    H160541   2.563   5.210  12.681  0.0725 -1.1532  0.3297
13042TIP3    H260542   2.690   5.288  12.710 -1.0991  1.4936 -1.3418
13043TIP3   OH260543   1.222   0.364  12.704  0.1258 -0.2818  0.0863
13043TIP3    H160544   1.228   0.375  12.799 -0.1430 -0.8991  0.1829
13043TIP3    H260545   1.273   0.436  12.668 -3.4203  2.7898  0.5899
13044TIP3   OH260546   1.341   5.750  10.826 -0.3813 -0.5622  1.0342
13044TIP3    H160547   1.317   5.679  10.885 -0.2630 -3.6619 -2.2418
13044TIP3    H260548   1.258   5.791  10.802 -0.9754 -2.2281  0.0725
13045TIP3   OH260549   1.111   1.452  14.087  0.7363  0.6771 -0.7261
13045TIP3    H160550   1.041   1.410  14.037 -0.2297  0.7771  0.5162
13045TIP3    H260551   1.074   1.536  14.114  0.3553 -0.2792  2.0635
13046TIP3   OH260552   5.795   4.965   5.104  0.1838  0.1864 -0.3188
13046TIP3    H160553   5.834   5.047   5.131  1.7618 -0.6398  0.0392
13046TIP3    H260554   5.714   4.959   5.155  0.0544  1.4861 -0.3391
13047TIP3   OH260555   0.867   4.751   2.198  0.1855 -0.2680 -0.3871
13047TIP3    H160556   0.819   4.669   2.203 -0.2425  0.0257  0.5882
13047TIP3    H260557   0.901   4.754   2.108  0.5921 -1.7100 -0.2900
13048TIP3   OH260558   2.050   0.965   6.087  0.2932  0.2509  0.1069
13048TIP3    H160559   2.141   0.967   6.058  0.2896  0.8881  0.1245
13048TIP3    H260560   2.046   0.893   6.149  0.7271  0.0577 -0.0865
13049TIP3   OH260561   1.014   1.554   4.614 -0.3679 -0.4014 -0.5013
13049TIP3    H160562   1.006   1.603   4.696 -0.5250  1.9599 -1.8132
13049TIP3    H260563   0.950   1.484   4.621 -0.5793 -0.0821  1.2712
13050TIP3   OH260564   2.989   5.570   1.939  0.0635  0.0336  0.0919
13050TIP3    H160565   3.065   5.584   1.995  1.1893 -1.6113 -0.9171
13050TIP3    H260566   2.977   5.475   1.939 -2.0627  0.2656  0.2935
13051TIP3   OH260567   3.654   6.093   2.055 -0.8975  0.2868  0.0970
13051TIP3    H160568   3.684   6.111   1.966  0.0650  0.3277  0.4195
13051TIP3    H260569   3.559   6.107   2.051 -0.8361  0.5343 -0.8569
13052TIP3   OH260570   5.157   6.080  15.998 -0.3789  0.3513 -0.5666
13052TIP3    H160571   5.250   6.101  15.991 -0.3130  0.0615 -0.6037
13052TIP3    H260572   5.143   6.067  16.092 -0.3224  0.1408 -0.5863
13053TIP3   OH260573   4.286   3.115   0.611 -0.1079 -0.2371 -0.1030
13053TIP3    H160574   4.375   3.081   0.604 -0.3465 -1.0912  0.7433
13053TIP3    H260575   4.235   3.041   0.645 -1.2932  0.0137 -1.2401
13054TIP3   OH260576   4.431   1.210  13.953 -0.4243 -0.6234 -0.2045
13054TIP3    H160577   4.342   1.174  13.963  0.1105 -1.4426  1.9697
13054TIP3    H260578   4.489   1.138  13.978  0.7955  0.5364  0.4171
13055TIP3   OH260579   2.487   4.351   4.867 -0.2025  0.0101  0.5452
13055TIP3    H160580   2.563   4.355   4.809 -0.0116 -1.5304  0.6373
13055TIP3    H260581   2.508   4.410   4.939  1.5045 -1.3556  1.2186
13056TIP3   OH260582   1.093   1.142  13.129 -0.1049 -0.2980 -0.5024
13056TIP3    H160583   1.046   1.122  13.209  0.1477  1.1062  0.0311
13056TIP3    H260584   1.139   1.061  13.106 -0.2975 -0.7529  0.6799
13057TIP3   OH260585   6.453   4.272  12.862 -0.3273  0.0456 -1.1285
13057TIP3    H160586   6.419   4.210  12.797 -2.3844  0.5302 -0.5969
13057TIP3    H260587   6.419   4.356  12.834 -0.7415  0.3513  0.2453
13058TIP3   OH260588   0.767   1.882  16.883 -0.6209 -0.0352 -0.8789
13058TIP3    H160589   0.695   1.820  16.891  0.9029 -2.3945 -3.5036
13058TIP3    H260590   0.803   1.890  16.971 -3.5382  0.6819  0.3575
13059TIP3   OH260591   2.580   1.399   2.929 -0.5288 -0.0620 -0.0101
13059TIP3    H160592   2.671   1.368   2.929 -1.0445 -1.7590 -0.9473
13059TIP3    H260593   2.561   1.415   2.836 -1.5920 -1.1857 -0.0199
13060TIP3   OH260594   1.174   1.834   1.920 -0.0208  0.3707 -0.2097
13060TIP3    H160595   1.209   1.838   1.831  0.5021  0.0676 -0.0255
13060TIP3    H260596   1.202   1.915   1.961 -0.0187  0.3831 -0.2360
13061TIP3   OH260597   0.199   6.718  14.187 -0.8397  0.1191  0.1595
13061TIP3    H160598   0.141   6.660  14.138 -0.6898  1.5103 -1.8321
13061TIP3    H260599   0.175   6.806  14.157  2.7214  0.7451 -1.3934
13062TIP3   OH260600   3.837   1.564  12.070  0.0059  0.8526 -0.0637
13062TIP3    H160601   3.784   1.517  12.006 -3.9014  1.9986  1.9609
13062TIP3    H260602   3.896   1.499  12.106 -0.1632 -0.6374 -2.2970
13063TIP3   OH260603   3.380   3.898  14.970  0.4545  0.2939 -0.3780
13063TIP3    H160604   3.453   3.941  15.015 -0.7131 -0.1024  2.0360
13063TIP3    H260605   3.371   3.814  15.014 -0.1314 -0.5815 -2.0802
13064TIP3   OH260606   0.413   2.310  13.433 -0.1443 -0.2933 -0.1167
13064TIP3    H160607   0.359   2.321  13.512  1.6467 -0.7937  1.2493
13064TIP3    H260608   0.406   2.394  13.388 -1.6779 -0.1938  0.2571
13065TIP3   OH260609   5.218   3.814   1.388  0.2867 -0.0835  0.0649
13065TIP3    H160610   5.155   3.840   1.455 -0.2759 -0.7313 -0.1982
13065TIP3    H260611   5.171   3.826   1.305  0.3188 -1.0275 -0.1111
13066TIP3   OH260612   3.262   0.231   5.978 -0.4328  0.7613 -0.1338
13066TIP3    H160613   3.252   0.324   5.999 -0.9856  0.5725  0.4887
13066TIP3    H260614   3.228   0.185   6.055  0.4045  0.0389 -0.1660
13067TIP3   OH260615   0.285   6.362   2.607 -0.2025 -0.2100 -0.1315
13067TIP3    H160616   0.336   6.353   2.527 -0.3023 -0.7958 -0.1364
13067TIP3    H260617   0.255   6.273   2.626  1.2125 -0.3875  1.4695
13068TIP3   OH260618   4.313   0.525   4.681  0.5000  0.0508  0.3258
13068TIP3    H160619   4.381   0.472   4.722 -0.4735 -1.1490  0.4187
13068TIP3    H260620   4.269   0.570   4.753  0.3632 -0.1668  0.3765
13069TIP3   OH260621   5.638   6.769  12.916  0.4585  0.4529 -0.5859
13069TIP3    H160622   5.611   6.846  12.967 -0.1683  0.5380 -1.0370
13069TIP3    H260623   5.599   6.783  12.830 -0.2383 -0.6879 -0.4740
13070TIP3   OH260624   2.848   5.772  13.816  0.4100 -0.1956  0.0652
13070TIP3    H160625   2.806   5.811  13.739 -0.0871 -0.9540 -0.0564
13070TIP3    H260626   2.940   5.762  13.791  0.3223 -0.1087 -0.2965
13071TIP3   OH260627   4.090   0.195  11.511 -0.2040  0.5685  0.5882
13071TIP3    H160628   4.058   0.233  11.593 -2.0364 -2.2128  1.3130
13071TIP3    H260629   4.014   0.148  11.476  1.6541 -1.7495 -0.5596
13072TIP3   OH260630   0.594   5.652  13.924 -0.0393 -0.2663  0.2062
13072TIP3    H160631   0.614   5.561  13.947  2.1696  0.3911  1.1993
13072TIP3    H260632   0.500   5.661  13.937 -0.2055 -2.2529  0.6344
13073TIP3   OH260633   2.851   1.111  16.021 -0.2516 -1.0694  0.1239
13073TIP3    H160634   2.914   1.043  15.997  0.5172 -0.0041 -0.9451
13073TIP3    H260635   2.773   1.090  15.969  0.3644 -0.5284 -1.0586
13074TIP3   OH260636   6.488   6.348  17.059  0.6566 -0.2612 -0.2834
13074TIP3    H160637   6.546   6.423  17.069  1.6929 -1.2310  1.1717
13074TIP3    H260638   6.440   6.343  17.142  1.5704 -1.9836  0.1817
13075TIP3   OH260639   1.549   4.983  16.108 -0.0043  0.4156 -0.3001
13075TIP3    H160640   1.620   5.033  16.067  1.1635 -1.4406 -0.6655
13075TIP3    H260641   1.577   4.972  16.199  0.4680 -0.7493 -0.5664
13076TIP3   OH260642   6.313   0.777   6.002  0.0213  0.3612  0.4596
13076TIP3    H160643   6.290   0.694   6.044  1.6962 -0.6873 -0.5604
13076TIP3    H260644   6.234   0.802   5.953 -0.4413 -0.7522  0.6117
13077TIP3   OH260645   0.534   5.764  12.876  0.2016  0.1494  0.9240
13077TIP3    H160646   0.606   5.799  12.928 -0.3584  0.6544  1.3698
13077TIP3    H260647   0.511   5.682  12.920  0.9243 -0.3450  0.4004
13078TIP3   OH260648   0.214   0.181   2.589 -0.1804 -0.2534 -0.3118
13078TIP3    H160649   0.295   0.229   2.573 -0.3883  0.0872 -0.3348
13078TIP3    H260650   0.229   0.095   2.548 -0.0903  0.0476 -0.9129
13079TIP3   OH260651   0.455   5.828  14.188 -0.0054 -0.1313  0.3280
13079TIP3    H160652   0.508   5.835  14.267 -0.5619  0.5104  0.6626
13079TIP3    H260653   0.369   5.798  14.220 -0.2772  0.2793 -0.0103
13080TIP3   OH260654   6.436   5.302  13.193 -0.8212  0.5049  0.2526
13080TIP3    H160655   6.509   5.304  13.255  0.8067 -0.3657 -1.5197
13080TIP3    H260656   6.441   5.385  13.147  1.1157 -0.7130 -1.9787
13081TIP3   OH260657   2.702   4.195   0.806 -0.1790 -0.0161  0.1111
13081TIP3    H160658   2.771   4.254   0.777 -0.3229  0.0620 -0.0701
13081TIP3    H260659   2.688   4.136   0.731  1.4186 -1.6283  0.9842
13082TIP3   OH260660   3.060   1.872  11.763 -0.2130 -0.1063 -0.2299
13082TIP3    H160661   3.147   1.911  11.766 -1.0421  1.7983  1.0984
13082TIP3    H260662   3.067   1.792  11.815  1.0769 -0.7688 -1.3887
13083TIP3   OH260663   5.243   6.376  13.992 -0.0034 -0.4495  0.1138
13083TIP3    H160664   5.251   6.299  14.048  1.6253 -0.9400 -0.7453
13083TIP3    H260665   5.295   6.444  14.035 -0.0403 -0.3438 -0.0067
13084TIP3   OH260666   2.087   5.125  11.782 -0.3261  0.0092  0.1099
13084TIP3    H160667   2.059   5.099  11.694 -1.3284 -0.1730  0.4719
13084TIP3    H260668   2.069   5.219  11.785  0.4774  0.1758 -0.1576
13085TIP3   OH260669   5.957   4.503   5.101 -0.1462 -0.5515 -0.0692
13085TIP3    H160670   5.875   4.477   5.060 -0.6832 -0.6256  1.0079
13085TIP3    H260671   5.958   4.599   5.096  0.6786 -0.6123 -1.8651
13086TIP3   OH260672   5.521   5.357   2.599  0.2950 -0.2844 -0.5478
13086TIP3    H160673   5.608   5.318   2.609  0.6933  0.5175 -0.8499
13086TIP3    H260674   5.463   5.282   2.587  0.9355 -0.8298 -0.3145
13087TIP3   OH260675   6.689   1.493   4.140  0.0907 -0.2260  0.5197
13087TIP3    H160676   6.693   1.397   4.148  0.3577 -0.2987 -0.3642
13087TIP3    H260677   6.727   1.525   4.222  1.2318 -0.8795  0.2674
13088TIP3   OH260678   0.831   5.779   4.915 -0.2970  0.1571 -0.1282
13088TIP3    H160679   0.747   5.760   4.958 -0.6974 -0.3975 -1.1294
13088TIP3    H260680   0.832   5.722   4.838  1.1525 -0.0868  0.0485
13089TIP3   OH260681   2.101   4.326  15.361 -0.1135  0.6830  0.4207
13089TIP3    H160682   2.174   4.356  15.415 -0.0495  3.0851 -0.8974
13089TIP3    H260683   2.034   4.300  15.424  0.6676  1.5581  1.6641
13090TIP3   OH260684   1.067   4.467   0.273 -0.3086  0.7007 -0.0424
13090TIP3    H160685   1.075   4.546   0.219 -0.3734 -0.4590 -1.8486
13090TIP3    H260686   0.984   4.428   0.245 -0.1905 -0.0979  0.6981
13091TIP3   OH260687   1.768   0.522   4.891 -0.5766 -0.0463 -0.0537
13091TIP3    H160688   1.818   0.580   4.949 -1.0693 -0.1199  0.4472
13091TIP3    H260689   1.704   0.579   4.849 -0.0391  0.0615 -0.7527
13092TIP3   OH260690   4.722   4.023   0.610  0.5665 -0.3057  0.3691
13092TIP3    H160691   4.703   4.077   0.687 -2.2263 -0.3788 -0.1744
13092TIP3    H260692   4.731   3.934   0.645  1.2137 -0.0798  0.8018
13093TIP3   OH260693   4.716   1.153   4.804 -0.0905 -0.3870 -0.0218
13093TIP3    H160694   4.783   1.097   4.843 -2.0216 -1.0805  2.5804
13093TIP3    H260695   4.636   1.133   4.853 -1.4903  2.7626 -0.7583
13094TIP3   OH260696   3.422   2.158  13.315 -0.6018  0.0972 -0.3666
13094TIP3    H160697   3.479   2.090  13.349  0.3011  0.2365 -1.5507
13094TIP3    H260698   3.402   2.130  13.225 -2.2247  0.1604 -0.0546
13095TIP3   OH260699   3.050   0.910   0.551 -0.5500  0.1836 -0.2879
13095TIP3    H160700   2.990   0.956   0.610  0.3332  0.4979  0.3926
13095TIP3    H260701   3.137   0.940   0.577 -0.0811 -0.3930 -1.1413
13096TIP3   OH260702   4.659   6.251   6.494 -0.3979 -0.1808 -0.0346
13096TIP3    H160703   4.666   6.345   6.479  0.3989 -0.2495 -0.1402
13096TIP3    H260704   4.607   6.219   6.421  2.6221 -0.3724 -2.3211
13097TIP3   OH260705   6.296   2.635   1.247  0.3943 -0.3163  0.5389
13097TIP3    H160706   6.380   2.621   1.291  0.2945 -1.0776  0.4996
13097TIP3    H260707   6.301   2.581   1.168 -0.0974 -0.3010  0.4927
13098TIP3   OH260708   2.924   2.129   4.760 -0.2940  0.0054  0.2477
13098TIP3    H160709   2.914   2.120   4.855  1.7065 -0.3525  0.4560
13098TIP3    H260710   3.018   2.126   4.745 -0.6131 -1.2990 -1.8962
13099TIP3   OH260711   4.578   2.339   2.837 -0.6154  0.6296  0.0603
13099TIP3    H160712   4.641   2.373   2.901  1.3200 -0.9068 -0.9548
13099TIP3    H260713   4.531   2.270   2.885 -0.9100  1.1387  0.5278
13100TIP3   OH260714   1.878   2.278   5.770 -0.8403 -0.4372  0.3267
13100TIP3    H160715   1.906   2.188   5.758  1.0037 -0.0887  1.6755
13100TIP3    H260716   1.866   2.288   5.864  1.6892  1.3918  0.5736
13101TIP3   OH260717   2.746   0.378   5.783  0.2524 -0.7572  0.1226
13101TIP3    H160718   2.812   0.422   5.837 -0.3420 -0.1216  0.3464
13101TIP3    H260719   2.795   0.313   5.734  0.7996 -1.4186  1.5055
13102TIP3   OH260720   0.017   3.530   1.345  0.6341  0.5274 -0.6880
13102TIP3    H160721   0.089   3.555   1.287  1.1804  0.6539  0.0308
13102TIP3    H260722   0.030   3.436   1.360  1.6084  0.8596  0.7171
13103TIP3   OH260723   4.867   1.660   4.499  0.4539  0.0238  0.4297
13103TIP3    H160724   4.797   1.647   4.435  0.3790  1.4457  0.1888
13103TIP3    H260725   4.831   1.724   4.560  1.1696 -0.0129  0.9016
13104TIP3   OH260726   6.216   2.811  16.264 -0.4827 -0.0789 -0.3858
13104TIP3    H160727   6.254   2.879  16.319  1.0645 -0.6239 -0.7306
13104TIP3    H260728   6.287   2.784  16.206 -1.4966 -0.9301 -1.2870
13105TIP3   OH260729   5.983   5.134  16.926 -0.1484 -0.3152 -0.3148
13105TIP3    H160730   5.888   5.143  16.935 -0.0416 -0.1317  0.7492
13105TIP3    H260731   5.995   5.050  16.882 -0.7388 -2.1247  2.6322
13106TIP3   OH260732   5.119   6.317  14.620 -0.5590 -0.3670  0.2006
13106TIP3    H160733   5.136   6.228  14.650 -2.9784 -0.1550  2.5571
13106TIP3    H260734   5.036   6.342  14.662 -1.3316  2.0940 -2.3978
13107TIP3   OH260735   4.593   4.564  16.724  0.1922  0.1146  0.6696
13107TIP3    H160736   4.553   4.609  16.798  1.7385 -0.6382  2.0270
13107TIP3    H260737   4.685   4.592  16.726  0.4541 -0.6096 -0.4162
13108TIP3   OH260738   3.966   0.149  15.461  0.3587  0.2947  0.2900
13108TIP3    H160739   3.920   0.229  15.488 -0.3196 -0.0052  0.0451
13108TIP3    H260740   3.896   0.083  15.452  1.2253 -1.3921  4.1142
13109TIP3   OH260741   3.259   3.433   5.387  0.0087  0.0234  0.2532
13109TIP3    H160742   3.230   3.387   5.308  1.0908 -1.6435  0.7777
13109TIP3    H260743   3.178   3.449   5.437 -0.5656  0.2038 -0.7127
13110TIP3   OH260744   4.622   2.878   1.522 -0.4556  0.4865 -0.3352
13110TIP3    H160745   4.540   2.878   1.473  0.9946 -0.3912 -2.9529
13110TIP3    H260746   4.688   2.845   1.460  1.5975 -0.4834  2.1582
13111TIP3   OH260747   0.309   5.821   5.201  0.6699  0.2764  0.2849
13111TIP3    H160748   0.318   5.726   5.213 -0.5738  0.0264 -0.4919
13111TIP3    H260749   0.261   5.850   5.278  0.6518  0.1928  0.3057
13112TIP3   OH260750   5.820   2.630   5.380  0.0474 -0.3957  0.3639
13112TIP3    H160751   5.898   2.664   5.422  1.0479 -1.0337 -0.8982
13112TIP3    H260752   5.842   2.539   5.358 -0.7696 -0.3768 -0.6357
13113TIP3   OH260753   1.645   1.626  12.264  0.5974 -0.0003 -0.0289
13113TIP3    H160754   1.602   1.542  12.275 -1.1012  0.6922 -1.0679
13113TIP3    H260755   1.739   1.605  12.266  0.2565 -1.6300  1.6347
13114TIP3   OH260756   4.220   4.932  14.414  0.7143 -0.2979  0.4149
13114TIP3    H160757   4.234   4.840  14.439  2.3865 -0.1955 -0.0212
13114TIP3    H260758   4.300   4.957  14.368 -0.0048  1.1867 -0.1003
13115TIP3   OH260759   0.552   5.101  14.518  0.8719 -0.2450  0.5549
13115TIP3    H160760   0.574   5.068  14.430 -0.1251 -0.2034  0.2807
13115TIP3    H260761   0.464   5.067  14.535  1.7953 -1.9307  2.3783
13116TIP3   OH260762   1.511   4.707  16.061 -0.4526 -0.2633  0.1786
13116TIP3    H160763   1.461   4.674  15.987  0.5405 -0.9998 -0.1895
13116TIP3    H260764   1.502   4.802  16.055  0.3418 -0.2436 -1.4627
13117TIP3   OH260765   4.545   1.057  13.297 -0.0949 -0.3757 -0.3337
13117TIP3    H160766   4.597   1.108  13.360 -0.5795  1.4887 -1.3681
13117TIP3    H260767   4.524   1.119  13.228 -2.1561 -1.5712 -0.8536
13118TIP3   OH260768   6.116   2.281  13.290  0.2331 -0.5639  0.1013
13118TIP3    H160769   6.024   2.306  13.292 -0.0593 -1.4577 -0.9367
13118TIP3    H260770   6.116   2.189  13.316  0.6714 -0.9343 -1.1135
13119TIP3   OH260771   3.583   0.649   0.471 -0.4291 -0.0546  0.2827
13119TIP3    H160772   3.506   0.604   0.436 -0.1216  0.0211 -0.5036
13119TIP3    H260773   3.637   0.667   0.395  0.9677 -1.2198  0.9500
13120TIP3   OH260774   3.836   2.237  11.807  0.1475  0.0561  0.3625
13120TIP3    H160775   3.870   2.315  11.764  1.8829 -0.3347  0.9299
13120TIP3    H260776   3.845   2.255  11.901  0.2011 -0.6761  0.5024
13121TIP3   OH260777   6.166   5.145  14.015  0.5369  0.1436 -0.3367
13121TIP3    H160778   6.185   5.138  13.921  1.4331 -0.3634 -0.1244
13121TIP3    H260779   6.223   5.215  14.046  0.4129  0.1492 -0.1195
13122TIP3   OH260780   0.520   3.796   1.906  0.0484  0.1657 -0.2651
13122TIP3    H160781   0.480   3.760   1.984 -0.1770 -0.6762 -0.7581
13122TIP3    H260782   0.612   3.769   1.912 -0.0704 -0.3102 -0.5182
13123TIP3   OH260783   3.924   2.813  13.625 -0.3342 -0.5617  0.0893
13123TIP3    H160784   3.872   2.751  13.676  0.6391 -1.1423  0.4023
13123TIP3    H260785   3.861   2.853  13.565 -0.9519 -1.9550 -0.2175
13124TIP3   OH260786   2.575   4.760  14.428 -0.1197  0.5844 -0.1672
13124TIP3    H160787   2.642   4.729  14.488 -0.8820  1.2875  1.0984
13124TIP3    H260788   2.588   4.855  14.425 -0.5814  0.6424 -0.4955
13125TIP3   OH260789   0.352   0.865   0.851 -0.1701  0.0849 -0.0484
13125TIP3    H160790   0.389   0.783   0.819  0.9496  0.0703  1.2180
13125TIP3    H260791   0.272   0.840   0.898 -1.8762  0.1073 -2.6871
13126TIP3   OH260792   2.032   0.257  11.182  0.3203 -0.4444 -0.2586
13126TIP3    H160793   2.037   0.188  11.248 -0.7429 -0.6091 -0.3277
13126TIP3    H260794   1.960   0.229  11.124 -0.1628  0.7405 -0.2484
13127TIP3   OH260795   4.667   1.673   2.430  0.1334 -0.8915 -0.3726
13127TIP3    H160796   4.577   1.640   2.436  0.0289 -0.3940  2.1866
13127TIP3    H260797   4.675   1.733   2.504  2.4832 -0.6578 -0.7419
13128TIP3   OH260798   4.853   2.758  11.670  0.0858  0.3055 -0.0780
13128TIP3    H160799   4.870   2.721  11.757 -1.7116 -0.4383  0.0025
13128TIP3    H260800   4.764   2.729  11.649 -0.7058  3.0139 -0.8703
13129TIP3   OH260801   3.394   6.097   6.434 -0.2429 -0.2912 -0.0805
13129TIP3    H160802   3.417   6.006   6.412  0.2608  0.0112 -0.8513
13129TIP3    H260803   3.298   6.096   6.442 -0.1818 -1.0563  0.7283
13130TIP3   OH260804   4.115   1.283   4.222 -0.2914 -0.1788  0.1056
13130TIP3    H160805   4.148   1.315   4.139 -1.4377 -1.1925 -0.7757
13130TIP3    H260806   4.194   1.269   4.275  0.3901  1.2985 -0.4813
13131TIP3   OH260807   5.130   3.819   5.842 -0.4951 -0.1308  0.1106
13131TIP3    H160808   5.214   3.844   5.804 -0.2067 -2.9423 -1.3441
13131TIP3    H260809   5.153   3.756   5.911 -1.3513 -0.4327  0.1345
13132TIP3   OH260810   4.137   5.698   0.800 -0.4278 -0.1606 -0.3679
13132TIP3    H160811   4.137   5.610   0.838 -0.1377 -0.1643 -0.3809
13132TIP3    H260812   4.115   5.685   0.708  0.7801 -0.3284 -0.6399
13133TIP3   OH260813   1.119   5.790   3.282  0.3618 -0.0802  0.4479
13133TIP3    H160814   1.164   5.742   3.351 -0.4435  0.1056  1.1090
13133TIP3    H260815   1.085   5.722   3.224 -1.1997 -0.3653  1.6438
13134TIP3   OH260816   4.153   0.013  15.310  0.5696 -0.1442  0.2329
13134TIP3    H160817   4.080   0.040  15.365  0.4525 -0.3208  0.1638
13134TIP3    H260818   4.215   0.087  15.314  0.0072  0.3748 -0.3946
13135TIP3   OH260819   4.082   5.030  11.303 -0.2384 -0.4411 -0.4405
13135TIP3    H160820   4.145   5.102  11.315  1.6053 -1.9192 -0.6544
13135TIP3    H260821   4.104   4.969  11.373 -0.1373 -1.8694 -1.6799
13136TIP3   OH260822   2.439   3.068   4.949  0.2290  0.0640  0.3482
13136TIP3    H160823   2.415   3.058   4.857 -1.3752 -1.2372  0.8511
13136TIP3    H260824   2.493   2.991   4.968  1.4885  0.8860  0.2675
13137TIP3   OH260825   0.163   4.851   5.875 -0.2635  0.4272  0.6565
13137TIP3    H160826   0.259   4.858   5.872 -0.0803 -1.7170  0.0600
13137TIP3    H260827   0.142   4.846   5.968  0.3048 -0.0998  0.7610
13138TIP3   OH260828   2.029   4.239  13.509 -0.8960  0.4075 -0.3042
13138TIP3    H160829   2.090   4.182  13.463 -0.4688 -0.7533  1.6056
13138TIP3    H260830   2.057   4.328  13.485  1.1397 -0.1024 -0.0241
13139TIP3   OH260831   1.447   3.806   2.530 -0.0883 -0.3590 -0.5178
13139TIP3    H160832   1.482   3.817   2.618 -2.9951  1.9454  0.5247
13139TIP3    H260833   1.361   3.764   2.544 -0.4667 -0.2597 -2.2917
13140TIP3   OH260834   1.616   4.384   4.809  0.5774 -0.2188 -0.1599
13140TIP3    H160835   1.587   4.464   4.852  1.2392 -1.1875  2.2454
13140TIP3    H260836   1.560   4.315   4.844  1.3769 -1.1170 -0.5890
13141TIP3   OH260837   2.733   4.252   5.083  0.1634 -0.0305  0.1840
13141TIP3    H160838   2.698   4.217   5.001 -2.2766 -0.9273  1.5116
13141TIP3    H260839   2.744   4.345   5.068 -1.9648  0.1257 -0.6548
13142TIP3   OH260840   3.729   4.150  14.358  0.1927 -0.1092  0.2247
13142TIP3    H160841   3.805   4.136  14.301 -1.4280 -1.4590 -1.7153
13142TIP3    H260842   3.745   4.237  14.397  1.5291  0.7485 -2.0347
13143TIP3   OH260843   2.545   3.714  12.165 -0.5755  0.3221  0.4982
13143TIP3    H160844   2.496   3.777  12.217 -1.5450  0.1434 -0.1898
13143TIP3    H260845   2.526   3.736  12.074  1.3040  0.7850  0.1770
13144TIP3   OH260846   2.688   6.481   0.430  0.7244  0.0693 -0.2363
13144TIP3    H160847   2.682   6.477   0.525  0.5965  0.6030 -0.2232
13144TIP3    H260848   2.744   6.557   0.412 -0.9812  1.2821 -0.6385
13145TIP3   OH260849   5.625   5.153   2.286  0.1435 -0.2531  0.5908
13145TIP3    H160850   5.618   5.222   2.221  2.9633  0.1907  0.6320
13145TIP3    H260851   5.575   5.185   2.361  1.4310  1.8126  0.6266
13146TIP3   OH260852   4.591   6.114   1.958  0.5283  0.5452  0.0175
13146TIP3    H160853   4.654   6.155   1.898 -0.9110  2.4474 -0.2800
13146TIP3    H260854   4.620   6.142   2.045 -0.1855  1.8938 -0.1552
13147TIP3   OH260855   1.740   1.537   3.402  0.2161 -0.0726  0.0118
13147TIP3    H160856   1.671   1.521   3.337  0.5667 -0.7429 -0.1969
13147TIP3    H260857   1.707   1.496   3.482  0.3900 -0.4359 -0.1008
13148TIP3   OH260858   2.295   4.765  15.443 -0.6143  0.3457  0.2149
13148TIP3    H160859   2.361   4.828  15.416 -1.1710  0.6399 -0.4641
13148TIP3    H260860   2.269   4.720  15.362 -2.5080  1.4416  0.1596
13149TIP3   OH260861   5.942   6.399  10.477 -0.1907  0.0495 -0.5011
13149TIP3    H160862   5.856   6.376  10.510 -0.0803 -1.3213 -1.1370
13149TIP3    H260863   5.971   6.470  10.535 -2.3505  1.6190 -1.2160
13150TIP3   OH260864   1.655   6.514   0.280 -0.0421  0.4108 -0.1867
13150TIP3    H160865   1.643   6.597   0.325 -0.7796  0.7407 -0.9710
13150TIP3    H260866   1.740   6.522   0.237 -0.4736  1.1008 -0.9460
13151TIP3   OH260867   5.759   5.203  16.650  0.1946 -0.5145  0.4273
13151TIP3    H160868   5.717   5.198  16.736 -1.3046 -0.3094 -0.2576
13151TIP3    H260869   5.809   5.285  16.653  2.3724 -1.7821  2.0006
13152TIP3   OH260870   5.362   4.997  13.325  0.0333 -0.1142  0.1796
13152TIP3    H160871   5.433   5.051  13.290 -1.4222  0.9883 -1.1771
13152TIP3    H260872   5.353   5.025  13.416  1.4442 -0.4264  0.4458
13153TIP3   OH260873   2.906   6.004  14.921 -0.3245  0.0464  0.4588
13153TIP3    H160874   2.953   5.935  14.875  0.5816  0.0146  1.3966
13153TIP3    H260875   2.818   6.003  14.883 -0.0986 -1.1037 -0.0728
13154TIP3   OH260876   3.871   3.346   5.570  0.4627 -0.2959  0.3711
13154TIP3    H160877   3.872   3.364   5.477  2.7995 -1.8846  0.0161
13154TIP3    H260878   3.778   3.340   5.592 -0.3285  4.0800 -0.9065
13155TIP3   OH260879   0.718   3.147  11.718 -0.0198 -0.2296  0.6364
13155TIP3    H160880   0.745   3.234  11.746  0.7151 -0.3933  0.4669
13155TIP3    H260881   0.630   3.159  11.682 -0.9485  0.0317  2.8002
13156TIP3   OH260882   2.242   3.699   2.949  0.0464  0.1037 -0.8733
13156TIP3    H160883   2.324   3.739   2.920  0.4765 -0.1349 -0.0323
13156TIP3    H260884   2.267   3.647   3.026 -1.1292  1.0813  0.1989
13157TIP3   OH260885   2.176   5.963   0.098 -0.3744  0.2665  0.3937
13157TIP3    H160886   2.199   6.028   0.031 -0.6667 -0.3997 -0.3694
13157TIP3    H260887   2.125   6.013   0.163  0.0987  0.9670  0.2365
13158TIP3   OH260888   2.053   3.173   5.197  0.1460  0.5758 -0.6571
13158TIP3    H160889   2.137   3.219   5.193  1.1116 -0.7658  1.9105
13158TIP3    H260890   2.073   3.088   5.237 -2.5524  0.7041  1.2924
13159TIP3   OH260891   5.858   6.571  12.944 -0.0903 -0.3148  0.1392
13159TIP3    H160892   5.911   6.609  13.015  3.5546  0.2580 -2.5955
13159TIP3    H260893   5.776   6.621  12.946  0.8671  1.3491  2.3941
13160TIP3   OH260894   1.716   2.711   2.342 -0.0519 -0.2494 -0.6033
13160TIP3    H160895   1.810   2.731   2.339 -0.1373  0.0159 -1.8759
13160TIP3    H260896   1.676   2.787   2.384  0.3607 -0.6242  0.4942
13161TIP3   OH260897   5.608   3.604  11.149  0.5703 -0.2737  0.2290
13161TIP3    H160898   5.670   3.613  11.078  0.2566  0.2142  0.0117
13161TIP3    H260899   5.578   3.513  11.143  1.0927 -0.4449  0.1998
13162TIP3   OH260900   4.747   2.761   2.623  0.0336 -0.2145 -0.2274
13162TIP3    H160901   4.821   2.733   2.569  0.0635  0.8087 -0.7425
13162TIP3    H260902   4.774   2.742   2.713  0.5958 -0.5826 -0.4691
13163TIP3   OH260903   1.262   5.494   1.232 -0.8062  0.1520  0.0053
13163TIP3    H160904   1.185   5.475   1.286  0.2866 -2.2321  0.8944
13163TIP3    H260905   1.309   5.562   1.281 -0.9392 -0.4041  0.9272
13164TIP3   OH260906   1.448   4.976  12.883  0.0686  0.1084 -0.2598
13164TIP3    H160907   1.389   5.030  12.935 -0.3749 -0.3539 -0.2753
13164TIP3    H260908   1.495   4.923  12.947  0.4885  0.4860 -0.2466
13165TIP3   OH260909   4.691   3.060  11.438 -0.0560  0.2999 -0.3263
13165TIP3    H160910   4.642   2.984  11.469  0.3929  0.2985  0.4031
13165TIP3    H260911   4.684   3.055  11.343 -1.0983  0.0612 -0.2537
13166TIP3   OH260912   0.191   0.491   4.915 -0.3896 -0.4969  0.1401
13166TIP3    H160913   0.110   0.490   4.864 -0.0169 -0.0463 -0.4846
13166TIP3    H260914   0.196   0.404   4.955 -1.3168 -0.4342  0.4120
13167TIP3   OH260915   0.983   3.587   0.913  0.6768 -0.3373  0.4802
13167TIP3    H160916   0.999   3.666   0.862  1.4128 -0.7131  0.1158
13167TIP3    H260917   1.004   3.515   0.853  1.3961 -0.7903  1.2572
13168TIP3   OH260918   1.058   3.099  16.110 -0.4109 -0.4437 -0.0712
13168TIP3    H160919   1.100   3.080  16.026  0.8803 -1.6130  0.8055
13168TIP3    H260920   1.122   3.153  16.157 -0.7988 -0.4404  0.4599
13169TIP3   OH260921   3.848   1.229   4.257  0.0342 -0.1105  0.2985
13169TIP3    H160922   3.814   1.256   4.342 -0.7340  0.3813 -0.1570
13169TIP3    H260923   3.941   1.254   4.259 -0.3036  1.1517  0.4731
13170TIP3   OH260924   3.807   3.872  12.857 -0.1459  0.0144 -0.3968
13170TIP3    H160925   3.798   3.897  12.949 -0.0950 -0.2394 -0.3226
13170TIP3    H260926   3.900   3.853  12.846 -0.2162 -0.3357 -0.4018
13171TIP3   OH260927   0.489   2.943   5.636 -0.2364  0.1982 -0.0701
13171TIP3    H160928   0.465   2.919   5.725  2.2009 -1.4090  0.2316
13171TIP3    H260929   0.455   2.872   5.581  0.5947 -0.2176 -0.0654
13172TIP3   OH260930   2.697   3.813   4.054 -0.2223  0.0745  0.0523
13172TIP3    H160931   2.725   3.727   4.022 -0.7047  0.5562 -1.8363
13172TIP3    H260932   2.602   3.806   4.062 -0.1133 -0.0270  1.4695
13173TIP3   OH260933   5.812   1.658   6.475 -0.5535  0.1201  0.3001
13173TIP3    H160934   5.772   1.737   6.512 -0.2627  1.1756 -1.4906
13173TIP3    H260935   5.893   1.647   6.524 -0.6387  0.9062  0.6405
13174TIP3   OH260936   4.387   2.554  15.412  0.0465 -0.8524  0.1856
13174TIP3    H160937   4.413   2.555  15.319 -0.0866 -0.6581  0.1500
13174TIP3    H260938   4.451   2.497  15.454 -0.8975 -2.3250 -0.3106
13175TIP3   OH260939   0.644   1.144  14.782 -0.0705 -0.0448 -0.0063
13175TIP3    H160940   0.596   1.062  14.795  1.1557 -0.6615  0.8726
13175TIP3    H260941   0.735   1.123  14.806  0.6944  1.0330 -1.7656
13176TIP3   OH260942   2.550   4.593   5.774 -0.1312  0.1548 -0.0037
13176TIP3    H160943   2.622   4.565   5.831 -0.6170 -0.4980  0.2919
13176TIP3    H260944   2.562   4.543   5.693  0.5717  1.0984 -0.5070
13177TIP3   OH260945   1.289   2.839   3.664  0.2923  0.7679  0.3341
13177TIP3    H160946   1.260   2.897   3.734  1.3900  0.1745  1.3123
13177TIP3    H260947   1.289   2.751   3.704  1.2513  0.4643 -0.2890
13178TIP3   OH260948   5.727   0.128  15.855 -0.0229  0.2329 -0.1091
13178TIP3    H160949   5.641   0.125  15.815 -0.1425  0.8664  0.0851
13178TIP3    H260950   5.776   0.058  15.812 -1.1582 -1.3337  1.0499
13179TIP3   OH260951   2.412   0.864  17.204 -0.0864 -0.0092  0.5267
13179TIP3    H160952   2.346   0.850  17.272 -0.2045  1.0373  0.6465
13179TIP3    H260953   2.364   0.906  17.132  0.2048 -0.3719  0.1082
13180TIP3   OH260954   4.410   5.833   1.455  0.3998  0.1049 -0.0603
13180TIP3    H160955   4.361   5.854   1.534 -0.7796  1.3217 -1.0664
13180TIP3    H260956   4.485   5.892   1.456  0.8325 -0.4416  0.5319
13181TIP3   OH260957   2.566   0.046   0.484  0.1885  0.5694  0.1690
13181TIP3    H160958   2.632   0.107   0.454 -0.1426  0.4389 -0.8431
13181TIP3    H260959   2.552   0.069   0.576  1.0842  1.0793  0.1850
13182TIP3   OH260960   5.104   4.172  14.394  0.5967 -0.4498  0.0611
13182TIP3    H160961   5.059   4.192  14.477  0.3054 -0.4252 -0.1020
13182TIP3    H260962   5.189   4.215  14.402  0.0160  0.7875 -0.2450
13183TIP3   OH260963   4.761   5.412   5.187 -0.7562 -0.7039 -0.1050
13183TIP3    H160964   4.787   5.491   5.235  0.4272  0.0997 -1.9375
13183TIP3    H260965   4.706   5.363   5.248 -1.0924  1.2848  1.2650
13184TIP3   OH260966   4.707   0.105  15.750 -0.3392  0.1506 -0.1874
13184TIP3    H160967   4.792   0.120  15.791 -0.6468  1.6427 -0.0432
13184TIP3    H260968   4.715   0.143  15.663 -0.5452 -0.6308 -0.5592
13185TIP3   OH260969   4.274   6.411   3.213  0.4909 -0.2410  0.2994
13185TIP3    H160970   4.349   6.353   3.225 -0.7878 -1.9974  0.3292
13185TIP3    H260971   4.264   6.455   3.297  2.3018  1.1277 -0.1389
13186TIP3   OH260972   5.766   2.582  11.192 -0.7805  0.0741 -0.9321
13186TIP3    H160973   5.853   2.542  11.194 -0.6715  0.3001 -1.1753
13186TIP3    H260974   5.763   2.630  11.109 -0.9142  0.5682 -0.6438
13187TIP3   OH260975   2.260   5.242   5.418  0.0206  0.5542 -0.1030
13187TIP3    H160976   2.200   5.240   5.343  0.1453  0.0112 -0.1927
13187TIP3    H260977   2.203   5.229   5.494 -0.5934  4.2282  0.2560
13188TIP3   OH260978   1.526   1.566  11.429  0.1753 -0.1085  0.6674
13188TIP3    H160979   1.521   1.510  11.352  2.8171  0.3162  0.0913
13188TIP3    H260980   1.451   1.625  11.421 -0.0052 -0.5247 -1.1883
13189TIP3   OH260981   5.091   3.442   6.159  0.2558 -0.0223 -0.4678
13189TIP3    H160982   5.076   3.350   6.138 -1.3789  0.0079  0.4015
13189TIP3    H260983   5.154   3.440   6.231  1.2234 -0.3816 -1.3043
13190TIP3   OH260984   6.536   2.599   0.071  0.4282  0.2984  0.0540
13190TIP3    H160985   6.497   2.515   0.094 -0.1094  0.6084  0.2925
13190TIP3    H260986   6.479   2.635   0.004  0.6715  0.4592 -0.0682
13191TIP3   OH260987   4.267   5.740  12.055  0.0507  0.2621 -0.1669
13191TIP3    H160988   4.268   5.823  12.007  1.0928  1.4434  1.7956
13191TIP3    H260989   4.319   5.681  12.001 -1.3607  0.5707 -2.0040
13192TIP3   OH260990   6.624   1.841  12.088  0.1087  0.4511 -0.1577
13192TIP3    H160991   6.626   1.751  12.122  0.7553  0.4494 -0.1839
13192TIP3    H260992   6.548   1.880  12.129 -0.5467 -0.3000 -0.6234
13193TIP3   OH260993   2.162   2.670   4.993 -0.2829  0.7184 -0.2218
13193TIP3    H160994   2.218   2.613   4.941 -0.6523 -1.0828  1.2539
13193TIP3    H260995   2.177   2.757   4.956  2.5058  0.1472 -0.7144
13194TIP3   OH260996   0.440   2.467  15.526  0.0562  0.4113  0.3007
13194TIP3    H160997   0.377   2.408  15.568  0.6147  0.0266  0.6158
13194TIP3    H260998   0.413   2.468  15.434  0.4519 -0.9245  0.1386
13195TIP3   OH260999   6.134   2.992   5.602  0.6396 -0.0698  0.0617
13195TIP3    H161000   6.214   3.044   5.596  0.0394  0.7470 -1.2413
13195TIP3    H261001   6.086   3.029   5.676  0.9912  0.1115  0.1994
13196TIP3   OH261002   3.436   4.076   4.024  0.2757 -0.3063 -0.5108
13196TIP3    H161003   3.479   4.161   4.013 -1.6981  0.6139 -1.9546
13196TIP3    H261004   3.480   4.019   3.962 -0.2351  0.5036 -1.6650
13197TIP3   OH261005   6.606   3.039  13.867 -0.1191  0.5880  0.0618
13197TIP3    H161006   6.670   2.979  13.829  0.6891  0.3415  1.7281
13197TIP3    H261007   6.578   2.997  13.948 -1.9890  0.9741 -0.3239
13198TIP3   OH261008   3.720   5.611   0.494 -0.2336  0.5200 -0.2409
13198TIP3    H161009   3.634   5.589   0.529 -0.6695  1.6927 -0.5233
13198TIP3    H261010   3.712   5.703   0.468  1.0448  0.5861 -0.4511
13199TIP3   OH261011   5.447   1.642  13.948 -0.0861 -0.5745  0.0477
13199TIP3    H161012   5.386   1.703  13.989  0.6683  0.5533 -0.4447
13199TIP3    H261013   5.409   1.556  13.962 -0.2793 -0.1696  2.3580
13200TIP3   OH261014   1.104   5.545   5.403 -0.2402 -0.3553  0.3267
13200TIP3    H161015   1.158   5.468   5.391  0.1915  0.2532 -2.1454
13200TIP3    H261016   1.034   5.536   5.338  0.1941  1.5965 -0.4949
13201TIP3   OH261017   0.688   4.838   4.667 -0.5874  0.1918  0.1178
13201TIP3    H161018   0.600   4.822   4.635 -1.4810  3.0430  0.8285
13201TIP3    H261019   0.746   4.818   4.593 -2.0267  0.4202 -1.1060
13202TIP3   OH261020   6.169   5.084   2.158 -0.2679 -0.2734 -0.6482
13202TIP3    H161021   6.082   5.043   2.151  0.4016 -1.9464  0.2178
13202TIP3    H261022   6.180   5.102   2.251  0.1683  0.2965 -0.8041
13203TIP3   OH261023   5.241   5.660   0.798 -0.1815  0.4134  0.7767
13203TIP3    H161024   5.292   5.636   0.875  1.2075 -0.0616 -0.2475
13203TIP3    H261025   5.204   5.746   0.819  0.5137  0.4710  1.7969
13204TIP3   OH261026   0.080   4.681   5.000  0.3587  0.3714 -0.0238
13204TIP3    H161027   0.032   4.723   4.928 -1.3908 -0.7872  0.4164
13204TIP3    H261028   0.135   4.751   5.035 -1.7078  2.0544  0.0428
13205TIP3   OH261029   5.821   1.676  10.820  0.2580  0.0626  0.6060
13205TIP3    H161030   5.750   1.737  10.839  0.5754  0.5861  0.1276
13205TIP3    H261031   5.778   1.601  10.779  0.0668  0.7392 -0.4682
13206TIP3   OH261032   4.186   0.392  13.535  0.1335  0.2280  0.5961
13206TIP3    H161033   4.187   0.465  13.473 -0.3451  0.9523  1.4102
13206TIP3    H261034   4.277   0.363  13.541  0.1535  0.0392 -0.5565
13207TIP3   OH261035   2.768   0.375  13.460 -0.1401 -0.0070  0.2710
13207TIP3    H161036   2.755   0.288  13.422  0.4545  0.0200 -0.0153
13207TIP3    H261037   2.847   0.408  13.416  0.7287 -0.0782  1.7121
13208TIP3   OH261038   0.825   4.475   3.351  0.5075 -0.1503 -0.3698
13208TIP3    H161039   0.768   4.487   3.275  1.3829 -0.3779 -1.0843
13208TIP3    H261040   0.914   4.488   3.316  0.9067  0.0190  0.6740
13209TIP3   OH261041   2.353   5.971  12.355 -0.2813 -1.0968 -0.2048
13209TIP3    H161042   2.447   5.970  12.338 -0.4569 -2.2227 -1.3262
13209TIP3    H261043   2.317   6.033  12.291 -0.4376 -1.7705 -0.7883
13210TIP3   OH261044   2.677   2.800  13.832 -0.4676 -0.3615  0.2277
13210TIP3    H161045   2.672   2.885  13.789 -0.4291 -1.2094 -1.5457
13210TIP3    H261046   2.769   2.774  13.825 -0.4666 -0.5241  0.8072
13211TIP3   OH261047   0.631   5.352  11.766 -0.0602 -0.1528 -0.4706
13211TIP3    H161048   0.638   5.294  11.690  0.3741 -0.1743 -0.4160
13211TIP3    H261049   0.557   5.317  11.817 -0.6899  0.1687 -1.1425
13212TIP3   OH261050   4.102   2.282  15.190 -0.3470  0.2556 -0.2171
13212TIP3    H161051   4.179   2.250  15.236 -0.5796 -1.6632 -1.0623
13212TIP3    H261052   4.029   2.231  15.226 -0.7674 -0.0639 -1.4561
13213TIP3   OH261053   1.895   0.476  16.117  0.1084  0.2561  0.1270
13213TIP3    H161054   1.892   0.555  16.065  0.2870 -0.2839 -0.7233
13213TIP3    H261055   1.882   0.505  16.207  0.7480  1.3019 -0.1104
13214TIP3   OH261056   3.972   3.839  13.473  0.6686 -0.1763 -0.0202
13214TIP3    H161057   3.934   3.923  13.495  0.5101 -0.1045 -0.5550
13214TIP3    H261058   4.054   3.860  13.427 -1.1737 -0.1607 -3.6631
13215TIP3   OH261059   4.357   4.232  16.060  0.3324 -0.3614 -0.1498
13215TIP3    H161060   4.300   4.161  16.029 -0.0451  0.1357 -0.6070
13215TIP3    H261061   4.323   4.311  16.018  1.4039 -0.0634 -0.4812
13216TIP3   OH261062   2.053   1.967  12.101  0.0506 -0.5889  0.4446
13216TIP3    H161063   2.121   2.021  12.140  0.5330 -2.0768  1.7263
13216TIP3    H261064   2.001   2.029  12.048  2.7660  0.4721 -1.1833
13217TIP3   OH261065   0.716   3.757  12.189  0.1510 -0.3649  0.1223
13217TIP3    H161066   0.690   3.763  12.282  1.5869  0.9805  0.4809
13217TIP3    H261067   0.796   3.705  12.190  1.7839  2.0118  0.0469
13218TIP3   OH261068   6.534   0.443   0.685 -0.3385 -0.2786  0.2875
13218TIP3    H161069   6.479   0.407   0.754  0.0496  1.3374  1.4992
13218TIP3    H261070   6.604   0.378   0.674 -1.0067 -1.0752  0.6200
13219TIP3   OH261071   0.063   5.406   5.624  0.1787 -0.3940  0.0853
13219TIP3    H161072   0.093   5.400   5.715 -0.2559 -0.0227  0.2595
13219TIP3    H261073  -0.010   5.344   5.620 -0.8241  0.7228  0.4286
13220TIP3   OH261074   6.127   1.082   2.137 -0.5464 -0.0720  0.0254
13220TIP3    H161075   6.134   1.053   2.045  0.0816  0.7609 -0.1999
13220TIP3    H261076   6.100   1.173   2.131 -0.5830 -0.0396  0.6732
13221TIP3   OH261077   3.738   6.222   5.285  0.0719  0.1711 -0.7947
13221TIP3    H161078   3.698   6.167   5.352 -0.8114  0.2044 -1.2827
13221TIP3    H261079   3.786   6.160   5.230 -0.3391 -0.0244 -0.9358
13222TIP3   OH261080   2.387   3.816  16.794 -0.2204  0.1227 -0.0057
13222TIP3    H161081   2.464   3.808  16.738  1.0659 -0.0450  1.6778
13222TIP3    H261082   2.391   3.907  16.826 -0.5237  0.0089  0.3575
13223TIP3   OH261083   5.048   6.289  16.533  0.0267 -0.7339  0.2432
13223TIP3    H161084   4.975   6.340  16.567  1.3252  2.1432 -0.9131
13223TIP3    H261085   5.094   6.257  16.611  0.2626  1.6096  1.1291
13224TIP3   OH261086   0.088   0.314  14.176 -0.7126  0.0736 -0.1469
13224TIP3    H161087   0.108   0.239  14.120 -0.5579  0.2873 -0.3787
13224TIP3    H261088  -0.002   0.338  14.153 -0.1452  1.0792 -1.3593
13225TIP3   OH261089   1.513   3.959   2.126  0.0334 -0.2585 -0.6810
13225TIP3    H161090   1.536   4.000   2.209 -0.0215 -0.3794 -0.6066
13225TIP3    H261091   1.590   3.975   2.070 -1.2993  3.0387 -1.8138
13226TIP3   OH261092   3.402   4.443  16.663 -0.0314 -0.2591 -0.3719
13226TIP3    H161093   3.479   4.474  16.709 -0.6979  0.2410  0.4322
13226TIP3    H261094   3.415   4.348  16.655 -0.4939 -0.5759  2.0315
13227TIP3   OH261095   6.709   5.846   4.157 -0.4494  0.1441  0.0522
13227TIP3    H161096   6.665   5.888   4.232  0.4961 -0.0543  0.7333
13227TIP3    H261097   6.775   5.910   4.131 -0.1451 -0.1955 -0.0027
13228TIP3   OH261098   3.665   4.715  17.128  0.5416 -0.1701  0.8359
13228TIP3    H161099   3.646   4.789  17.186  1.5094  0.4887  0.3394
13228TIP3    H261100   3.616   4.735  17.048 -0.7812 -1.0704  1.3861
13229TIP3   OH261101   3.972   3.999   6.692 -0.1295  0.1525 -0.1438
13229TIP3    H161102   4.050   4.053   6.708  0.5582 -0.9903  0.5351
13229TIP3    H261103   3.900   4.061   6.684  0.2076  1.1268  3.0970
13230TIP3   OH261104   0.901   1.643  15.901  0.0027 -0.1467 -0.4832
13230TIP3    H161105   0.933   1.634  15.991 -1.0010 -0.3444 -0.1331
13230TIP3    H261106   0.980   1.639  15.847  0.6133 -0.0765  0.3833
13231TIP3   OH261107   1.065   2.083   3.908  0.2527  0.2814 -0.2307
13231TIP3    H161108   0.974   2.097   3.935  0.1605  1.9114 -1.2319
13231TIP3    H261109   1.103   2.031   3.978 -1.6401 -1.1403 -0.1603
13232TIP3   OH261110   4.459   6.780  16.753 -0.1415 -0.4217 -0.0110
13232TIP3    H161111   4.416   6.829  16.682  1.4380 -0.7755 -1.2901
13232TIP3    H261112   4.399   6.787  16.827 -1.3206  0.9671 -1.0300
13233TIP3   OH261113   0.316   2.329  16.341  0.7246 -0.1365 -0.3072
13233TIP3    H161114   0.411   2.333  16.335  0.8406  1.0435  1.5167
13233TIP3    H261115   0.289   2.421  16.351 -0.6271 -0.4402 -0.9227
13234TIP3   OH261116   0.114   1.256   3.466 -0.0188 -0.3667  0.8000
13234TIP3    H161117   0.119   1.170   3.425  0.9422 -0.3087  0.7580
13234TIP3    H261118   0.025   1.286   3.450 -0.0423 -0.8985 -0.1111
13235TIP3   OH261119   2.282   3.477  12.145 -0.3187  0.4281  0.7335
13235TIP3    H161120   2.364   3.493  12.193 -0.7890 -0.6593  1.9531
13235TIP3    H261121   2.222   3.543  12.179  0.9911  3.9129 -2.9627
13236TIP3   OH261122   5.083   4.496  11.749 -0.2842 -0.6543 -0.1891
13236TIP3    H161123   5.130   4.428  11.701  1.5677  2.0604 -2.6068
13236TIP3    H261124   5.028   4.538  11.683 -1.7251 -0.0639  1.3129
13237TIP3   OH261125   5.620   3.041  15.653 -0.2718 -0.1412 -0.1379
13237TIP3    H161126   5.628   3.121  15.602 -0.0480 -0.9662 -1.4324
13237TIP3    H261127   5.600   2.973  15.589  0.8247 -1.3663  0.7566
13238TIP3   OH261128   1.169   1.614   2.084 -0.2605  0.3737  0.1527
13238TIP3    H161129   1.251   1.608   2.132  0.5517 -0.9618 -1.2815
13238TIP3    H261130   1.173   1.698   2.039  0.0761  0.5607  0.5323
13239TIP3   OH261131   1.165   0.550  11.433 -0.1827 -0.2538  0.1934
13239TIP3    H161132   1.170   0.536  11.338  1.3549 -0.1084  0.2132
13239TIP3    H261133   1.208   0.473  11.470  0.7460  0.4758  0.6808
13240TIP3   OH261134   1.958   2.483   1.421 -0.2829 -0.5602  0.5430
13240TIP3    H161135   1.933   2.575   1.427 -1.1179 -0.8458  1.6659
13240TIP3    H261136   1.897   2.437   1.478 -1.6874 -2.1939 -2.0776
13241TIP3   OH261137   4.923   0.133  13.516 -0.3575 -0.4527 -0.2116
13241TIP3    H161138   4.889   0.099  13.599 -0.4569 -0.9828 -0.4655
13241TIP3    H261139   4.901   0.066  13.452 -0.3557 -0.0062 -0.6845
13242TIP3   OH261140   1.191   3.980   2.068  0.0952  0.8635  0.2394
13242TIP3    H161141   1.125   3.999   2.001  0.1198 -1.7361 -0.6330
13242TIP3    H261142   1.257   3.928   2.022  0.8160  0.1913  1.9577
13243TIP3   OH261143   1.289   2.656  10.323  0.0680 -0.6414  0.3958
13243TIP3    H161144   1.366   2.602  10.342  0.8817  0.2147 -0.3949
13243TIP3    H261145   1.274   2.706  10.403  0.9918 -0.0351  0.1984
13244TIP3   OH261146   5.835   1.563  15.461 -0.0292 -0.2908 -0.4641
13244TIP3    H161147   5.819   1.472  15.436  0.4326 -0.3348 -0.6241
13244TIP3    H261148   5.921   1.582  15.423  0.3936 -0.1486  0.5340
13245TIP3   OH261149   1.842   2.808   3.113  0.1456 -0.0111 -0.0950
13245TIP3    H161150   1.779   2.879   3.122  0.0376  0.2001 -2.0062
13245TIP3    H261151   1.789   2.732   3.086  0.2189 -0.9405  2.2008
13246TIP3   OH261152   4.777   4.878   1.591  0.3096 -0.0423  0.1071
13246TIP3    H161153   4.714   4.815   1.626 -0.9079  0.9361 -0.2724
13246TIP3    H261154   4.729   4.926   1.524  1.1107  1.4947  0.5800
13247TIP3   OH261155   2.578   4.563  17.173  0.3339  0.4348  0.4108
13247TIP3    H161156   2.561   4.544  17.265 -0.1817 -0.4545  0.1427
13247TIP3    H261157   2.496   4.541  17.129  0.3900  1.3780 -0.2001
13248TIP3   OH261158   5.014   5.139   2.238 -0.1527 -0.3761  0.3941
13248TIP3    H161159   4.949   5.182   2.293 -1.3556 -0.7080 -0.7049
13248TIP3    H261160   5.005   5.181   2.153  1.6179  0.0714  0.3949
13249TIP3   OH261161   1.779   2.537  13.502  0.2697  0.7153 -0.3926
13249TIP3    H161162   1.784   2.493  13.586 -1.0147  0.3900 -0.4597
13249TIP3    H261163   1.757   2.628  13.524 -1.5326  0.3165 -0.3948
13250TIP3   OH261164   6.613   5.966   4.399  0.0999 -0.2692  0.5278
13250TIP3    H161165   6.638   6.032   4.463  0.7736 -1.0035  1.0341
13250TIP3    H261166   6.594   5.888   4.451  1.2608 -1.0655 -0.1877
13251TIP3   OH261167   1.771   2.085  13.597 -0.0599 -0.3278  0.7869
13251TIP3    H161168   1.804   2.054  13.681  2.5837 -0.6104 -0.2544
13251TIP3    H261169   1.821   2.035  13.532 -2.0556 -0.1580 -0.9835
13252TIP3   OH261170   0.110   6.526   0.939  0.9932  0.3075 -0.5769
13252TIP3    H161171   0.031   6.577   0.925  0.7097 -0.0318 -0.2491
13252TIP3    H261172   0.169   6.586   0.985  0.0304 -0.1485  1.3787
13253TIP3   OH261173   1.474   3.468  11.776  0.1570  0.0407 -0.1232
13253TIP3    H161174   1.540   3.486  11.843 -0.4711  0.3145  0.4258
13253TIP3    H261175   1.391   3.494  11.815 -0.3969 -1.0962 -0.4821
13254TIP3   OH261176   4.982   2.821   2.801  0.7965  0.2068 -0.4880
13254TIP3    H161177   4.898   2.807   2.845 -1.0733 -2.5779 -4.3039
13254TIP3    H261178   4.974   2.907   2.760 -0.3983 -0.1639 -1.0814
13255TIP3   OH261179   0.941   1.551  15.457 -0.3370 -0.1247 -0.3705
13255TIP3    H161180   0.918   1.458  15.465 -1.8284 -0.0633 -2.9208
13255TIP3    H261181   0.858   1.597  15.470  0.3356  0.8576  0.5797
13256TIP3   OH261182   6.006   6.664  16.446  0.3458  0.2518  0.1098
13256TIP3    H161183   6.026   6.640  16.537  0.8113 -2.4267 -0.6259
13256TIP3    H261184   6.065   6.610  16.394 -3.4469 -2.2898 -1.9565
13257TIP3   OH261185   2.991   3.309   5.570 -0.3349  0.7239  0.2768
13257TIP3    H161186   2.921   3.314   5.505 -1.3119  0.8540  1.3187
13257TIP3    H261187   2.947   3.287   5.652  0.3125  4.0746  1.7063
13258TIP3   OH261188   2.699   0.681  14.779  0.1373  0.1786 -0.1995
13258TIP3    H161189   2.617   0.715  14.816  0.2572 -0.0335  0.2788
13258TIP3    H261190   2.758   0.756  14.781  0.1769  0.1434  0.1602
13259TIP3   OH261191   4.155   4.263  14.419 -0.2336 -0.0686  0.0237
13259TIP3    H161192   4.134   4.172  14.442  0.3901  0.0696  1.1941
13259TIP3    H261193   4.106   4.279  14.338 -1.3897 -1.0359  0.5017
13260TIP3   OH261194   3.551   4.165  11.129  0.5094  0.2257  0.2107
13260TIP3    H161195   3.632   4.148  11.080  1.2793 -0.3891  1.6432
13260TIP3    H261196   3.497   4.216  11.068  1.6888  0.0670 -1.0261
13261TIP3   OH261197   5.150   6.531  13.098  0.1368  0.0814  0.0659
13261TIP3    H161198   5.084   6.568  13.158  1.2173 -2.0887  2.8290
13261TIP3    H261199   5.114   6.445  13.074  0.8847 -0.1298 -0.3143
13262TIP3   OH261200   5.670   2.177  10.890 -0.2585 -0.0977  0.1045
13262TIP3    H161201   5.595   2.120  10.873 -0.8797  0.9976 -0.9210
13262TIP3    H261202   5.636   2.248  10.944 -0.1261  0.7249 -0.8623
13263TIP3   OH261203   5.680   3.617  12.396 -0.6681 -0.4381  0.6759
13263TIP3    H161204   5.742   3.558  12.439  1.3521  0.6296 -0.5773
13263TIP3    H261205   5.735   3.670  12.338 -2.3781  2.4497  1.4877
13264TIP3   OH261206   5.541   5.407  17.015  0.4969  0.1470 -0.4368
13264TIP3    H161207   5.533   5.470  16.943  1.9380  0.1286 -0.6429
13264TIP3    H261208   5.501   5.327  16.981  1.7760 -0.0714 -1.5099
13265TIP3   OH261209   4.386   1.190   0.074 -1.0540  0.3502 -0.1644
13265TIP3    H161210   4.415   1.229  -0.008 -1.6949 -0.6629 -0.8959
13265TIP3    H261211   4.291   1.203   0.074 -0.9347  1.4935  1.0543
13266TIP3   OH261212   1.742   0.937   0.264 -0.2757 -0.1081  0.2443
13266TIP3    H161213   1.830   0.973   0.260 -0.3765  0.0522 -2.1886
13266TIP3    H261214   1.736   0.896   0.350  2.1159  0.0078  0.5208
13267TIP3   OH261215   3.183   2.415   2.620 -0.2803 -1.0138 -0.3581
13267TIP3    H161216   3.161   2.345   2.558  1.5535 -1.4476 -0.5990
13267TIP3    H261217   3.249   2.467   2.575  0.9565 -1.2120  1.1260
13268TIP3   OH261218   2.760   1.921  15.135 -0.1300  0.3223  0.6458
13268TIP3    H161219   2.687   1.979  15.156  0.1482  1.1161 -0.4603
13268TIP3    H261220   2.794   1.893  15.220 -1.8736 -0.3045  1.1967
13269TIP3   OH261221   4.746   4.695   2.045 -0.2071 -0.0196  0.5188
13269TIP3    H161222   4.662   4.694   2.091  0.1830  2.5122  1.4587
13269TIP3    H261223   4.791   4.772   2.079  1.5671  0.0007 -1.6270
13270TIP3   OH261224   3.402   5.444  17.010 -0.4371 -0.3593 -0.1539
13270TIP3    H161225   3.318   5.487  16.992 -0.2130  0.4548  0.6981
13270TIP3    H261226   3.451   5.454  16.928 -0.0805  1.7705  0.2645
13271TIP3   OH261227   4.690   1.779   1.557  0.1417 -0.2234 -0.0496
13271TIP3    H161228   4.715   1.691   1.584  1.9419  0.9516  2.5873
13271TIP3    H261229   4.762   1.809   1.501  0.3823  0.1416  0.4467
13272TIP3   OH261230   1.434   6.770   5.333  0.1837  0.0935  0.1747
13272TIP3    H161231   1.521   6.746   5.300  1.1881  1.5246  1.6070
13272TIP3    H261232   1.391   6.813   5.259  0.8510 -0.2265 -0.4182
13273TIP3   OH261233   1.372   2.937  12.905 -0.5044  0.8869  0.6849
13273TIP3    H161234   1.413   2.858  12.942 -0.7902  1.4959  2.3848
13273TIP3    H261235   1.397   2.935  12.813  0.9818 -0.2680  1.0595
13274TIP3   OH261236   6.785   4.314   4.352  0.0784  0.3073 -0.5024
13274TIP3    H161237   6.732   4.238   4.375  0.2377  0.3803  0.1241
13274TIP3    H261238   6.721   4.383   4.334 -0.0455  0.3857  0.2227
13275TIP3   OH261239   3.801   4.434   4.540  0.2464 -0.1726  0.3601
13275TIP3    H161240   3.737   4.366   4.561 -1.6894  0.5359 -2.5449
13275TIP3    H261241   3.845   4.402   4.462  1.2382  0.7367  0.5322
13276TIP3   OH261242   3.199   5.449   4.775 -0.4312  0.1418  0.1483
13276TIP3    H161243   3.158   5.533   4.796 -1.0278  0.0865 -0.7439
13276TIP3    H261244   3.180   5.393   4.850  1.2722  1.2296  1.4615
13277TIP3   OH261245   2.413   1.363   2.048 -0.4318  0.4660 -0.2914
13277TIP3    H161246   2.414   1.396   2.138  1.2540  3.2960 -1.2010
13277TIP3    H261247   2.404   1.442   1.994 -1.6919 -1.1617 -2.6451
13278TIP3   OH261248   6.572   1.819  15.832 -0.1762 -0.1912  0.2484
13278TIP3    H161249   6.480   1.838  15.846  0.0870  1.8380 -0.4098
13278TIP3    H261250   6.609   1.812  15.920 -0.0221  4.3912  0.7872
13279TIP3   OH261251   6.452   6.160   1.677 -0.2524  0.2004  0.2359
13279TIP3    H161252   6.405   6.242   1.664 -1.3213 -0.5712 -0.9334
13279TIP3    H261253   6.419   6.102   1.608  0.5343 -1.1920  0.9953
13280TIP3   OH261254   6.322   0.404   0.868 -0.9666 -0.3261 -0.0098
13280TIP3    H161255   6.298   0.394   0.960  0.7164  1.2471  0.6812
13280TIP3    H261256   6.294   0.492   0.845  0.3680  0.0399 -0.3663
13281TIP3   OH261257   6.355   2.704  16.054  0.4900 -0.5297 -0.1235
13281TIP3    H161258   6.313   2.718  15.969 -2.2708  0.9208  1.3308
13281TIP3    H261259   6.311   2.627  16.090  1.1861 -0.7499  0.2819
13282TIP3   OH261260   1.030   3.859  14.858 -0.1699 -0.4148 -0.0356
13282TIP3    H161261   0.947   3.862  14.907 -0.6830  1.0179 -0.9138
13282TIP3    H261262   1.093   3.902  14.917 -1.0486  2.4207 -0.9711
13283TIP3   OH261263   4.417   3.421  15.561 -0.4874 -0.5065  0.0594
13283TIP3    H161264   4.433   3.423  15.655 -1.6772  0.0535  0.2604
13283TIP3    H261265   4.409   3.328  15.540 -0.4301 -0.6242  0.5465
13284TIP3   OH261266   5.034   2.041  14.099  0.3170 -0.1317  0.3621
13284TIP3    H161267   4.979   2.112  14.131 -1.3334 -1.4118  0.5014
13284TIP3    H261268   5.093   2.083  14.035 -1.2706  1.1841 -0.2955
13285TIP3   OH261269   5.559   3.108   5.343  0.1267 -0.2248 -0.2408
13285TIP3    H161270   5.495   3.179   5.351 -0.1234 -0.4037 -0.6121
13285TIP3    H261271   5.585   3.109   5.251  1.0930  0.2126  0.0211
13286TIP3   OH261272   5.628   0.097   6.089  0.4593  0.7675  0.5492
13286TIP3    H161273   5.712   0.057   6.065 -0.2653 -0.1791 -0.4740
13286TIP3    H261274   5.637   0.189   6.062  1.1188  0.6513  0.3582
13287TIP3   OH261275   0.946   0.189  15.869  0.3418 -0.6488 -0.0606
13287TIP3    H161276   1.018   0.253  15.862 -0.7187  0.7807  1.3209
13287TIP3    H261277   0.867   0.243  15.869 -0.7618 -2.1865 -1.3619
13288TIP3   OH261278   0.903   4.943  11.403 -0.2757 -0.4193  0.1942
13288TIP3    H161279   0.917   4.863  11.455 -1.7054 -0.3235  0.7734
13288TIP3    H261280   0.975   4.943  11.340  1.2693 -0.7985  1.8493
13289TIP3   OH261281   1.800   4.520   3.456  0.2510  0.2244  0.0432
13289TIP3    H161282   1.744   4.458   3.502 -3.5632  2.7059 -0.8295
13289TIP3    H261283   1.858   4.555   3.523 -0.7031 -0.8826  1.4984
13290TIP3   OH261284   0.444   0.154  12.990 -0.3595  0.7990  0.2588
13290TIP3    H161285   0.357   0.192  13.001 -0.5019  0.5079  0.1571
13290TIP3    H261286   0.505   0.227  13.001 -0.5999  0.9274  0.7452
13291TIP3   OH261287   5.337   3.467  16.447 -0.1741  0.3616  0.0725
13291TIP3    H161288   5.411   3.406  16.442 -0.5971 -0.1226 -0.3441
13291TIP3    H261289   5.351   3.516  16.528 -1.2890 -2.1678  1.9081
13292TIP3   OH261290   4.348   0.548   5.870  0.4988  0.5709 -0.1047
13292TIP3    H161291   4.268   0.497   5.858  1.1006 -0.3982 -0.1296
13292TIP3    H261292   4.347   0.574   5.962  0.2070  0.4840 -0.0827
13293TIP3   OH261293   5.390   2.078  11.248  0.2450  0.4836 -0.1808
13293TIP3    H161294   5.417   2.127  11.172  0.0831  2.4227  0.9541
13293TIP3    H261295   5.382   1.987  11.217  2.1128  0.8643 -1.9432
13294TIP3   OH261296   2.415   4.874  12.326 -0.0057 -0.0893 -0.3023
13294TIP3    H161297   2.394   4.830  12.243  1.5419 -0.9250 -0.2822
13294TIP3    H261298   2.398   4.967  12.308 -1.0218 -0.4039 -1.1013
13295TIP3   OH261299   3.100   1.993   2.954 -0.0899 -0.2765 -0.1376
13295TIP3    H161300   3.054   1.963   3.032  1.4106 -0.6646  0.6294
13295TIP3    H261301   3.174   1.933   2.945  1.3593  1.4448 -0.2117
13296TIP3   OH261302   4.036   0.040  13.009  0.3647  0.4505 -0.2214
13296TIP3    H161303   4.077   0.012  13.091 -0.1812  1.0310  0.2578
13296TIP3    H261304   3.953   0.080  13.036 -0.6595 -0.9380 -1.1957
13297TIP3   OH261305   1.243   3.180  10.634  0.2030  0.5360 -0.3677
13297TIP3    H161306   1.317   3.121  10.641  1.6837  2.1821 -1.1697
13297TIP3    H261307   1.181   3.150  10.700  1.1563 -1.4748 -0.3231
13298TIP3   OH261308   2.875   5.330   1.537  0.2475  0.1260  0.5239
13298TIP3    H161309   2.902   5.415   1.502  0.5545 -0.5602 -0.9980
13298TIP3    H261310   2.790   5.314   1.497  1.9678 -2.0930 -2.6100
13299TIP3   OH261311   2.891   6.585  13.998 -0.0120 -0.2005  0.1320
13299TIP3    H161312   2.954   6.654  14.020  0.2785  0.0252 -1.2743
13299TIP3    H261313   2.908   6.515  14.061  0.2596  0.6721  1.0518
13300TIP3   OH261314   4.959   2.582   3.090  0.3118  0.0211 -0.0776
13300TIP3    H161315   4.894   2.646   3.119  1.0176  0.3120  0.9280
13300TIP3    H261316   5.026   2.634   3.045  0.2297 -0.1768 -0.4307
13301TIP3   OH261317   5.262   6.765   0.955 -0.2554  0.0186  0.0965
13301TIP3    H161318   5.196   6.774   1.024 -0.0946 -1.9092  0.5683
13301TIP3    H261319   5.346   6.764   1.001 -0.2147 -2.8486  0.1631
13302TIP3   OH261320   4.501   3.781   5.593  0.4835  1.1416  0.4590
13302TIP3    H161321   4.558   3.814   5.523  1.1938  2.7342  1.7082
13302TIP3    H261322   4.483   3.859   5.646 -1.1664  0.2381  1.2724
13303TIP3   OH261323   2.842   4.621  14.315  0.5680 -0.0223  0.0947
13303TIP3    H161324   2.805   4.666  14.239  0.1327 -1.4875 -0.5968
13303TIP3    H261325   2.783   4.645  14.387 -0.7752 -0.9564 -0.6426
13304TIP3   OH261326   5.930   5.862  13.437 -0.3084  0.2540 -0.2575
13304TIP3    H161327   5.842   5.897  13.422 -0.6322  0.0216  1.0126
13304TIP3    H261328   5.982   5.938  13.461 -0.4280  0.2289  0.0819
13305TIP3   OH261329   4.178   1.399   5.121  0.2208 -0.2706  0.6897
13305TIP3    H161330   4.156   1.308   5.140  1.5503 -0.7727 -0.0520
13305TIP3    H261331   4.141   1.415   5.035  2.7470 -1.2033 -0.6869
13306TIP3   OH261332   1.905   3.694   6.170  0.4277 -0.1989 -0.3821
13306TIP3    H161333   1.829   3.750   6.184 -2.3895 -3.1885 -2.3519
13306TIP3    H261334   1.925   3.659   6.257 -0.4342  0.6105  0.1556
13307TIP3   OH261335   4.640   2.350   3.601 -0.0833  0.5242 -0.5247
13307TIP3    H161336   4.720   2.310   3.635 -0.3433  0.0795 -0.4258
13307TIP3    H261337   4.576   2.340   3.671 -0.0148  1.5991 -0.2871
13308TIP3   OH261338   0.626   5.992  12.656  0.2953  0.3515  0.3633
13308TIP3    H161339   0.673   5.927  12.605  0.3570  1.7220 -1.4209
13308TIP3    H261340   0.551   6.016  12.601 -0.7986  0.3972  1.8203
13309TIP3   OH261341   3.377   6.744   2.707  0.0942  0.4841  0.1204
13309TIP3    H161342   3.327   6.668   2.737 -0.6773  0.8936 -0.1209
13309TIP3    H261343   3.406   6.787   2.788 -1.1593  1.0411  0.2857
13310TIP3   OH261344   1.800   6.072   3.235  0.8773 -0.2912  0.2720
13310TIP3    H161345   1.811   5.980   3.211 -1.1394 -0.9275  1.4739
13310TIP3    H261346   1.799   6.119   3.152  1.8762 -1.3661 -0.3658
13311TIP3   OH261347   6.458   3.070  14.629 -0.2556 -0.2747  0.0042
13311TIP3    H161348   6.535   3.030  14.669  1.3277  0.5813 -1.9941
13311TIP3    H261349   6.484   3.160  14.610 -1.2383 -0.3253 -1.9254
13312TIP3   OH261350   0.692   4.585  11.307 -0.2760 -0.5401  0.0854
13312TIP3    H161351   0.611   4.632  11.288 -1.1082 -0.8902  2.4995
13312TIP3    H261352   0.674   4.495  11.278  0.2295 -0.1108 -1.7194
13313TIP3   OH261353   0.971   0.180  15.482  0.4168  0.5031  0.2250
13313TIP3    H161354   0.916   0.213  15.411 -0.7863  1.4747  1.5571
13313TIP3    H261355   1.061   0.193  15.451 -0.0581  2.3467 -0.5234
13314TIP3   OH261356   2.320   4.678   3.063 -0.4917  0.0076  0.1893
13314TIP3    H161357   2.316   4.641   3.151  1.9945 -1.2555 -0.1393
13314TIP3    H261358   2.292   4.607   3.006 -2.1478  0.8378 -0.1059
13315TIP3   OH261359   4.765   6.471   2.311  0.2200 -0.1791 -0.3803
13315TIP3    H161360   4.853   6.494   2.281 -0.1633  2.6994  0.4223
13315TIP3    H261361   4.767   6.484   2.406 -0.7025 -1.4447 -0.1669
13316TIP3   OH261362   1.607   2.407  16.616 -0.2439 -0.2307 -0.2800
13316TIP3    H161363   1.616   2.486  16.563 -2.2206  0.6068  0.5132
13316TIP3    H261364   1.561   2.346  16.558 -0.9343  0.1085 -0.1098
13317TIP3   OH261365   3.093   3.634  14.787  0.2261  0.5607  0.3581
13317TIP3    H161366   3.083   3.614  14.880  2.7458 -0.4212  0.5119
13317TIP3    H261367   3.096   3.730  14.783  0.5635  0.6086  1.3816
13318TIP3   OH261368   0.985   5.076   4.870  0.0868  0.6642 -0.1763
13318TIP3    H161369   0.982   5.091   4.776 -0.5433  2.1423  0.0571
13318TIP3    H261370   1.057   5.131   4.901  1.2756 -0.9421  0.0473
13319TIP3   OH261371   1.927   2.726   3.883 -0.1250  0.2361  0.2639
13319TIP3    H161372   1.978   2.773   3.818 -0.5828  0.2574 -0.0788
13319TIP3    H261373   1.873   2.665   3.833  0.9794 -1.1857  0.7246
13320TIP3   OH261374   0.097   1.739   1.272  0.2967 -0.5395  0.7639
13320TIP3    H161375   0.029   1.674   1.254 -0.9935  1.0994 -0.6989
13320TIP3    H261376   0.075   1.773   1.359  0.5540 -1.5298  1.2273
13321TIP3   OH261377   3.002   4.838  11.033  0.8993 -0.0885 -0.2327
13321TIP3    H161378   3.027   4.893  11.107  0.9454  0.5827 -0.7459
13321TIP3    H261379   3.085   4.802  11.001  0.8619 -0.5306  0.1488
13322TIP3   OH261380   2.786   4.874   2.487  0.6685 -0.2477 -0.7179
13322TIP3    H161381   2.705   4.898   2.532  0.8560 -0.2509 -0.3756
13322TIP3    H261382   2.779   4.779   2.476  0.4797 -0.2046 -0.9806
13323TIP3   OH261383   2.240   0.676  13.438 -0.1093  0.1114 -0.4965
13323TIP3    H161384   2.148   0.694  13.460 -0.4994 -1.9210 -0.3090
13323TIP3    H261385   2.247   0.701  13.346 -1.6685 -2.2437 -1.3711
13324TIP3   OH261386   3.014   5.802  14.462 -0.2607 -0.1787 -0.0575
13324TIP3    H161387   3.081   5.857  14.422 -0.4743  0.8729  0.9608
13324TIP3    H261388   2.933   5.853  14.456 -0.4880 -0.4114  0.7866
13325TIP3   OH261389   3.452   4.221   5.316 -0.0873 -0.7711 -0.2608
13325TIP3    H161390   3.452   4.237   5.222 -1.5861 -0.2622 -0.1977
13325TIP3    H261391   3.409   4.297   5.354  0.2787 -1.0798  0.8206
13326TIP3   OH261392   4.127   0.490   3.828 -0.1621 -0.3888  0.3776
13326TIP3    H161393   4.069   0.416   3.812 -1.0698  0.6648 -1.4620
13326TIP3    H261394   4.069   0.562   3.851  0.5748  0.1631  0.5640
13327TIP3   OH261395   2.512   1.769   1.105 -0.2172 -0.5593 -0.0161
13327TIP3    H161396   2.534   1.854   1.066  1.1752 -1.9198 -2.4274
13327TIP3    H261397   2.419   1.775   1.126  0.1539  2.0529  1.3816
13328TIP3   OH261398   3.685   6.466   2.470  0.0051  0.6437  0.6345
13328TIP3    H161399   3.713   6.433   2.385 -1.2303 -0.3496  0.5878
13328TIP3    H261400   3.595   6.496   2.456 -0.5195 -0.3457  1.7835
13329TIP3   OH261401   3.790   5.786   5.199 -0.3872 -0.8170 -0.3689
13329TIP3    H161402   3.825   5.745   5.278  1.1475 -1.0202 -1.1037
13329TIP3    H261403   3.697   5.767   5.200 -0.8619  1.0481  2.4994
13330TIP3   OH261404   1.603   6.355   4.286  0.6522  0.0990 -0.3090
13330TIP3    H161405   1.540   6.402   4.231  0.8115 -0.2261 -0.7778
13330TIP3    H261406   1.607   6.406   4.367 -0.9945 -0.4312  0.1474
13331TIP3   OH261407   6.414   1.196   5.989  0.0377 -0.1871  0.1616
13331TIP3    H161408   6.461   1.267   5.946 -1.6909  0.5405 -0.6265
13331TIP3    H261409   6.448   1.116   5.947  0.5674  0.3017 -0.3622
13332TIP3   OH261410   2.128   4.139  14.369 -0.0671 -0.5283  1.0778
13332TIP3    H161411   2.108   4.169  14.457  1.2349 -0.2693  1.3047
13332TIP3    H261412   2.156   4.218  14.322 -0.2062 -0.7580  0.5942
13333TIP3   OH261413   1.733   1.988  14.838 -0.0476 -0.4616  0.3380
13333TIP3    H161414   1.804   1.954  14.891  1.0931 -3.2208 -2.6137
13333TIP3    H261415   1.675   1.913  14.824 -1.3905  0.6891 -0.6428
13334TIP3   OH261416   5.165   0.700   4.255 -0.7806 -0.2457  0.5542
13334TIP3    H161417   5.094   0.764   4.251  0.6859  1.4089 -0.9076
13334TIP3    H261418   5.176   0.670   4.165  0.2243 -0.6556  0.7928
13335TIP3   OH261419   2.290   0.895   3.804  0.1694 -0.2310  0.1322
13335TIP3    H161420   2.272   0.802   3.820 -0.6756  0.0661  1.0265
13335TIP3    H261421   2.374   0.911   3.847  0.0136 -0.4465  0.5234
13336TIP3   OH261422   1.672   5.847  13.630 -0.0121  0.3291  0.3043
13336TIP3    H161423   1.659   5.940  13.609 -0.0440  0.2694  0.0527
13336TIP3    H261424   1.651   5.840  13.723  0.1562  0.6060  0.3641
13337TIP3   OH261425   0.384   5.390   5.629 -0.4122  0.6181 -0.1481
13337TIP3    H161426   0.341   5.317   5.673  2.1437 -0.5040  0.7302
13337TIP3    H261427   0.382   5.461   5.693 -0.6297  0.4573  0.0240
13338TIP3   OH261428   5.213   6.624  14.591  0.5352 -0.3151  0.5964
13338TIP3    H161429   5.306   6.647  14.597  0.0151  2.3219 -0.0069
13338TIP3    H261430   5.210   6.553  14.527  2.0467  0.3473 -0.2667
13339TIP3   OH261431   6.791   6.506  14.106 -0.3621 -0.3011  0.1342
13339TIP3    H161432   6.783   6.428  14.051  0.3080 -1.4387  1.5728
13339TIP3    H261433   6.703   6.518  14.142 -0.1197 -1.3834  1.1488
13340TIP3   OH261434   0.048   5.198  12.873 -0.0310 -0.5326 -0.2334
13340TIP3    H161435   0.057   5.105  12.853  2.9410 -0.4739  0.3755
13340TIP3    H261436   0.011   5.201  12.961 -0.1332 -1.1445 -0.2533
13341TIP3   OH261437   6.513   0.005  11.045  0.1472 -0.0646  0.2482
13341TIP3    H161438   6.547  -0.072  11.091  0.4272  0.4799  0.9834
13341TIP3    H261439   6.590   0.048  11.009 -0.0487 -0.3475 -0.5306
13342TIP3   OH261440   1.057   1.493   3.732  0.1493  0.2005  0.1940
13342TIP3    H161441   0.998   1.569   3.734  0.5802  0.6374 -1.7479
13342TIP3    H261442   1.144   1.531   3.727  0.2913 -0.3340 -2.6153
13343TIP3   OH261443   2.250   1.812   4.930  0.0480  0.1715  0.2057
13343TIP3    H161444   2.252   1.731   4.981 -1.7189 -0.1810 -0.2217
13343TIP3    H261445   2.281   1.880   4.990  1.9693 -0.8466  0.4362
13344TIP3   OH261446   5.579   1.637   3.958  0.1980  0.8178  0.6238
13344TIP3    H161447   5.529   1.706   4.002  0.9893  1.4407  0.5688
13344TIP3    H261448   5.665   1.639   4.001  0.8238  1.1071 -0.6032
13345TIP3   OH261449   1.763   0.782   2.835 -0.0475 -0.1071  0.2978
13345TIP3    H161450   1.823   0.840   2.788  0.9043 -2.4178 -1.5821
13345TIP3    H261451   1.813   0.750   2.910  1.4345 -2.3594 -1.4924
13346TIP3   OH261452   5.081   3.049  13.383  0.4704  0.1924  0.2803
13346TIP3    H161453   5.116   3.021  13.299  0.1022 -0.2549  0.2739
13346TIP3    H261454   5.017   2.982  13.407  0.8927  0.0740  1.1297
13347TIP3   OH261455   1.676   1.665  16.638 -0.1051  0.0505  0.2584
13347TIP3    H161456   1.678   1.697  16.547  1.3414 -0.2585  0.1579
13347TIP3    H261457   1.608   1.597  16.638 -1.3067  1.2059 -0.1714
13348TIP3   OH261458   6.783   5.291  14.696 -0.4020  0.1195 -0.4159
13348TIP3    H161459   6.800   5.349  14.770 -1.9477  1.1277 -0.8040
13348TIP3    H261460   6.858   5.303  14.637 -0.3709  1.2182 -0.1658
13349TIP3   OH261461   2.037   1.964  11.360 -0.3388  0.0337 -0.1310
13349TIP3    H161462   2.011   1.873  11.366  0.5079 -0.1499  1.4153
13349TIP3    H261463   2.114   1.964  11.303  0.2567 -0.3846  0.6488
13350TIP3   OH261464   4.258   6.239   2.136  0.3397  0.2896  0.3067
13350TIP3    H161465   4.305   6.319   2.110  0.1194  0.6524  1.0101
13350TIP3    H261466   4.171   6.269   2.161 -0.1610 -0.3394 -0.6278
13351TIP3   OH261467   5.156   3.190  11.541  0.1570 -0.5402 -0.0434
13351TIP3    H161468   5.073   3.166  11.501 -0.7250 -0.2391  1.5344
13351TIP3    H261469   5.185   3.268  11.492 -2.5764  1.9258  1.9295
13352TIP3   OH261470   2.769   2.055  16.906  0.0840  0.4343 -0.3940
13352TIP3    H161471   2.861   2.084  16.901  0.0688  0.6200  0.3466
13352TIP3    H261472   2.726   2.101  16.834  0.9338 -1.0903 -1.9812
13353TIP3   OH261473   2.599   2.888   0.441  0.0213 -0.5699 -0.1640
13353TIP3    H161474   2.689   2.883   0.410 -0.1610 -2.5799 -0.5319
13353TIP3    H261475   2.587   2.979   0.466  2.3628 -0.3867  0.5301
13354TIP3   OH261476   3.472   1.897   4.616  0.0623  0.1973  0.2963
13354TIP3    H161477   3.543   1.843   4.582 -1.3109 -0.2755 -2.1105
13354TIP3    H261478   3.418   1.836   4.666 -1.3434 -0.7699 -2.2006
13355TIP3   OH261479   1.730   1.115   2.570 -0.1238  0.5203 -0.2453
13355TIP3    H161480   1.804   1.093   2.628 -0.5834  1.1844  0.6246
13355TIP3    H261481   1.665   1.048   2.589 -0.8981  1.6281  1.2248
13356TIP3   OH261482   0.128   6.760   6.042  0.4321  0.3762 -0.1905
13356TIP3    H161483   0.146   6.839   6.093 -2.2260  2.4409 -2.1311
13356TIP3    H261484   0.048   6.724   6.080  2.1418 -2.1887  1.3459
13357TIP3   OH261485   6.228   1.586  11.364 -0.5237 -0.0410  0.1648
13357TIP3    H161486   6.295   1.545  11.309 -1.8692 -0.6709 -1.0641
13357TIP3    H261487   6.151   1.530  11.355 -1.6400  1.3694  0.4472
13358TIP3   OH261488   6.193   4.895   0.190  0.2757 -0.3048  0.1790
13358TIP3    H161489   6.113   4.858   0.153 -0.2038  0.8649 -0.0175
13358TIP3    H261490   6.264   4.847   0.148 -0.3137 -0.7844 -0.2824
13359TIP3   OH261491   6.322   0.756   5.235  0.0571 -0.0972 -0.2422
13359TIP3    H161492   6.295   0.826   5.294 -0.1553 -1.4887  1.3867
13359TIP3    H261493   6.311   0.793   5.147  0.7572  2.1853  0.5587
13360TIP3   OH261494   6.732   3.909  14.285  0.3921  0.4384  0.1623
13360TIP3    H161495   6.740   3.820  14.251  0.5488  1.2993 -2.2237
13360TIP3    H261496   6.672   3.953  14.224 -0.8443  1.6134  2.1050
13361TIP3   OH261497   6.346   6.665   5.081 -0.3545 -0.2825 -0.4767
13361TIP3    H161498   6.274   6.614   5.117 -0.3844 -1.5962 -2.2492
13361TIP3    H261499   6.419   6.651   5.142 -0.6901 -1.5786 -0.3378
13362TIP3   OH261500   6.613   4.289  14.128 -0.0820  0.2056  0.2565
13362TIP3    H161501   6.549   4.218  14.118  0.8958 -0.8043  0.9173
13362TIP3    H261502   6.696   4.244  14.145  0.6405  1.5075  0.2711
13363TIP3   OH261503   1.725   4.248  14.149  0.7623  0.3004 -0.2971
13363TIP3    H161504   1.769   4.196  14.081 -1.3755 -2.9167  0.5394
13363TIP3    H261505   1.697   4.328  14.103  1.2592 -0.7726 -2.6383
13364TIP3   OH261506   2.071   3.035   3.534  0.4543  0.0550  0.2131
13364TIP3    H161507   2.103   3.118   3.570 -2.6970  1.6599 -0.3704
13364TIP3    H261508   1.993   3.016   3.585 -0.3013 -1.2252 -1.3516
13365TIP3   OH261509   2.393   4.133   4.292  0.0572 -0.0416  0.1637
13365TIP3    H161510   2.485   4.119   4.270  0.4147  1.7217  0.3249
13365TIP3    H261511   2.344   4.101   4.217  0.9052  0.3601 -0.5730
13366TIP3   OH261512   0.300   4.188   2.228  0.4839 -0.0975  0.5632
13366TIP3    H161513   0.372   4.246   2.205  1.1333 -1.3862 -0.8591
13366TIP3    H261514   0.339   4.121   2.283 -0.1540  0.4856  1.7621
13367TIP3   OH261515   1.480   1.024   3.722  0.3583 -0.3449  0.3866
13367TIP3    H161516   1.422   0.961   3.766  0.8734 -2.1592 -1.4171
13367TIP3    H261517   1.553   1.035   3.783 -0.0807 -0.9070  1.0368
13368TIP3   OH261518   5.260   6.062   0.137  0.1106 -0.0511  0.2533
13368TIP3    H161519   5.318   6.133   0.164 -0.2241  0.1063  0.5799
13368TIP3    H261520   5.302   5.982   0.170  1.0666 -0.1382 -1.0874
13369TIP3   OH261521   5.801   5.751   3.299  0.3613  0.4387 -0.4712
13369TIP3    H161522   5.785   5.662   3.331 -1.3949 -0.2191 -2.8939
13369TIP3    H261523   5.890   5.748   3.264  0.8355  0.0649  0.7176
13370TIP3   OH261524   0.883   3.221  16.416 -0.1730 -0.2464  0.5219
13370TIP3    H161525   0.802   3.231  16.366  0.5294 -1.1789 -0.8593
13370TIP3    H261526   0.895   3.126  16.424  0.7805 -0.1197  0.7118
13371TIP3   OH261527   5.201   4.563  13.175  0.0307  0.0434 -0.1325
13371TIP3    H161528   5.256   4.633  13.139  0.4755  0.6831  1.6958
13371TIP3    H261529   5.257   4.486  13.174  0.2627  0.2092 -0.1994
13372TIP3   OH261530   1.132   5.396  14.512 -0.6079 -0.3445 -0.3708
13372TIP3    H161531   1.091   5.480  14.529  0.4726  0.1735 -0.2271
13372TIP3    H261532   1.219   5.403  14.552 -0.9389 -1.9754  0.7127
13373TIP3   OH261533   4.337   0.248  14.679  0.0857 -0.1650  0.1151
13373TIP3    H161534   4.260   0.275  14.729 -1.0167 -1.0458 -1.0588
13373TIP3    H261535   4.302   0.204  14.602  1.7747 -0.6792 -0.4054
13374TIP3   OH261536   4.166   0.306   6.448 -0.5162 -0.0625 -0.5362
13374TIP3    H161537   4.107   0.285   6.377 -0.1967  1.0103 -1.1391
13374TIP3    H261538   4.250   0.266   6.423 -0.5983 -0.3263 -0.3939
13375TIP3   OH261539   4.458   6.380   6.614  0.2548 -0.1193 -0.3503
13375TIP3    H161540   4.480   6.426   6.695  0.8068  1.8315 -1.5184
13375TIP3    H261541   4.526   6.407   6.552 -0.3135 -1.3170 -1.5536
13376TIP3   OH261542   0.462   2.660   1.010  0.0807 -0.8121 -0.0431
13376TIP3    H161543   0.477   2.578   1.056  0.8521 -1.2498 -1.0223
13376TIP3    H261544   0.375   2.651   0.972 -0.1776 -0.8284  0.5434
13377TIP3   OH261545   3.636   5.366   4.834 -0.2450 -0.2582  0.6308
13377TIP3    H161546   3.654   5.333   4.922 -0.4197 -0.3119  0.6463
13377TIP3    H261547   3.629   5.461   4.845 -0.4304 -0.2790  0.7032
13378TIP3   OH261548   1.727   5.957   5.450  0.5115 -0.5233 -0.4531
13378TIP3    H161549   1.737   5.910   5.367  1.0982  0.4314 -0.9420
13378TIP3    H261550   1.806   6.012   5.456 -1.1618  2.1379 -1.0520
13379TIP3   OH261551   0.595   0.764   0.318 -0.6119  0.0034  0.2536
13379TIP3    H161552   0.509   0.722   0.316 -1.0554  0.9126 -1.6631
13379TIP3    H261553   0.583   0.846   0.270  0.3467  2.1668  3.3346
13380TIP3   OH261554   6.259   5.344   0.864  0.2832 -0.3802 -0.0126
13380TIP3    H161555   6.315   5.270   0.841  0.3346 -0.3120 -0.1137
13380TIP3    H261556   6.267   5.403   0.788  1.3548  0.3808  0.6628
13381TIP3   OH261557   0.097   0.080   2.321 -0.1278  0.7701  0.5062
13381TIP3    H161558   0.185   0.055   2.293 -0.9867  0.5833 -2.3378
13381TIP3    H261559   0.099   0.175   2.323  0.9158  0.8226  3.6096
13382TIP3   OH261560   1.453   2.394   2.023  0.2146 -0.0429 -0.1318
13382TIP3    H161561   1.472   2.426   2.111 -0.5993 -0.4891  0.2236
13382TIP3    H261562   1.358   2.405   2.014  0.4096  0.7818 -1.2742
13383TIP3   OH261563   5.877   1.361   1.194 -0.1092  0.6313 -0.0435
13383TIP3    H161564   5.895   1.422   1.122 -0.5560  0.8255  0.0092
13383TIP3    H261565   5.936   1.287   1.178 -2.1774 -0.6632 -2.2018
13384TIP3   OH261566   6.401   4.083   0.100 -0.3542  0.2761  0.7137
13384TIP3    H161567   6.404   3.987   0.095 -2.1508  0.1953  0.5934
13384TIP3    H261568   6.490   4.111   0.078  0.1624 -1.3501  0.5916
13385TIP3   OH261569   3.446   3.371   3.475  0.3015 -1.0772 -0.2452
13385TIP3    H161570   3.455   3.459   3.438 -0.7701 -1.0108 -0.3577
13385TIP3    H261571   3.422   3.385   3.566 -1.3395 -1.2412 -0.6331
13386TIP3   OH261572   3.707   0.497   5.551  0.2205 -0.2332  0.2333
13386TIP3    H161573   3.744   0.472   5.466  1.0973  2.8148 -0.3872
13386TIP3    H261574   3.615   0.515   5.532  0.3471  0.1655 -0.0017
13387TIP3   OH261575   4.400   4.352   6.667  0.5156  0.1160 -0.7652
13387TIP3    H161576   4.466   4.422   6.675  0.9500  0.0749 -3.1343
13387TIP3    H261577   4.441   4.288   6.609 -0.9252 -0.7952 -0.8062
13388TIP3   OH261578   4.740   1.477  12.819  0.4747  0.6164 -0.2761
13388TIP3    H161579   4.834   1.469  12.801  0.5921 -1.2763  0.9610
13388TIP3    H261580   4.704   1.391  12.800 -1.2364  1.5586 -1.6411
13389TIP3   OH261581   5.045   6.085   1.054 -0.7534  0.2875  0.2508
13389TIP3    H161582   5.106   6.115   1.121  0.9039 -2.3664  0.0805
13389TIP3    H261583   4.962   6.071   1.101 -0.9046  2.5471  0.7740
13390TIP3   OH261584   1.427   1.859   0.373 -0.6838  0.4013 -0.2683
13390TIP3    H161585   1.442   1.821   0.286  0.0397  0.3382 -0.1255
13390TIP3    H261586   1.371   1.935   0.357 -0.4879  0.4378 -0.7972
13391TIP3   OH261587   3.872   1.248   0.453  0.8247  0.5416 -0.0374
13391TIP3    H161588   3.891   1.207   0.537 -0.2625  3.3654  1.7281
13391TIP3    H261589   3.955   1.286   0.425  0.9675  0.4893  0.3159
13392TIP3   OH261590   3.254   1.728  10.874 -0.2076 -0.3381 -0.2375
13392TIP3    H161591   3.282   1.647  10.917 -1.6590 -0.4556  0.5414
13392TIP3    H261592   3.273   1.714  10.782  1.7442 -0.6091  0.1620
13393TIP3   OH261593   0.954   4.983   4.021 -0.6605 -0.2161 -0.0648
13393TIP3    H161594   0.925   5.053   3.964  0.2291 -0.0510 -0.3375
13393TIP3    H261595   0.893   4.911   4.004 -0.6854 -0.0127 -0.8836
13394TIP3   OH261596   5.024   4.657   0.525  0.6285 -0.6463  0.5253
13394TIP3    H161597   5.114   4.626   0.521  1.0869  0.7732 -0.9598
13394TIP3    H261598   5.024   4.720   0.598 -0.0232 -3.0180  2.7406
13395TIP3   OH261599   0.674   0.424  14.647 -0.5714 -0.0549 -0.0925
13395TIP3    H161600   0.714   0.401  14.563  0.4845 -0.2844  0.4539
13395TIP3    H261601   0.606   0.487  14.625 -0.1331  0.0889 -1.0891
13396TIP3   OH261602   3.780   5.019  13.052 -0.6261 -0.2374  0.1351
13396TIP3    H161603   3.793   4.934  13.010 -0.4135  1.2624 -3.1201
13396TIP3    H261604   3.868   5.045  13.080 -0.2628 -0.1089 -1.0425
13397TIP3   OH261605   6.467   5.777  11.562  0.6279  0.1925 -0.5690
13397TIP3    H161606   6.426   5.756  11.478  2.0220  0.3150 -1.3066
13397TIP3    H261607   6.532   5.844  11.541 -0.8150  2.2545  1.0459
13398TIP3   OH261608   1.970   5.411   5.325 -0.0354 -1.0528  0.0774
13398TIP3    H161609   2.013   5.330   5.297  3.1400  0.0621  1.3792
13398TIP3    H261610   1.966   5.465   5.246 -0.1789 -1.6364 -0.3181
13399TIP3   OH261611   0.280   5.803   1.272 -0.6198 -0.2442  0.4845
13399TIP3    H161612   0.262   5.897   1.283 -0.4329 -0.3006  1.3335
13399TIP3    H261613   0.298   5.794   1.179  0.4326  0.7713  0.5545
13400TIP3   OH261614   0.360   4.831   3.933 -0.2773 -0.3778  0.7634
13400TIP3    H161615   0.406   4.763   3.884 -0.8269 -0.4221  0.3031
13400TIP3    H261616   0.275   4.792   3.954 -0.5946  0.1619  0.4954
13401TIP3   OH261617   3.564   3.485  12.254 -0.1551  0.1710  0.5811
13401TIP3    H161618   3.473   3.503  12.229 -0.4131  0.3368  1.5805
13401TIP3    H261619   3.600   3.571  12.274  1.3032  0.5839 -3.0690
13402TIP3   OH261620   4.296   3.174  13.230 -0.4530  0.3273  0.0866
13402TIP3    H161621   4.251   3.224  13.297 -2.5733 -0.9986 -0.2571
13402TIP3    H261622   4.285   3.226  13.150  0.7889  1.1772  0.4361
13403TIP3   OH261623   5.132   3.584   3.235  0.4552  0.1730  0.2903
13403TIP3    H161624   5.213   3.627   3.262 -0.2365  2.4290 -0.9459
13403TIP3    H261625   5.076   3.589   3.312  0.8802  0.2050  0.6017
13404TIP3   OH261626   1.240   6.218  12.783  0.0262  0.0364  0.5301
13404TIP3    H161627   1.220   6.274  12.708 -1.3362 -0.0813  0.7706
13404TIP3    H261628   1.284   6.276  12.845 -0.3597  0.5624  0.3230
13405TIP3   OH261629   4.322   3.280  16.995  0.1045  0.3518  0.1073
13405TIP3    H161630   4.358   3.212  16.939  0.4400 -0.2571  1.0405
13405TIP3    H261631   4.383   3.354  16.984  0.6809 -0.0771  0.3524
13406TIP3   OH261632   2.332   4.591  11.892  0.8867  0.2232  0.6652
13406TIP3    H161633   2.321   4.566  11.800  0.4965 -0.6030  0.9159
13406TIP3    H261634   2.242   4.599  11.925  1.0206  1.0343  0.8449
13407TIP3   OH261635   5.378   4.225  14.547  0.0629 -0.0461 -1.0030
13407TIP3    H161636   5.453   4.224  14.607 -0.2700  0.5483 -0.5593
13407TIP3    H261637   5.364   4.318  14.528 -0.0509 -0.2103 -1.7335
13408TIP3   OH261638   5.803   5.537   4.711 -0.3856  0.4153  0.2842
13408TIP3    H161639   5.784   5.584   4.630  1.5936  0.9379  0.0627
13408TIP3    H261640   5.848   5.458   4.683 -1.1720 -0.2383  0.8140
13409TIP3   OH261641   2.805   3.021  15.253  0.0106  0.3371 -0.1236
13409TIP3    H161642   2.896   3.017  15.284 -0.3391 -0.8153  0.8683
13409TIP3    H261643   2.810   3.059  15.166  1.6678 -1.4611 -0.8751
13410TIP3   OH261644   2.811   2.102   2.998 -0.0312 -0.1008 -0.1683
13410TIP3    H161645   2.777   2.059   3.077  0.2172  0.4062  0.2178
13410TIP3    H261646   2.899   2.066   2.987  0.2206  0.3802  0.2206
13411TIP3   OH261647   4.306   2.183  12.125 -0.1991 -0.1144 -0.0147
13411TIP3    H161648   4.286   2.244  12.196 -0.3081  1.3401 -1.2671
13411TIP3    H261649   4.291   2.232  12.045 -0.7627 -1.9392 -1.0890
13412TIP3   OH261650   5.834   4.497  13.900 -0.4694 -0.4517 -0.3006
13412TIP3    H161651   5.880   4.413  13.895  0.7513  0.2297 -0.8045
13412TIP3    H261652   5.900   4.559  13.930 -0.9323  0.6246 -1.4363
13413TIP3   OH261653   4.910   6.333  11.247 -0.2932  0.3834 -0.2859
13413TIP3    H161654   4.984   6.331  11.186 -0.6031  1.5710 -0.7338
13413TIP3    H261655   4.836   6.301  11.195  0.3054 -3.4912  0.8990
13414TIP3   OH261656   1.786   5.586  16.096  0.2050  0.2709 -0.1503
13414TIP3    H161657   1.825   5.655  16.043 -1.1492 -0.2720 -1.9700
13414TIP3    H261658   1.742   5.529  16.032  0.3397 -1.6629  1.3748
13415TIP3   OH261659   2.672   6.052   2.487  0.0649  0.0206 -0.0516
13415TIP3    H161660   2.670   6.147   2.478 -2.4059  0.0654  0.1199
13415TIP3    H261661   2.760   6.032   2.517  0.6648  2.2389 -0.1741
13416TIP3   OH261662   5.578   1.473  16.046 -0.9244 -0.0086 -0.0471
13416TIP3    H161663   5.624   1.389  16.052  0.3276  0.6531  0.0555
13416TIP3    H261664   5.641   1.537  16.079 -1.4747  1.1073 -1.0678
13417TIP3   OH261665   0.503   1.984   5.549  0.4291 -0.5336 -0.0413
13417TIP3    H161666   0.432   2.048   5.550 -0.4413 -1.4714 -0.0461
13417TIP3    H261667   0.568   2.019   5.609 -0.2333  0.1418  0.2966
13418TIP3   OH261668   4.001   2.441  14.984 -0.0883 -0.0724 -0.6468
13418TIP3    H161669   4.043   2.408  15.063 -0.1799 -1.3221 -1.1061
13418TIP3    H261670   3.908   2.440  15.004 -0.1793 -1.2085 -1.0445
13419TIP3   OH261671   5.277   0.536  13.751 -0.0530 -0.6656  0.2938
13419TIP3    H161672   5.344   0.525  13.819 -1.1019  0.5241  1.5984
13419TIP3    H261673   5.239   0.621  13.770 -2.3014 -1.5285 -0.0493
13420TIP3   OH261674   2.446   1.629  12.942  0.0914 -0.0353 -0.4408
13420TIP3    H161675   2.526   1.642  12.994 -0.0215  1.9296 -0.6691
13420TIP3    H261676   2.477   1.589  12.861  0.3936 -2.2386  0.6926
13421TIP3   OH261677   0.764   4.589   1.768  0.0788 -0.5757 -0.1028
13421TIP3    H161678   0.679   4.615   1.731  0.4914  1.1577  0.1202
13421TIP3    H261679   0.781   4.503   1.730 -1.1670 -0.3716 -1.1777
13422TIP3   OH261680   5.995   6.201  13.170 -0.1739  0.4326  0.3175
13422TIP3    H161681   5.935   6.271  13.193  0.9968  1.4471  0.4184
13422TIP3    H261682   5.939   6.129  13.140 -1.4570  0.9395  1.4391
13423TIP3   OH261683   4.019   3.433  12.442 -0.1746 -0.1569  0.1107
13423TIP3    H161684   4.047   3.397  12.358  0.2673 -0.6912  0.4750
13423TIP3    H261685   4.055   3.522  12.443  2.3740 -1.1029  0.9223
13424TIP3   OH261686   1.310   1.617  13.760 -0.1038 -0.8149  0.5950
13424TIP3    H161687   1.258   1.673  13.817 -0.0691  0.7334 -0.8413
13424TIP3    H261688   1.379   1.581  13.817 -0.9023 -0.4610  1.8176
13425TIP3   OH261689   4.818   4.830   3.497 -0.2091 -0.0526  0.3911
13425TIP3    H161690   4.906   4.836   3.533 -1.3618 -0.4884  3.6185
13425TIP3    H261691   4.789   4.741   3.518 -1.8890  0.5254  0.6842
13426TIP3   OH261692   5.129   5.157  14.515 -0.9217  0.1003  0.6476
13426TIP3    H161693   5.168   5.230  14.466 -1.9558  0.9951  1.1072
13426TIP3    H261694   5.091   5.101  14.447  0.9694 -0.7161  0.2046
13427TIP3   OH261695   3.479   3.975   5.461  0.3877  0.2657 -0.1675
13427TIP3    H161696   3.470   4.057   5.413 -1.0683 -0.2039 -0.7481
13427TIP3    H261697   3.514   4.001   5.546  0.9934  1.3494 -0.7262
13428TIP3   OH261698   1.064   0.889   2.605 -0.1442  0.4956  0.1799
13428TIP3    H161699   1.069   0.953   2.534 -1.6631  0.0287 -0.3929
13428TIP3    H261700   1.007   0.931   2.670 -1.8238 -0.5230 -0.5514
13429TIP3   OH261701   4.786   1.496   3.450 -0.4349 -0.1269  0.2817
13429TIP3    H161702   4.787   1.444   3.370  0.6443  0.2769  0.0122
13429TIP3    H261703   4.750   1.581   3.423 -1.5737 -0.4994  0.5801
13430TIP3   OH261704   0.701   0.943   4.052  0.4751 -0.0130 -0.5246
13430TIP3    H161705   0.618   0.959   4.097  0.4388 -1.3856 -0.0518
13430TIP3    H261706   0.695   0.852   4.023  0.0781  1.0010 -4.2352
13431TIP3   OH261707   2.359   1.694  14.600  0.2899  0.4856 -0.1919
13431TIP3    H161708   2.287   1.725  14.654 -0.7129 -4.6004  1.9951
13431TIP3    H261709   2.317   1.662  14.520  0.2894 -0.7931  0.2934
13432TIP3   OH261710   3.361   1.237  15.227 -0.2401 -0.0451  0.2196
13432TIP3    H161711   3.342   1.157  15.275  0.0869 -1.3890 -1.7366
13432TIP3    H261712   3.283   1.253  15.174  0.2338  0.0902 -0.4676
13433TIP3   OH261713   4.023   2.650   3.553  0.3991  0.3694  0.1568
13433TIP3    H161714   3.965   2.596   3.500  0.2274  0.8750 -0.1768
13433TIP3    H261715   3.975   2.663   3.635  1.0142 -1.1051  0.7932
13434TIP3   OH261716   2.449   5.017   1.282 -0.1745  0.1113 -0.2874
13434TIP3    H161717   2.537   5.018   1.245 -1.4436  0.0670 -3.6275
13434TIP3    H261718   2.455   4.955   1.355  3.1086  2.1684  1.4351
13435TIP3   OH261719   4.743   5.831   1.597 -0.0099  0.1171 -0.3718
13435TIP3    H161720   4.753   5.925   1.607 -1.0012  0.2756 -0.8097
13435TIP3    H261721   4.680   5.805   1.664 -1.0392  0.0411 -1.3487
13436TIP3   OH261722   1.782   4.492  11.368  0.4047  0.2834  0.1003
13436TIP3    H161723   1.754   4.449  11.448 -0.9895 -1.0882 -1.0793
13436TIP3    H261724   1.706   4.488  11.310  1.7610  0.0667 -1.7603
13437TIP3   OH261725   6.643   5.996   5.320  0.1638  0.4814  0.3540
13437TIP3    H161726   6.637   6.091   5.308 -0.1364  0.8420  2.8489
13437TIP3    H261727   6.588   5.977   5.396 -0.6676 -1.8870 -0.7327
13438TIP3   OH261728   1.864   4.134   1.047 -0.3150  0.0204 -0.0202
13438TIP3    H161729   1.785   4.174   1.010 -2.2272 -1.8480  1.7851
13438TIP3    H261730   1.862   4.044   1.015  0.9651 -0.1364  0.2956
13439TIP3   OH261731   1.944   4.097  13.822 -0.0725  0.6462  0.8907
13439TIP3    H161732   1.889   4.077  13.746  1.1017 -0.1513  0.2162
13439TIP3    H261733   1.889   4.075  13.897 -0.8928  0.4486  0.2537
13440TIP3   OH261734   6.089   5.055  12.234  0.1512  0.4281 -0.4217
13440TIP3    H161735   5.994   5.061  12.236  0.1011  1.2994 -2.6877
13440TIP3    H261736   6.113   5.025  12.322 -2.1957  0.0778  0.1626
13441TIP3   OH261737   3.861   1.220  10.942  0.1801  0.3818  0.2842
13441TIP3    H161738   3.885   1.271  10.864  1.7266 -0.8094 -0.0729
13441TIP3    H261739   3.936   1.231  11.001  0.5550 -1.4195  0.1979
13442TIP3   OH261740   6.514   6.518   3.044  0.7624  0.4736  0.0343
13442TIP3    H161741   6.470   6.435   3.062  2.5209 -0.7217 -0.9364
13442TIP3    H261742   6.475   6.549   2.963 -0.5999  1.1380  0.9108
13443TIP3   OH261743   5.626   3.072   5.711 -0.1421  0.0433  0.1544
13443TIP3    H161744   5.583   3.070   5.797  0.6715  0.0090  0.5683
13443TIP3    H261745   5.560   3.109   5.653 -0.2102  1.4563  1.0783
13444TIP3   OH261746   4.798   1.376  17.219 -0.4402  0.3926  0.1915
13444TIP3    H161747   4.731   1.441  17.195 -1.6453 -0.5853  0.7659
13444TIP3    H261748   4.795   1.312  17.148  1.5274  1.4635 -0.9508
13445TIP3   OH261749   2.814   6.050   0.648 -0.0229 -0.5172 -0.3822
13445TIP3    H161750   2.796   6.080   0.559  0.0269 -1.6951 -0.8048
13445TIP3    H261751   2.909   6.058   0.657 -0.1747  1.1499  0.1675
13446TIP3   OH261752   2.597   0.200  11.696  0.5130 -0.1606 -0.2827
13446TIP3    H161753   2.595   0.271  11.760 -0.6110 -1.1303  0.7878
13446TIP3    H261754   2.690   0.176  11.690  0.7782  0.7094  0.0741
13447TIP3   OH261755   5.586   1.457  15.679 -0.1646  0.1504 -0.5702
13447TIP3    H161756   5.555   1.437  15.591 -0.9567 -0.4186 -0.1686
13447TIP3    H261757   5.598   1.552  15.678 -2.0156  0.4197 -0.7301
13448TIP3   OH261758   0.489   2.553  13.344 -0.5115 -0.4317  0.0908
13448TIP3    H161759   0.486   2.648  13.337 -0.6733 -0.1988  2.6829
13448TIP3    H261760   0.536   2.525  13.265  2.2577  2.0283  0.6850
13449TIP3   OH261761   2.821   3.467  15.742 -0.0171 -0.0277  0.6965
13449TIP3    H161762   2.780   3.549  15.769  1.2024  0.6212  0.6492
13449TIP3    H261763   2.750   3.416  15.704 -1.2444  0.1279  2.6178
13450TIP3   OH261764   3.399   5.947   1.348  0.2029  0.2728  0.2402
13450TIP3    H161765   3.483   5.903   1.340 -0.8605 -1.7496 -0.4584
13450TIP3    H261766   3.409   6.006   1.423  1.9743 -0.5029  0.6460
13451TIP3   OH261767   1.298   1.257   1.353  0.3482  0.3138 -0.3234
13451TIP3    H161768   1.258   1.192   1.410  0.6252  1.1703  0.8942
13451TIP3    H261769   1.386   1.224   1.335  1.4212  1.4452  2.3386
13452TIP3   OH261770   6.749   4.649   2.193 -0.5208  0.2903 -0.1065
13452TIP3    H161771   6.798   4.708   2.251  0.2033 -0.1114 -0.2947
13452TIP3    H261772   6.816   4.592   2.155 -1.0112  0.3653 -1.1272
13453TIP3   OH261773   2.066   4.265   4.419  0.6430  0.1249  0.5733
13453TIP3    H161774   2.038   4.334   4.480  1.0353  0.6001  0.2277
13453TIP3    H261775   2.075   4.310   4.335  0.4367 -0.4566  0.2368
13454TIP3   OH261776   2.716   0.053   3.648 -0.0179  0.6271  0.5100
13454TIP3    H161777   2.726   0.072   3.555 -0.2246  0.0301  0.3588
13454TIP3    H261778   2.621   0.055   3.662  0.0332  1.1220  0.7980
13455TIP3   OH261779   4.877   6.723   3.678 -0.0199 -0.5733  0.2167
13455TIP3    H161780   4.949   6.669   3.645 -0.8561 -1.9629  0.5930
13455TIP3    H261781   4.799   6.668   3.667 -1.4391  1.7323 -2.3834
13456TIP3   OH261782   3.591   0.980   3.274 -1.0580  0.4510  0.4936
13456TIP3    H161783   3.654   0.985   3.346 -1.9333  0.0326  1.3093
13456TIP3    H261784   3.630   0.917   3.213 -1.9166 -1.9969  2.3046
13457TIP3   OH261785   1.252   6.688  12.824 -0.7404 -0.3926 -0.1411
13457TIP3    H161786   1.298   6.659  12.903 -0.5433 -1.5708 -0.6641
13457TIP3    H261787   1.260   6.783  12.825 -0.2674 -0.4279  0.9693
13458TIP3   OH261788   4.499   5.919   3.261 -0.1238 -0.1582 -0.0421
13458TIP3    H161789   4.485   5.874   3.178 -1.5626  0.9602 -0.4482
13458TIP3    H261790   4.418   5.966   3.277  0.2706 -0.0317  1.8189
13459TIP3   OH261791   2.896   1.637  15.005  0.4435  0.6829  0.2586
13459TIP3    H161792   2.929   1.560  15.052  2.4075 -0.8026 -3.1392
13459TIP3    H261793   2.974   1.689  14.986 -0.3638  1.6236 -0.6211
13460TIP3   OH261794   0.106   6.516   5.457  0.7322  0.1176  0.1218
13460TIP3    H161795   0.044   6.557   5.396  1.6821  0.3285 -0.7343
13460TIP3    H261796   0.054   6.495   5.534 -0.5094 -0.1109 -0.7438
13461TIP3   OH261797   2.953   2.772  11.400  0.3128 -0.2014  0.1023
13461TIP3    H161798   2.947   2.807  11.488 -0.2355  0.7270 -0.2848
13461TIP3    H261799   2.955   2.677  11.412  0.3374 -0.0857  1.1078
13462TIP3   OH261800   1.317   5.964   0.421  0.0696 -0.4084  0.1452
13462TIP3    H161801   1.272   5.886   0.389  0.6584 -0.0669 -1.6467
13462TIP3    H261802   1.405   5.934   0.443  0.4398 -0.1952 -0.9808
13463TIP3   OH261803   0.324   6.525   4.833  0.5324 -0.4917 -0.0008
13463TIP3    H161804   0.251   6.531   4.771  2.4858  0.2502 -2.4307
13463TIP3    H261805   0.356   6.435   4.824 -0.5705 -1.1112  1.7649
13464TIP3   OH261806   0.901   5.950   1.760 -0.5656  0.1782  0.1676
13464TIP3    H161807   0.834   5.890   1.792  1.2379 -1.3134  1.3828
13464TIP3    H261808   0.968   5.949   1.828  1.7692 -0.2537 -1.9631
13465TIP3   OH261809   0.823   3.075   6.365 -0.0648 -0.8165 -0.1936
13465TIP3    H161810   0.731   3.075   6.336 -0.0222 -1.7021 -0.3463
13465TIP3    H261811   0.867   3.133   6.303 -1.3104  3.5751  2.5834
13466TIP3   OH261812   2.813   1.825   3.403  0.3454  0.5509  0.0101
13466TIP3    H161813   2.738   1.874   3.436 -0.9893 -1.8279  0.8181
13466TIP3    H261814   2.874   1.822   3.476 -1.6701 -2.8620  1.8301
13467TIP3   OH261815   0.919   4.269  13.019 -0.2302 -0.4734  0.0291
13467TIP3    H161816   0.976   4.286  12.944  0.9152  0.5627  1.0873
13467TIP3    H261817   0.854   4.207  12.986 -0.8697  1.2686 -2.3352
13468TIP3   OH261818   3.310   1.738  16.036  0.1578 -0.3775 -0.4829
13468TIP3    H161819   3.301   1.646  16.061 -0.8473 -0.0708  0.3364
13468TIP3    H261820   3.357   1.736  15.952  2.6809 -1.5018  0.8565
13469TIP3   OH261821   0.583   3.969   3.779 -0.0755  0.7268  0.1751
13469TIP3    H161822   0.652   4.035   3.768  0.3165  0.6687  2.0793
13469TIP3    H261823   0.506   4.019   3.806  0.1324  0.4513  1.3006
13470TIP3   OH261824   5.552   1.490  11.807 -0.4316  0.0551  0.2918
13470TIP3    H161825   5.463   1.458  11.794 -1.1569  2.3049 -0.9657
13470TIP3    H261826   5.550   1.532  11.894 -0.0306 -1.4977  1.0772
13471TIP3   OH261827   3.462   1.794   2.175 -0.9187  0.4876 -0.0502
13471TIP3    H161828   3.480   1.784   2.081  0.7573 -3.0306  0.4766
13471TIP3    H261829   3.510   1.873   2.200  0.0982  0.4877 -1.8231
13472TIP3   OH261830   0.380   0.127   0.256  0.4547  0.1779  0.0351
13472TIP3    H161831   0.363   0.057   0.194 -1.6521  0.2101  0.5197
13472TIP3    H261832   0.442   0.089   0.319  0.7568 -0.6245 -0.7371
13473TIP3   OH261833   5.005   1.491  13.072  0.6181  0.0854  0.1533
13473TIP3    H161834   5.007   1.506  13.167  0.8499 -2.0964  0.5461
13473TIP3    H261835   5.067   1.555  13.037  0.5232  0.9429  1.4621
13474TIP3   OH261836   2.518   5.500   2.867  0.3433 -0.1849 -0.0415
13474TIP3    H161837   2.536   5.557   2.792 -1.3124 -1.7766 -1.7521
13474TIP3    H261838   2.540   5.412   2.836 -1.6290 -1.0460  0.8465
13475TIP3   OH261839   3.310   3.663   4.146 -0.1327  0.3379  0.0411
13475TIP3    H161840   3.269   3.743   4.113 -1.8352 -0.8154 -0.8163
13475TIP3    H261841   3.344   3.687   4.232 -2.0981  1.5766  0.5552
13476TIP3   OH261842   4.247   1.872   2.780  0.0378 -0.1361  0.1120
13476TIP3    H161843   4.263   1.828   2.864  0.3833  2.2745  1.3712
13476TIP3    H261844   4.334   1.888   2.744  0.2099  2.8396  1.5455
13477TIP3   OH261845   1.881   4.469   5.275 -0.4654  0.4829  0.4608
13477TIP3    H161846   1.961   4.518   5.259 -0.0486 -0.3365 -0.0246
13477TIP3    H261847   1.906   4.400   5.336 -0.6420 -0.1660 -0.1834
13478TIP3   OH261848   0.955   2.279   0.619 -0.4050 -0.4591 -0.8093
13478TIP3    H161849   0.886   2.213   0.608 -0.3892 -0.4058 -1.2486
13478TIP3    H261850   0.966   2.317   0.532  0.5583 -0.8515 -0.8810
13479TIP3   OH261851   0.794   0.563  11.656 -0.4110  0.3982  0.5770
13479TIP3    H161852   0.729   0.605  11.713 -1.8691  0.4121 -1.0357
13479TIP3    H261853   0.822   0.633  11.597 -1.3905 -0.3814 -0.8512
13480TIP3   OH261854   4.760   3.450   3.199  0.0877 -0.3709  0.4978
13480TIP3    H161855   4.797   3.467   3.286 -0.1897  0.1992  0.5106
13480TIP3    H261856   4.719   3.533   3.174 -2.2424 -1.3085  0.9893
13481TIP3   OH261857   3.975   0.466  12.016 -0.0224 -0.1744 -0.5525
13481TIP3    H161858   4.068   0.445  12.014 -0.2853 -1.3555 -1.0755
13481TIP3    H261859   3.971   0.560  11.998  1.0608 -0.1012 -0.4668
13482TIP3   OH261860   6.337   5.021  13.512 -0.0762  0.7267 -0.0277
13482TIP3    H161861   6.343   4.928  13.492 -0.0868  0.7159  0.0193
13482TIP3    H261862   6.421   5.057  13.485 -0.0002  0.6705  0.1358
13483TIP3   OH261863   1.796   1.557  14.490  0.5478  0.0592 -0.5510
13483TIP3    H161864   1.865   1.587  14.550  0.6088 -1.8410  0.4362
13483TIP3    H261865   1.742   1.634  14.474  0.5893  0.6919  1.9308
13484TIP3   OH261866   0.765   5.649  13.704 -0.4327  0.0114  0.0095
13484TIP3    H161867   0.783   5.725  13.649  1.7675 -0.6693 -0.3094
13484TIP3    H261868   0.715   5.684  13.778 -0.2753  1.6049 -0.6000
13485TIP3   OH261869   1.739   4.847   2.615 -0.5314  0.1265 -0.3255
13485TIP3    H161870   1.785   4.918   2.570  1.8965  0.4478  2.3718
13485TIP3    H261871   1.741   4.774   2.553  4.3461 -0.0689 -0.3334
13486TIP3   OH261872   3.642   6.356  11.029  0.1545 -0.0811 -0.4930
13486TIP3    H161873   3.586   6.323  10.959  0.1752  1.0673 -1.0747
13486TIP3    H261874   3.583   6.408  11.084  0.3556 -0.0963 -0.2629
13487TIP3   OH261875   0.623   1.380   5.466 -0.9147  0.2758  0.6819
13487TIP3    H161876   0.553   1.344   5.411 -2.0600  0.2958  2.0660
13487TIP3    H261877   0.585   1.460   5.503  0.3348  1.0072  0.4242
13488TIP3   OH261878   3.383   3.355  13.640 -0.3591 -0.2085  1.0549
13488TIP3    H161879   3.331   3.397  13.709 -0.5961 -0.7310  1.2003
13488TIP3    H261880   3.445   3.300  13.687 -0.5937 -0.6496  0.8532
13489TIP3   OH261881   4.522   0.517  10.953  0.3085 -0.2493 -0.6401
13489TIP3    H161882   4.551   0.567  11.030  0.9728 -0.9160 -0.4508
13489TIP3    H261883   4.427   0.511  10.964  0.5631 -2.1892  1.3110
13490TIP3   OH261884   5.541   4.021  15.108  0.6941 -0.2118 -0.3754
13490TIP3    H161885   5.540   3.997  15.016 -0.9197 -2.1161  0.0688
13490TIP3    H261886   5.453   4.000  15.140  1.1091  0.6694  1.5365
13491TIP3   OH261887   4.531   0.747   3.998 -0.6853  0.0604  0.0251
13491TIP3    H161888   4.506   0.704   3.916  4.2621  0.2714 -1.9726
13491TIP3    H261889   4.578   0.826   3.971 -1.8001  2.0361  3.3019
13492TIP3   OH261890   4.518   2.052   2.959 -0.4915 -0.4547 -0.4974
13492TIP3    H161891   4.482   2.037   3.047 -0.3945 -0.6824 -0.4971
13492TIP3    H261892   4.607   2.083   2.975 -0.2984 -0.9840 -0.5270
13493TIP3   OH261893   5.570   1.547  16.630  0.3652 -0.0937  0.2550
13493TIP3    H161894   5.523   1.465  16.641 -0.7436  0.4185 -0.5177
13493TIP3    H261895   5.559   1.569  16.538 -0.9346  1.8581  0.8216
13494TIP3   OH261896   5.197   1.586  13.700  0.5068  0.1012  0.4872
13494TIP3    H161897   5.170   1.570  13.790 -0.5392  0.5479  0.2712
13494TIP3    H261898   5.177   1.504  13.654 -3.4093  1.2815 -0.2938
13495TIP3   OH261899   0.985   2.573   2.793 -0.0129 -0.4196 -0.3238
13495TIP3    H161900   1.016   2.620   2.870 -0.1258  0.7001 -0.9394
13495TIP3    H261901   1.006   2.631   2.719 -2.6314 -0.0250 -0.8653
13496TIP3   OH261902   3.468   2.025  10.827  0.4745  0.0045 -0.2617
13496TIP3    H161903   3.410   2.002  10.899  2.1632  0.9245  1.4837
13496TIP3    H261904   3.533   1.955  10.825  1.4851  0.8911  0.3594
13497TIP3   OH261905   3.732   4.476  14.106  0.2872 -0.1462  0.2653
13497TIP3    H161906   3.669   4.429  14.051  2.3712 -0.6032 -1.9049
13497TIP3    H261907   3.775   4.537  14.046  3.6452 -1.6288  0.9613
13498TIP3   OH261908   0.923   1.165   3.412 -0.5227  0.0295  0.3427
13498TIP3    H161909   0.881   1.225   3.474 -0.4202 -0.3575  0.7953
13498TIP3    H261910   1.015   1.191   3.412 -0.1779 -1.0385  1.6672
13499TIP3   OH261911   1.655   5.457   0.761 -0.6739  0.0291 -0.2310
13499TIP3    H161912   1.571   5.423   0.794 -0.5841 -1.3776 -1.3277
13499TIP3    H261913   1.664   5.416   0.675 -0.0579  2.1654 -1.2455
13500TIP3   OH261914   5.689   2.602   6.954  0.6712  0.2053 -1.0058
13500TIP3    H161915   5.664   2.555   6.875  0.5257  0.1412 -0.9222
13500TIP3    H261916   5.745   2.540   7.001  0.1462 -0.0457 -0.6983
13501TIP3   OH261917   5.096   4.788   3.958  0.7557 -0.0938  0.0955
13501TIP3    H161918   5.141   4.740   4.027  1.9047 -0.5139 -0.9064
13501TIP3    H261919   5.004   4.789   3.985  1.0689 -0.8895  1.2486
13502TIP3   OH261920   6.466   3.380  16.708 -0.2007 -0.0341  0.0921
13502TIP3    H161921   6.544   3.331  16.736  1.5338  0.7781 -2.9135
13502TIP3    H261922   6.474   3.465  16.751  1.0225  0.3228 -0.8186
13503TIP3   OH261923   5.379   4.592   3.064 -0.1969  0.3354 -0.7674
13503TIP3    H161924   5.425   4.657   3.117  0.0675 -0.1544 -0.3890
13503TIP3    H261925   5.446   4.559   3.004 -0.0226 -0.4281 -0.1706
13504TIP3   OH261926   6.596   2.613  11.853  0.2653  0.2798  0.7467
13504TIP3    H161927   6.618   2.521  11.867  2.5605  0.7539  0.5060
13504TIP3    H261928   6.650   2.640  11.779  1.6962  2.5081  2.4793
13505TIP3   OH261929   1.918   5.522   2.465 -0.0616  0.0871 -0.1392
13505TIP3    H161930   1.933   5.517   2.559  2.5035 -1.5024 -0.5049
13505TIP3    H261931   1.873   5.440   2.443 -0.4955  0.3707 -0.3125
13506TIP3   OH261932   0.717   4.875  13.827 -0.8602 -0.6207  0.3555
13506TIP3    H161933   0.707   4.951  13.770 -2.3144 -0.8632  0.2606
13506TIP3    H261934   0.754   4.807  13.770 -3.3623 -1.2182 -0.6562
13507TIP3   OH261935   3.689   2.414  11.575  0.2485  0.1771  0.0498
13507TIP3    H161936   3.641   2.385  11.653 -1.3700 -2.3837 -1.7520
13507TIP3    H261937   3.670   2.508  11.569 -1.5333 -0.0438  1.4058
13508TIP3   OH261938   3.870   0.271   4.106  0.3209 -0.4705 -0.0477
13508TIP3    H161939   3.891   0.363   4.090  1.0686 -0.3728  1.3036
13508TIP3    H261940   3.785   0.273   4.151 -0.3168 -0.5487 -1.2132
13509TIP3   OH261941   1.653   0.300   5.384  0.4970 -0.3857  0.1428
13509TIP3    H161942   1.557   0.299   5.388  0.4923 -3.0607  2.4260
13509TIP3    H261943   1.675   0.393   5.385 -2.0421  0.3249 -1.0452
13510TIP3   OH261944   5.328   2.483  16.103 -0.5342  0.6547  0.5596
13510TIP3    H161945   5.270   2.487  16.027  0.2533  1.4756 -0.0043
13510TIP3    H261946   5.270   2.498  16.178 -1.7503 -2.3774  0.3999
13511TIP3   OH261947   3.895   1.200  13.805 -0.1099 -0.1502  0.3993
13511TIP3    H161948   3.852   1.197  13.891 -0.7601  1.0404  0.1381
13511TIP3    H261949   3.835   1.251  13.750  0.4901 -0.5504 -0.6597
13512TIP3   OH261950   6.257   2.297   3.166 -0.0910 -0.0434  0.3515
13512TIP3    H161951   6.278   2.337   3.250 -0.2906 -1.1426  0.9394
13512TIP3    H261952   6.257   2.203   3.183  1.2780 -0.3697 -1.1996
13513TIP3   OH261953   3.993   1.421  12.846  0.2665  0.3012 -0.1211
13513TIP3    H161954   3.928   1.457  12.906  0.9004 -0.8450  1.3081
13513TIP3    H261955   4.041   1.498  12.814  0.8844  0.8736  2.0009
13514TIP3   OH261956   2.584   5.181   0.480 -0.3211 -0.2784  0.6373
13514TIP3    H161957   2.650   5.112   0.486  1.2712  1.0521 -0.4346
13514TIP3    H261958   2.502   5.138   0.502  0.6277 -2.4520  0.2075
13515TIP3   OH261959   0.711   6.133   1.419 -0.0320 -0.1919 -0.4869
13515TIP3    H161960   0.755   6.179   1.348  1.8516 -3.0097 -1.3101
13515TIP3    H261961   0.632   6.096   1.378 -0.4344  0.5027 -0.3560
13516TIP3   OH261962   1.440   5.335  13.230 -0.0969  0.1787  0.0743
13516TIP3    H161963   1.466   5.347  13.321 -2.1745  0.6660  0.6579
13516TIP3    H261964   1.457   5.243  13.212  0.7879  0.1914  0.7883
13517TIP3   OH261965   1.122   1.130   1.583 -0.2058 -0.1832 -0.5022
13517TIP3    H161966   1.100   1.217   1.617  0.7578  0.4573 -1.4678
13517TIP3    H261967   1.098   1.070   1.654 -0.7212  0.8740  0.2494
13518TIP3   OH261968   6.595   3.675   5.677  0.4484  0.2802  0.0650
13518TIP3    H161969   6.587   3.710   5.766 -1.8586 -0.2871  0.1435
13518TIP3    H261970   6.620   3.583   5.690 -0.1009  0.1405  0.1376
13519TIP3   OH261971   2.360   5.869   3.003  0.1613  0.4296  0.5820
13519TIP3    H161972   2.361   5.908   2.916  0.1115 -1.6825 -0.4355
13519TIP3    H261973   2.318   5.784   2.990  0.7343 -0.2067  2.5600
13520TIP3   OH261974   5.833   0.578   0.926  0.3336 -0.2493  0.4181
13520TIP3    H161975   5.762   0.546   0.982 -1.6851 -1.6522 -2.6571
13520TIP3    H261976   5.791   0.598   0.843  3.3231  0.5896 -1.0509
13521TIP3   OH261977   0.616   5.241   4.603  0.6185 -0.3275  0.4939
13521TIP3    H161978   0.617   5.146   4.607  2.2644 -0.3517  0.2992
13521TIP3    H261979   0.685   5.268   4.664  0.8657  0.6915 -0.2125
13522TIP3   OH261980   5.066   2.712   0.569  0.2449 -0.0893  0.0267
13522TIP3    H161981   5.143   2.670   0.607  1.1228 -0.1704 -1.7495
13522TIP3    H261982   5.014   2.641   0.533 -1.3776 -0.1738  2.2728
13523TIP3   OH261983   3.237   2.887   1.476 -0.7941  0.5195 -0.0484
13523TIP3    H161984   3.274   2.970   1.507 -0.1911  0.4355 -0.5411
13523TIP3    H261985   3.236   2.831   1.553 -1.3146  1.0156  0.3196
13524TIP3   OH261986   1.346   2.209   4.221 -0.6564  0.0590  0.0486
13524TIP3    H161987   1.429   2.212   4.269 -1.3121  0.3175  1.1965
13524TIP3    H261988   1.296   2.283   4.255 -0.2825  1.7699 -2.7334
13525TIP3   OH261989   4.318   0.750   5.569  0.1253  0.0093  0.3028
13525TIP3    H161990   4.266   0.829   5.552 -0.7212 -0.4862  0.4820
13525TIP3    H261991   4.252   0.683   5.589  0.8932 -0.2295  2.2279
13526TIP3   OH261992   0.932   4.251   4.336 -0.1617 -0.1594 -0.3028
13526TIP3    H161993   0.976   4.199   4.269  0.4450  0.6468 -0.5403
13526TIP3    H261994   1.002   4.300   4.379 -0.7814  0.9373 -0.5016
13527TIP3   OH261995   1.765   0.028  11.922 -0.0061  0.1115 -0.1845
13527TIP3    H161996   1.727  -0.059  11.924 -0.0761  0.1125 -0.9637
13527TIP3    H261997   1.726   0.069  11.844 -0.0863  0.8840  0.2523
13528TIP3   OH261998   4.800   3.360  11.819  0.1643  0.1069  0.0424
13528TIP3    H161999   4.708   3.370  11.844  0.7980  1.6379  1.9763
13528TIP3    H262000   4.797   3.333  11.727 -2.2137  1.5839 -0.3912
13529TIP3   OH262001   2.087   5.563  12.904  0.3158 -0.4323 -0.3534
13529TIP3    H162002   2.180   5.571  12.925  0.4406  2.0374 -1.4394
13529TIP3    H262003   2.067   5.471  12.919  2.9115 -1.0283 -0.0074
13530TIP3   OH262004   0.166   4.080  10.615  0.4294 -0.6552  0.0468
13530TIP3    H162005   0.121   4.155  10.576  2.4964 -0.1326 -1.5013
13530TIP3    H262006   0.097   4.030  10.658 -2.4471 -1.9569 -5.2238
13531TIP3   OH262007   3.099   2.069  12.235 -0.7062 -0.3865 -0.0713
13531TIP3    H162008   3.079   2.159  12.260 -1.0419 -0.2358 -0.8323
13531TIP3    H262009   3.049   2.056  12.154  0.7328 -0.6704 -0.9464
13532TIP3   OH262010   4.186   3.497  15.960 -0.5617 -0.3261  0.0045
13532TIP3    H162011   4.269   3.458  15.933  0.0798  0.9526  0.0201
13532TIP3    H262012   4.202   3.592  15.954 -1.6138 -0.0513  1.2183
13533TIP3   OH262013   3.792   1.727   2.866  0.4437 -0.5123  0.0400
13533TIP3    H162014   3.719   1.668   2.843  0.6829 -0.7259 -0.1737
13533TIP3    H262015   3.861   1.705   2.803  0.5644 -0.0586  0.0143
13534TIP3   OH262016   1.153   1.711   5.704 -0.1268 -0.5722  0.0712
13534TIP3    H162017   1.203   1.783   5.742 -0.0956 -0.7388  0.3478
13534TIP3    H262018   1.061   1.739   5.712 -0.1025 -0.4572 -0.0455
13535TIP3   OH262019   5.008   1.240  12.924  0.3780 -0.4696 -0.1718
13535TIP3    H162020   5.000   1.267  12.832  1.8561  0.4259 -0.0723
13535TIP3    H262021   5.018   1.322  12.972  0.8235 -0.9972  0.6541
13536TIP3   OH262022   4.959   4.121  14.637  0.4849 -0.2521  0.2740
13536TIP3    H162023   4.867   4.104  14.659  0.2623 -0.1546 -0.5161
13536TIP3    H262024   4.977   4.207  14.675  0.5961 -0.7554  1.3913
13537TIP3   OH262025   4.064   4.519   1.272  0.4740  0.0857  0.3365
13537TIP3    H162026   4.005   4.558   1.208  0.2226  1.4733  1.3791
13537TIP3    H262027   4.095   4.438   1.230  0.2830  0.9234 -1.4890
13538TIP3   OH262028   4.216   0.377  11.848 -0.5442  0.7126 -0.2580
13538TIP3    H162029   4.134   0.339  11.817 -1.1057  1.2485  0.5317
13538TIP3    H262030   4.266   0.303  11.883 -1.3494  0.5946  0.6787
13539TIP3   OH262031   1.204   4.946   4.565 -0.0747  0.3730  0.0173
13539TIP3    H162032   1.268   5.002   4.522  0.3007 -1.0420 -1.3505
13539TIP3    H262033   1.208   4.863   4.517 -1.3237 -0.5006  1.3298
13540TIP3   OH262034   5.812   4.573   1.025 -0.0996 -0.2826 -0.2483
13540TIP3    H162035   5.733   4.602   0.979 -0.2625  0.1874  0.3104
13540TIP3    H262036   5.825   4.483   0.997  0.1509  0.1713 -1.6912
13541TIP3   OH262037   1.687   2.902  13.489  0.1580 -0.2492  0.4487
13541TIP3    H162038   1.727   2.986  13.511  1.4272 -0.9112  0.7398
13541TIP3    H262039   1.686   2.854  13.572 -0.0905 -0.7120  0.1810
13542TIP3   OH262040   5.352   4.499   5.348  0.0153  0.0822  0.1930
13542TIP3    H162041   5.336   4.435   5.418 -0.7295  1.7943  1.6574
13542TIP3    H262042   5.445   4.491   5.330  1.0606  1.8345  3.8060
13543TIP3   OH262043   0.843   1.759   0.234 -0.3488 -0.0055 -0.0506
13543TIP3    H162044   0.931   1.777   0.200 -0.8291  0.4151 -1.1095
13543TIP3    H262045   0.853   1.677   0.283  0.8441  0.5576  0.7141
13544TIP3   OH262046   1.769   4.122  12.028 -0.3881  0.0540  0.0112
13544TIP3    H162047   1.864   4.118  12.015 -0.4224 -2.1315  0.0154
13544TIP3    H262048   1.737   4.176  11.957  0.8923  1.2882  0.3258
13545TIP3   OH262049   2.569   3.885  13.588 -0.4124  0.3135  0.4517
13545TIP3    H162050   2.536   3.801  13.556  2.1639 -0.6088 -0.0103
13545TIP3    H262051   2.548   3.948  13.519  0.5846 -0.6679 -0.7949
13546TIP3   OH262052   6.308   5.720  11.341 -0.1375  0.2296  0.0678
13546TIP3    H162053   6.216   5.696  11.351  0.0078  0.1606  1.4229
13546TIP3    H262054   6.332   5.690  11.254 -0.6062 -2.3975  0.7785
13547TIP3   OH262055   2.747   6.282   5.391  0.3636 -0.6948  0.0789
13547TIP3    H162056   2.772   6.204   5.440  1.8720  0.9657  2.1829
13547TIP3    H262057   2.823   6.340   5.398 -0.4075  0.7136 -2.0262
13548TIP3   OH262058   3.091   2.734   2.164  0.5542  0.0866 -0.7814
13548TIP3    H162059   3.124   2.805   2.220  0.5106 -2.5478  2.9985
13548TIP3    H262060   3.003   2.717   2.198  0.9126 -2.3024 -0.8769
13549TIP3   OH262061   4.623   5.139   4.079 -0.5668  0.2079 -0.8155
13549TIP3    H162062   4.533   5.121   4.109  0.0333 -0.0916  0.9582
13549TIP3    H262063   4.650   5.059   4.035  0.2796 -1.5448  2.5058
13550TIP3   OH262064   5.818   6.773   3.329 -0.0830  0.5690  0.0281
13550TIP3    H162065   5.829   6.832   3.403 -0.6779  1.3869 -0.5094
13550TIP3    H262066   5.728   6.741   3.337 -0.2518  0.9014 -0.5024
13551TIP3   OH262067   3.639   3.432  13.816 -0.7637  0.0966  0.0441
13551TIP3    H162068   3.683   3.365  13.869  1.2291  1.5062  0.3128
13551TIP3    H262069   3.567   3.462  13.870  0.0528  0.1418  1.1482
13552TIP3   OH262070   0.383   6.410  11.116  0.6737  0.9261 -0.3390
13552TIP3    H162071   0.446   6.412  11.188 -0.3213 -0.1241  0.5876
13552TIP3    H262072   0.359   6.318  11.107  0.3393  1.1107 -1.6505
13553TIP3   OH262073   1.995   0.127  14.227  0.3566  0.5776 -0.5194
13553TIP3    H162074   2.006   0.040  14.187 -0.0160  1.1729 -1.9854
13553TIP3    H262075   2.084   0.156  14.246  0.7026  0.9107 -2.3972
13554TIP3   OH262076   5.098   5.435   0.379  0.2324  0.2929  0.5894
13554TIP3    H162077   5.174   5.388   0.345 -0.0705 -0.3840  0.8384
13554TIP3    H262078   5.089   5.511   0.320  0.7707  0.0910  0.2361
13555TIP3   OH262079   2.053   2.100   3.970 -0.0389  0.1492  0.4390
13555TIP3    H162080   2.113   2.090   4.044  1.5562 -1.3652 -0.9634
13555TIP3    H262081   1.998   2.022   3.973  1.6470 -1.2025 -1.2699
13556TIP3   OH262082   5.263   1.930   2.227 -0.5322 -0.0058 -0.0446
13556TIP3    H162083   5.255   1.905   2.319  0.1752 -1.4670 -0.3607
13556TIP3    H262084   5.243   1.850   2.178  0.0172  0.5112 -1.1547
13557TIP3   OH262085   3.346   3.717   6.508 -0.0688 -0.6240  0.7998
13557TIP3    H162086   3.408   3.725   6.435 -0.4401 -1.4880  0.3848
13557TIP3    H262087   3.393   3.664   6.573 -0.5110 -1.6421  0.3098
13558TIP3   OH262088   1.508   4.395   0.310  0.2833 -0.2117 -0.1289
13558TIP3    H162089   1.448   4.333   0.269  1.7740 -1.8027 -0.0005
13558TIP3    H262090   1.462   4.479   0.305 -1.1515 -1.0264 -1.6761
13559TIP3   OH262091   2.711   2.182   0.210  0.1977 -0.0866  0.5761
13559TIP3    H162092   2.782   2.141   0.161  0.1495  0.6499 -0.1363
13559TIP3    H262093   2.631   2.138   0.179  0.0913  0.8480 -0.5699
13560TIP3   OH262094   2.349   5.749  13.115 -0.1352 -0.3273  0.0981
13560TIP3    H162095   2.373   5.704  13.033 -0.6834  1.8407 -1.3506
13560TIP3    H262096   2.267   5.708  13.141  0.3822 -1.5033 -0.0162
13561TIP3   OH262097   4.744   6.053   2.934  0.0895 -0.0845 -0.0653
13561TIP3    H162098   4.763   6.131   2.883 -1.6442 -0.2560 -1.0036
13561TIP3    H262099   4.693   6.084   3.008 -0.1195 -0.2621 -0.1347
13562TIP3   OH262100   2.066   2.131  15.662  0.0563  0.4062 -0.3688
13562TIP3    H162101   2.048   2.208  15.716  1.0639  0.7061 -0.4316
13562TIP3    H262102   1.984   2.082  15.661  0.9280 -1.8196  4.8947
13563TIP3   OH262103   5.275   1.848  12.747  0.0030 -0.5420 -0.7149
13563TIP3    H162104   5.362   1.822  12.717  2.2588  3.8839  0.9934
13563TIP3    H262105   5.246   1.915  12.684 -1.0377 -0.2525  0.0334
13564TIP3   OH262106   5.988   2.972  15.011  0.2840  0.4979 -0.1348
13564TIP3    H162107   5.983   2.902  15.076 -0.1343  1.6218  1.0762
13564TIP3    H262108   5.905   2.965  14.963 -0.7766  1.5231  1.4611
13565TIP3   OH262109   5.568   6.182   5.244 -0.3063 -0.5409 -0.2312
13565TIP3    H162110   5.537   6.168   5.334 -0.1805 -0.2761 -0.1445
13565TIP3    H262111   5.555   6.098   5.201 -3.0972  0.0632 -0.7994
13566TIP3   OH262112   2.410   2.594  14.614 -0.2425 -0.8572  0.3565
13566TIP3    H162113   2.323   2.568  14.584 -0.5010  0.6475 -0.2765
13566TIP3    H262114   2.394   2.667  14.675  0.6375  1.2858 -1.8197
13567TIP3   OH262115   2.164   3.903  16.280 -0.3773  0.5300  0.0424
13567TIP3    H162116   2.086   3.909  16.334  0.5420 -1.2666  1.7201
13567TIP3    H262117   2.139   3.846  16.207 -0.5130 -0.5777  0.9203
13568TIP3   OH262118   1.382   5.662   0.954  0.5670 -0.0986 -0.0414
13568TIP3    H162119   1.414   5.676   1.043  1.0126  1.9238 -0.4654
13568TIP3    H262120   1.435   5.589   0.920 -0.9901 -2.3182  1.9346
13569TIP3   OH262121   2.881   0.165  16.060  0.5391  0.3833  0.0810
13569TIP3    H162122   2.886   0.069  16.064 -0.1186  0.3748  0.7801
13569TIP3    H262123   2.793   0.186  16.089  0.2820  1.1529 -1.1758
13570TIP3   OH262124   0.506   4.278  15.303  0.0188 -0.4073  0.1796
13570TIP3    H162125   0.538   4.301  15.390 -0.3261 -0.0979  0.2260
13570TIP3    H262126   0.415   4.309  15.302  0.4368  0.8729 -0.7794
13571TIP3   OH262127   1.696   5.767  17.216 -0.4356 -0.1223  0.2286
13571TIP3    H162128   1.608   5.798  17.236 -0.3581  0.7257 -0.6608
13571TIP3    H262129   1.739   5.842  17.174  1.0506 -0.1844  1.5478
13572TIP3   OH262130   5.772   0.652   3.309 -0.6815 -0.1831 -0.2638
13572TIP3    H162131   5.738   0.630   3.395  0.1424  0.3512  0.2149
13572TIP3    H262132   5.817   0.573   3.280 -2.3329 -0.9296 -0.9433
13573TIP3   OH262133   0.498   2.441   2.844 -0.1192 -0.0989  0.5163
13573TIP3    H162134   0.593   2.439   2.838 -0.1956 -1.0530 -1.0268
13573TIP3    H262135   0.477   2.530   2.870  1.1516  0.5433 -0.5584
13574TIP3   OH262136   6.186   4.981   5.833  0.2298 -0.3406 -0.3664
13574TIP3    H162137   6.165   4.975   5.740  1.5922 -2.1779 -0.6372
13574TIP3    H262138   6.119   4.928   5.877  0.3216 -0.5369 -0.4604
13575TIP3   OH262139   4.391   2.043   4.227  0.0220 -0.2173 -0.1023
13575TIP3    H162140   4.410   2.038   4.321 -1.0140  1.5750  0.2367
13575TIP3    H262141   4.458   2.100   4.192 -0.5451  0.4300 -0.1494
13576TIP3   OH262142   5.211   4.310  11.610 -0.3283 -0.6967 -0.3188
13576TIP3    H162143   5.271   4.254  11.660 -0.1046  1.4507  1.9828
13576TIP3    H262144   5.267   4.356  11.548 -0.1825 -1.3983 -0.7155
13577TIP3   OH262145   3.947   0.777  10.678  0.3837 -0.4850 -0.1741
13577TIP3    H162146   3.949   0.831  10.757 -0.4782 -0.0537 -0.4374
13577TIP3    H262147   3.901   0.830  10.613  1.0319 -0.8510 -0.9624
13578TIP3   OH262148   1.196   6.058   5.133 -0.4103 -0.5571 -0.7794
13578TIP3    H162149   1.138   5.983   5.116 -0.5997 -1.0022  1.4705
13578TIP3    H262150   1.136   6.132   5.142 -0.4507 -0.6215 -0.5109
13579TIP3   OH262151   0.653   0.230   1.506  0.3930 -0.4124  0.4001
13579TIP3    H162152   0.638   0.136   1.496  1.2324 -0.7284  1.9002
13579TIP3    H262153   0.664   0.244   1.600 -0.7037  1.3593  0.3257
13580TIP3   OH262154   5.648   1.733  16.204  0.3378  0.0721 -0.1773
13580TIP3    H162155   5.593   1.778  16.140  0.1145  0.3938  0.2307
13580TIP3    H262156   5.586   1.698  16.269  0.5118 -0.8419 -0.4999
13581TIP3   OH262157   6.613   5.723  15.915 -0.3448  0.1948 -0.1570
13581TIP3    H162158   6.630   5.766  15.830 -2.7956 -0.4232 -1.0221
13581TIP3    H262159   6.671   5.647  15.915 -0.6514 -0.0632 -1.5070
13582TIP3   OH262160   2.228   4.626  12.885 -0.3516  0.6501 -0.2217
13582TIP3    H162161   2.163   4.609  12.816  0.0240 -0.2335 -0.3720
13582TIP3    H262162   2.298   4.673  12.840 -0.3330  0.5168 -0.3334
13583TIP3   OH262163   4.982   5.265   1.240  0.5899  0.2753 -0.2857
13583TIP3    H162164   4.942   5.352   1.252 -0.9334 -0.2225 -1.4512
13583TIP3    H262165   5.047   5.278   1.172 -0.6970  0.2562 -1.5819
13584TIP3   OH262166   5.731   4.984  12.677  0.0134 -0.5180 -0.5544
13584TIP3    H162167   5.662   4.963  12.614  0.3401  0.8621 -1.4072
13584TIP3    H262168   5.771   5.064  12.643 -0.6099  1.0134  2.0460
13585TIP3   OH262169   3.562   3.629   1.875  0.0372 -0.1440 -0.3612
13585TIP3    H162170   3.645   3.654   1.835  0.1045  0.7298  0.2926
13585TIP3    H262171   3.532   3.553   1.824  0.6623  0.2470 -1.3263
13586TIP3   OH262172   5.385   1.887  11.833 -0.8746  0.3294 -0.4810
13586TIP3    H162173   5.465   1.939  11.836 -1.1151  0.7932 -1.6537
13586TIP3    H262174   5.379   1.848  11.920  1.7126 -1.3655 -0.9214
13587TIP3   OH262175   1.681   0.694  14.043 -0.0577 -0.4076  0.4841
13587TIP3    H162176   1.710   0.783  14.021 -0.7363 -0.3594 -0.2628
13587TIP3    H262177   1.594   0.688  14.004  0.8437 -2.1776 -1.3934
13588TIP3   OH262178   1.898   0.736  13.296 -0.0867 -0.0220  0.0396
13588TIP3    H162179   1.946   0.722  13.378  2.6408 -0.9415 -1.5768
13588TIP3    H262180   1.947   0.804  13.250 -1.1020 -0.0770 -1.1958
13589TIP3   OH262181   0.365   1.468  14.560 -0.1177 -0.3030  0.2422
13589TIP3    H162182   0.381   1.555  14.596 -3.7736  0.3551  0.6594
13589TIP3    H262183   0.401   1.408  14.625 -1.6637  0.9421  2.3675
13590TIP3   OH262184   3.395   6.473   5.247  0.0609 -0.4355  0.1168
13590TIP3    H162185   3.381   6.563   5.217  0.8931 -0.4292 -0.2757
13590TIP3    H262186   3.328   6.460   5.314  1.2313  1.2175  1.7072
13591TIP3   OH262187   1.927   6.157  12.605 -0.0429  0.3923 -0.2036
13591TIP3    H162188   2.021   6.150  12.589 -0.1743 -0.5690 -0.6071
13591TIP3    H262189   1.886   6.113  12.530 -0.7659 -0.9282  0.9273
13592TIP3   OH262190   4.486   2.873   2.656  0.1044 -0.5711 -0.0327
13592TIP3    H162191   4.571   2.829   2.645  0.5263  0.4704 -1.2092
13592TIP3    H262192   4.500   2.935   2.727  0.1631 -0.7890  0.1466
13593TIP3   OH262193   3.189   5.535   0.423  0.8494  0.0070 -0.6951
13593TIP3    H162194   3.158   5.615   0.467  0.2257 -0.1694 -0.8092
13593TIP3    H262195   3.132   5.526   0.347  0.7124 -0.7277 -0.5041
13594TIP3   OH262196   4.427   5.993   2.708  0.1403  0.2759 -0.3421
13594TIP3    H162197   4.394   5.903   2.715 -0.2854  0.4810  0.5718
13594TIP3    H262198   4.521   5.983   2.694 -0.0043 -0.3143 -0.9502
13595TIP3   OH262199   0.383   1.814   3.025 -0.2799  0.1094 -0.6274
13595TIP3    H162200   0.325   1.884   2.996  1.8516  1.7211 -1.2839
13595TIP3    H262201   0.415   1.774   2.944  1.5323  1.0399 -0.4217
13596TIP3   OH262202   5.863   0.938   3.746 -0.5396 -0.2624 -0.4362
13596TIP3    H162203   5.831   1.012   3.695 -0.4364 -0.1937 -0.4017
13596TIP3    H262204   5.856   0.863   3.687 -0.0934 -0.1240 -0.6733
13597TIP3   OH262205   6.441   5.934  11.792  0.4273  0.2159 -0.6187
13597TIP3    H162206   6.515   5.908  11.846 -0.8771 -1.0760  0.6268
13597TIP3    H262207   6.448   5.879  11.714  0.1166 -0.8201  0.0569
13598TIP3   OH262208   6.755   6.442   5.676  0.0349  0.3611 -0.0082
13598TIP3    H162209   6.814   6.500   5.724  0.8201  0.2226 -0.7743
13598TIP3    H262210   6.760   6.359   5.722  1.0528  0.1280 -0.5094
13599TIP3   OH262211   5.359   2.507   2.125  0.0386  0.1424 -0.4081
13599TIP3    H162212   5.276   2.465   2.144  0.5894 -1.3925 -1.2169
13599TIP3    H262213   5.398   2.523   2.211 -0.2031 -1.0181 -0.0617
13600TIP3   OH262214   2.271   5.447  15.747  0.5507  0.1605 -0.3041
13600TIP3    H162215   2.322   5.479  15.821 -0.0037 -0.5888  0.4250
13600TIP3    H262216   2.185   5.486  15.759 -0.7105 -2.8475  1.6300
13601TIP3   OH262217   5.265   1.492  16.888  0.0357 -0.0069  0.1535
13601TIP3    H162218   5.199   1.494  16.958 -1.1370  1.6797 -0.9114
13601TIP3    H262219   5.348   1.507  16.933 -0.6868  1.0130  1.2226
13602TIP3   OH262220   2.965   6.011   5.068  0.6167 -0.2818  0.0957
13602TIP3    H162221   3.004   6.094   5.095  0.3437 -0.0659 -0.1647
13602TIP3    H262222   2.991   5.999   4.977 -0.9912  0.5313 -0.5159
13603TIP3   OH262223   6.404   0.071   6.858  0.2376 -0.3431 -0.9426
13603TIP3    H162224   6.355   0.143   6.818 -0.1188 -0.4679 -0.7371
13603TIP3    H262225   6.336   0.011   6.889  0.4629  0.3408  0.9534
13604TIP3   OH262226   0.811   5.179   1.785 -0.2662 -0.3297 -0.5188
13604TIP3    H162227   0.892   5.127   1.787  0.6879  1.1049 -0.3518
13604TIP3    H262228   0.811   5.218   1.697 -0.7960 -0.3423 -0.5242
13605TIP3   OH262229   0.692   1.378  12.704 -0.0845 -0.2792  0.8162
13605TIP3    H162230   0.629   1.420  12.763 -0.3170 -1.6448  1.6026
13605TIP3    H262231   0.720   1.300  12.752 -0.5068 -1.6094 -1.0147
13606TIP3   OH262232   3.285   5.588   1.548  0.7153  0.0358 -0.3958
13606TIP3    H162233   3.216   5.564   1.486 -0.6549 -0.0056  1.0511
13606TIP3    H262234   3.260   5.543   1.629  1.5598  1.3037  0.6094
13607TIP3   OH262235   0.074   2.355   6.176  0.0064 -0.4318 -0.5583
13607TIP3    H162236   0.136   2.337   6.106 -0.1659 -1.0174 -0.5717
13607TIP3    H262237   0.124   2.405   6.240 -0.4219  2.0448 -2.0555
13608TIP3   OH262238   3.309   4.221   1.273 -0.0074 -0.2347 -0.6095
13608TIP3    H162239   3.348   4.286   1.332 -0.4079  2.2188 -2.8569
13608TIP3    H262240   3.358   4.141   1.290  1.4100  0.9469  1.3893
13609TIP3   OH262241   2.872   0.758   3.897 -0.6687  0.1568  0.2876
13609TIP3    H162242   2.845   0.841   3.858 -1.8336 -0.0396  0.6210
13609TIP3    H262243   2.828   0.758   3.983 -0.0412 -0.4535  0.6113
13610TIP3   OH262244   2.510   6.391  12.688  0.3959 -0.6519 -0.2786
13610TIP3    H162245   2.423   6.350  12.680  0.8209 -1.7314  0.4595
13610TIP3    H262246   2.566   6.339  12.631  0.5690  0.0275 -0.7294
13611TIP3   OH262247   1.407   1.885  15.100 -0.0673  0.0559  0.1617
13611TIP3    H162248   1.490   1.929  15.119  0.9036 -1.6644  0.1578
13611TIP3    H262249   1.340   1.942  15.137  1.0996  1.5096  0.1446
13612TIP3   OH262250   4.127   0.625   4.850  0.3284 -0.0277  0.3501
13612TIP3    H162251   4.144   0.709   4.893 -1.4237  0.1483  0.7949
13612TIP3    H262252   4.082   0.574   4.916  0.5932 -1.0057 -0.2127
13613TIP3   OH262253   0.730   2.396   4.137 -0.3937  0.0807 -0.8530
13613TIP3    H162254   0.782   2.409   4.217 -1.4720  2.4000 -0.4397
13613TIP3    H262255   0.655   2.343   4.165  0.2387 -0.8091 -0.8054
13614TIP3   OH262256   4.981   1.877  12.578  0.1717 -0.0644 -0.1478
13614TIP3    H162257   4.940   1.893  12.663  0.7122 -1.5092  0.4120
13614TIP3    H262258   4.909   1.885  12.515 -0.4810 -0.2359  0.5702
13615TIP3   OH262259   5.159   5.280   3.259  0.2577  0.4953  0.6329
13615TIP3    H162260   5.200   5.366   3.270  1.0847  0.1619  0.1737
13615TIP3    H262261   5.228   5.217   3.277 -0.2611 -0.0821  0.6474
13616TIP3   OH262262   4.644   3.309   6.319  0.8195 -0.1798  0.4270
13616TIP3    H162263   4.649   3.397   6.358 -0.5404  0.5155 -0.8715
13616TIP3    H262264   4.688   3.317   6.235 -1.3318 -0.0577 -0.7578
13617TIP3   OH262265   3.523   3.666   1.309 -0.4733  0.0129 -0.4883
13617TIP3    H162266   3.428   3.669   1.304 -0.5236 -0.8131 -0.1540
13617TIP3    H262267   3.549   3.614   1.232 -0.1922  1.3818 -1.3569
13618TIP3   OH262268   2.623   6.022   4.385 -0.0454 -0.0296 -0.2501
13618TIP3    H162269   2.553   5.996   4.325 -0.4409 -2.6704  1.1836
13618TIP3    H262270   2.672   5.941   4.401  1.8899  1.2459  0.6409
13619TIP3   OH262271   2.290   0.397   3.242  0.1923 -0.3956  0.3469
13619TIP3    H162272   2.251   0.310   3.248  2.1686 -1.2740  1.4487
13619TIP3    H262273   2.236   0.452   3.299 -0.9423 -0.9086 -0.1904
13620TIP3   OH262274   4.765   4.532  12.180 -0.6147 -0.0583 -0.5260
13620TIP3    H162275   4.844   4.521  12.233  0.5379  1.8597 -1.7254
13620TIP3    H262276   4.693   4.506  12.237  0.8428 -1.5806  0.7068
13621TIP3   OH262277   4.338   2.895   6.318 -0.0937 -0.9319  0.3246
13621TIP3    H162278   4.356   2.838   6.244 -0.8615 -0.3256 -0.3391
13621TIP3    H262279   4.420   2.941   6.333  0.3490 -1.7509  0.4746
13622TIP3   OH262280   4.065   2.593   3.239 -0.6933  0.1177 -0.0497
13622TIP3    H162281   4.003   2.666   3.235 -0.0895  0.6494  0.2946
13622TIP3    H262282   4.150   2.631   3.217 -0.6219 -0.7975 -1.5051
13623TIP3   OH262283   0.299   5.146   1.998 -0.2200 -0.4656  0.0468
13623TIP3    H162284   0.341   5.158   1.913  1.2343 -1.8298  0.5367
13623TIP3    H262285   0.211   5.114   1.977 -0.0047 -0.4414 -0.9391
13624TIP3   OH262286   2.837   5.711  17.201  0.6148 -0.7613 -0.1601
13624TIP3    H162287   2.912   5.721  17.141  0.2344 -0.6597 -0.6219
13624TIP3    H262288   2.877   5.686  17.284  1.2794  0.6671 -0.0251
13625TIP3   OH262289   5.749   3.111   3.290  0.0319  0.4214  0.3983
13625TIP3    H162290   5.670   3.093   3.342 -0.0436 -2.6068 -0.5565
13625TIP3    H262291   5.718   3.110   3.199  0.8061  1.6210  0.1062
13626TIP3   OH262292   0.693   0.961   0.766  0.3698 -0.3087 -0.5739
13626TIP3    H162293   0.763   0.976   0.829  1.1576  0.3254 -1.5699
13626TIP3    H262294   0.619   1.012   0.799 -0.5000 -2.8702  1.7923
13627TIP3   OH262295   3.260   5.521  14.674 -0.4426  0.4550  0.5535
13627TIP3    H162296   3.244   5.564  14.589 -0.3548  1.1269  0.8695
13627TIP3    H262297   3.245   5.428  14.656 -1.9419  0.7332  0.1488
13628TIP3   OH262298   6.515   5.189   0.405  0.1219  0.0008  0.0050
13628TIP3    H162299   6.604   5.157   0.419  0.8387  2.0534  0.5319
13628TIP3    H262300   6.491   5.231   0.487 -1.6554 -1.1520  0.1164
13629TIP3   OH262301   3.232   0.097  15.089  0.2717  0.3840  0.1791
13629TIP3    H162302   3.194   0.015  15.122  1.5850 -0.7867 -1.0565
13629TIP3    H262303   3.258   0.077  14.999  0.2397  2.3165 -0.3047
13630TIP3   OH262304   1.923   6.190   6.399  0.2324  0.2217 -0.6547
13630TIP3    H162305   1.875   6.256   6.349 -0.9519  0.1150  0.2801
13630TIP3    H262306   2.004   6.234   6.425 -0.7350  1.5018  0.3391
13631TIP3   OH262307   2.230   2.229  16.823 -0.6145  0.2963  0.5651
13631TIP3    H162308   2.170   2.300  16.801 -1.1791 -0.3468 -0.0170
13631TIP3    H262309   2.313   2.254  16.783 -0.7436  0.7427  0.5735
13632TIP3   OH262310   2.847   2.767  11.138 -0.1327  0.1139  0.2454
13632TIP3    H162311   2.935   2.768  11.175  0.2624 -1.0094 -0.5740
13632TIP3    H262312   2.800   2.836  11.184  1.3299  1.1100  0.3177
13633TIP3   OH262313   4.456   3.787  13.199  0.2036 -0.5656 -0.3324
13633TIP3    H162314   4.479   3.809  13.289 -0.5950 -0.3259 -0.1712
13633TIP3    H262315   4.521   3.723  13.172  1.8114  0.9871 -0.3615
13634TIP3   OH262316   4.374   0.543  16.667 -0.0910  0.1133 -0.3700
13634TIP3    H162317   4.441   0.539  16.736  0.5264  0.0251 -0.9698
13634TIP3    H262318   4.293   0.516  16.711  0.4826 -0.9148  0.0869
13635TIP3   OH262319   5.896   3.105   4.549 -0.0148 -0.2600 -0.2300
13635TIP3    H162320   5.808   3.074   4.574  0.4355 -0.3088  1.4168
13635TIP3    H262321   5.934   3.032   4.501 -0.0484 -1.1509  1.0519
13636TIP3   OH262322   6.151   2.717   0.361  0.5057 -0.0633 -0.3690
13636TIP3    H162323   6.219   2.768   0.406 -0.4503  0.2960  0.6916
13636TIP3    H262324   6.071   2.736   0.409 -0.0948 -1.6163 -0.7183
13637TIP3   OH262325   0.713   2.139  11.708 -0.2298  0.0614  0.1548
13637TIP3    H162326   0.619   2.153  11.702 -0.1091  0.8133 -0.1421
13637TIP3    H262327   0.723   2.070  11.774 -1.0371 -0.7915 -0.5856
13638TIP3   OH262328   5.989   6.222  13.922  0.2948 -0.0377 -0.1322
13638TIP3    H162329   5.933   6.163  13.973 -1.0869  0.0869 -1.4405
13638TIP3    H262330   5.977   6.307  13.965 -0.1328 -0.1102 -0.1018
13639TIP3   OH262331   3.536   2.916  13.997  0.1577 -0.1091 -0.1008
13639TIP3    H162332   3.488   2.837  14.021  1.9557 -1.3185 -0.2522
13639TIP3    H262333   3.524   2.975  14.071 -2.0342 -0.0865 -0.4162
13640TIP3   OH262334   4.467   6.765  11.082 -0.0090  0.5555  0.5499
13640TIP3    H162335   4.470   6.852  11.042 -3.2369 -0.3338 -2.1078
13640TIP3    H262336   4.377   6.735  11.065  0.7665 -3.0116  2.0218
13641TIP3   OH262337   0.576   1.537   3.550  0.4926 -0.2621  0.0649
13641TIP3    H162338   0.589   1.537   3.645  1.1181 -0.3273 -0.0152
13641TIP3    H262339   0.607   1.623   3.521 -1.7264  0.6549  0.1584
13642TIP3   OH262340   2.450   1.063  12.847  0.6512  0.2282  0.2734
13642TIP3    H162341   2.388   1.055  12.774  1.4085 -1.0040 -0.2636
13642TIP3    H262342   2.416   1.135  12.900 -1.6714 -0.8932  0.4108
13643TIP3   OH262343   3.895   1.815  16.821  0.9764  0.2869  0.4231
13643TIP3    H162344   3.802   1.797  16.834  0.5422 -1.0762 -3.3808
13643TIP3    H262345   3.899   1.911  16.815 -0.1213  0.3887  0.9120
13644TIP3   OH262346   4.889   5.234  11.257 -0.1665 -0.3013  0.4163
13644TIP3    H162347   4.906   5.235  11.352  0.3035  0.6077  0.3304
13644TIP3    H262348   4.797   5.209  11.249 -0.7833  1.5279  1.2182
13645TIP3   OH262349   4.203   6.458   1.062  0.4208  0.0665  0.0645
13645TIP3    H162350   4.198   6.371   1.023  1.0897  0.3502 -0.6724
13645TIP3    H262351   4.125   6.503   1.029 -0.3747 -0.5017  1.1109
13646TIP3   OH262352   1.790   2.707  13.993  0.4981 -0.5730 -0.7560
13646TIP3    H162353   1.812   2.634  14.051  0.9043  0.6900  0.7666
13646TIP3    H262354   1.867   2.764  13.998 -1.3298  1.9099  1.3451
13647TIP3   OH262355   1.400   6.294   4.016  0.1420 -0.1916  0.2189
13647TIP3    H162356   1.354   6.263   4.094 -2.1192  2.5913  0.1633
13647TIP3    H262357   1.387   6.225   3.951 -0.7980 -1.0842  1.3149
13648TIP3   OH262358   3.482   6.400  14.093  0.3363 -0.0676  0.3756
13648TIP3    H162359   3.417   6.451  14.142 -0.3984 -0.8535  0.2547
13648TIP3    H262360   3.444   6.312  14.087  1.5717 -0.6384  0.5858
13649TIP3   OH262361   2.598   5.627  13.880 -0.2535  0.3105  0.2172
13649TIP3    H162362   2.680   5.676  13.871 -0.2942  0.2474 -0.6213
13649TIP3    H262363   2.607   5.580  13.963 -0.1577  1.6260  0.9881
13650TIP3   OH262364   3.086   0.571   2.113  0.9811  0.1948  0.2386
13650TIP3    H162365   3.145   0.496   2.115  2.5378  1.3570  1.3051
13650TIP3    H262366   3.139   0.642   2.075  0.0020  1.0777  0.4703
13651TIP3   OH262367   5.794   6.463   5.982 -0.0877 -0.1797  0.0936
13651TIP3    H162368   5.706   6.471   6.018 -0.7186  2.5809 -1.7497
13651TIP3    H262369   5.845   6.421   6.051 -2.3316  0.2361  2.1028
13652TIP3   OH262370   0.607   0.940  12.368  0.0490  0.5338 -0.2001
13652TIP3    H162371   0.595   1.035  12.359 -1.0668  0.4949  0.6377
13652TIP3    H262372   0.583   0.922  12.459  0.9313 -0.4667 -0.1476
13653TIP3   OH262373   2.788   4.186   3.790  0.0376  0.8286  0.2541
13653TIP3    H162374   2.730   4.233   3.730 -0.6583 -1.9970 -1.4386
13653TIP3    H262375   2.730   4.157   3.861  0.5381  2.6459  1.5027
13654TIP3   OH262376   0.744   3.696   4.594 -0.2274  0.1426 -0.0422
13654TIP3    H162377   0.809   3.756   4.631  0.1766 -0.2156 -0.1648
13654TIP3    H262378   0.763   3.695   4.500  0.7480 -1.3089  0.1244
13655TIP3   OH262379   2.208   3.677  13.882  0.4489 -0.2324  0.0100
13655TIP3    H162380   2.193   3.705  13.792  3.2384 -0.2239 -0.5441
13655TIP3    H262381   2.214   3.759  13.932 -0.8582 -0.2301  0.1927
13656TIP3   OH262382   6.264   2.574  11.232 -0.6465 -0.0668  0.2903
13656TIP3    H162383   6.249   2.644  11.168 -0.5285  0.3564  0.7222
13656TIP3    H262384   6.330   2.518  11.190  1.1931  1.4678  0.9711
13657TIP3   OH262385   5.091   6.402   1.485 -0.3559  0.3197  0.2478
13657TIP3    H162386   5.000   6.391   1.514 -0.5971  0.7856 -0.2821
13657TIP3    H262387   5.139   6.426   1.564 -1.0049  1.6322  0.2908
13658TIP3   OH262388   0.898   5.964  17.197  0.0960  0.0897  0.1489
13658TIP3    H162389   0.971   5.923  17.151  0.2583 -1.5539  1.7756
13658TIP3    H262390   0.869   5.899  17.261 -1.5262  1.4477  0.8955
13659TIP3   OH262391   5.158   6.184  16.285 -0.3491  0.1833 -0.2638
13659TIP3    H162392   5.206   6.253  16.239  2.4320 -0.6208  1.2044
13659TIP3    H262393   5.127   6.226  16.365  0.0828  0.1000 -0.0517
13660TIP3   OH262394   4.837   2.689   1.710  0.1193 -0.2067 -0.2695
13660TIP3    H162395   4.789   2.760   1.753  2.0944  0.2597  1.3146
13660TIP3    H262396   4.904   2.734   1.659  0.8254 -0.9131  0.0374
13661TIP3   OH262397   2.589   0.990   0.432 -0.0526 -0.4854  0.0138
13661TIP3    H162398   2.574   1.054   0.501 -0.0420  0.0508 -0.4738
13661TIP3    H262399   2.656   1.030   0.377 -2.3066  0.5626 -2.1447
13662TIP3   OH262400   3.245   0.026   0.492  0.5048  0.7265  0.6046
13662TIP3    H162401   3.198  -0.058   0.486  0.7861  0.5812  0.3587
13662TIP3    H262402   3.337   0.000   0.502  0.4932  1.0060  1.4480
13663TIP3   OH262403   4.688   4.357   4.388 -0.2544  0.4337  0.1413
13663TIP3    H162404   4.711   4.449   4.372 -0.9666  0.7314  0.7287
13663TIP3    H262405   4.598   4.349   4.358  0.2890 -0.4860 -1.3210
13664TIP3   OH262406   0.778   3.725  12.819  0.6025 -0.7600  0.2591
13664TIP3    H162407   0.738   3.645  12.852  1.1087 -0.9773  0.3610
13664TIP3    H262408   0.851   3.695  12.764  0.6554 -0.3752  0.1113
13665TIP3   OH262409   1.251   5.726   5.979  0.2391 -0.9933  0.3363
13665TIP3    H162410   1.194   5.754   5.907 -0.6910 -3.3923  0.0709
13665TIP3    H262411   1.207   5.759   6.058 -0.2949 -0.8565 -0.0092
13666TIP3   OH262412   6.056   6.301   3.323 -0.6280 -0.2902  0.3145
13666TIP3    H162413   5.999   6.293   3.400 -0.9263  0.2434  0.1509
13666TIP3    H262414   6.060   6.395   3.305  0.2367 -0.3257  0.2697
13667TIP3   OH262415   4.258   6.407  14.779 -0.4062 -0.6721 -0.4216
13667TIP3    H162416   4.220   6.368  14.858  2.1085 -0.7408  0.8491
13667TIP3    H262417   4.296   6.489  14.809  1.3028 -1.0684 -1.3627
13668TIP3   OH262418   4.292   4.376  13.090  0.3992  0.0919  0.4619
13668TIP3    H162419   4.374   4.406  13.129  0.4845 -1.3123  1.4384
13668TIP3    H262420   4.234   4.361  13.165 -0.8518  1.2480 -0.2149
13669TIP3   OH262421   6.075   1.446  13.482 -0.3685  0.3882  0.3843
13669TIP3    H162422   5.994   1.408  13.515  0.1765 -2.0680 -0.8803
13669TIP3    H262423   6.071   1.433  13.387  1.7206 -0.3056  0.3390
13670TIP3   OH262424   3.072   1.029  16.996 -0.0072 -0.0029 -0.4349
13670TIP3    H162425   2.987   1.062  17.025  0.1297  0.2438 -0.3018
13670TIP3    H262426   3.063   0.934  16.996 -0.5477  0.0395 -1.2427
13671TIP3   OH262427   0.523   6.289  13.851 -0.4789  0.6184  0.1393
13671TIP3    H162428   0.470   6.259  13.777 -0.1001 -0.8680  0.4361
13671TIP3    H262429   0.543   6.381  13.831 -1.0972  0.4855 -1.1758
13672TIP3   OH262430   6.710   6.732   0.993 -0.2293 -0.9096  0.4146
13672TIP3    H162431   6.681   6.797   0.929  1.1198 -0.6871 -0.0176
13672TIP3    H262432   6.796   6.763   1.021 -1.5793  0.1724  3.9761
13673TIP3   OH262433   2.713   1.703  13.923 -0.1467  0.2404  0.2409
13673TIP3    H162434   2.647   1.744  13.978 -2.5904  1.2753 -3.1277
13673TIP3    H262435   2.791   1.698  13.978 -1.8510  2.6453  3.1658
13674TIP3   OH262436   0.891   5.904   5.963 -0.5648 -0.9368 -0.0685
13674TIP3    H162437   0.913   5.883   5.872 -1.7296 -0.3613 -0.4973
13674TIP3    H262438   0.891   5.999   5.966 -1.3900 -0.9389  0.3000
13675TIP3   OH262439   5.389   3.122  14.006  0.2930 -0.4142  0.4406
13675TIP3    H162440   5.340   3.203  13.991  0.3307 -0.5740 -0.5728
13675TIP3    H262441   5.438   3.107  13.925 -0.3570 -1.8994  0.2870
13676TIP3   OH262442   2.520   5.196   5.378  0.4095 -0.0231 -0.7496
13676TIP3    H162443   2.426   5.214   5.390  0.7591  0.7693  1.0834
13676TIP3    H262444   2.556   5.278   5.346  0.6209 -0.0898 -0.6804
13677TIP3   OH262445   1.580   6.089  15.475  0.0466  0.9961 -0.0014
13677TIP3    H162446   1.576   6.051  15.562 -1.4833  0.2946 -0.3450
13677TIP3    H262447   1.673   6.089  15.453  0.2524 -1.1622  0.6255
13678TIP3   OH262448   1.962   6.320  14.395  0.5971 -0.1424  0.0521
13678TIP3    H162449   1.995   6.345  14.308  0.9153  1.8739  0.6976
13678TIP3    H262450   1.995   6.389  14.453  2.5763 -2.7558  2.2836
13679TIP3   OH262451   4.580   1.118  14.589 -0.3648 -0.0648 -0.5994
13679TIP3    H162452   4.647   1.176  14.625 -0.4027 -0.1699 -0.3580
13679TIP3    H262453   4.500   1.143  14.635 -0.7317  0.8126 -1.6630
13680TIP3   OH262454   4.399   4.834  13.234  0.8369  0.0620  0.4361
13680TIP3    H162455   4.342   4.893  13.184  1.8385  0.0148 -0.7986
13680TIP3    H262456   4.470   4.890  13.265  0.8579 -0.1551  0.7849
13681TIP3   OH262457   4.490   1.320  13.434 -0.2634  0.1351  0.3217
13681TIP3    H162458   4.405   1.287  13.403  0.2235 -0.0271 -0.8971
13681TIP3    H262459   4.472   1.409  13.463 -0.5948  0.6172 -1.2766
13682TIP3   OH262460   4.406   3.329  12.119 -1.0531 -0.3759 -0.3053
13682TIP3    H162461   4.344   3.401  12.125  0.1877  0.6899  0.1417
13682TIP3    H262462   4.492   3.371  12.115 -0.4195 -1.6959 -3.1679
13683TIP3   OH262463   0.169   5.011   3.512 -0.7182  0.0587 -0.1428
13683TIP3    H162464   0.222   4.939   3.546  0.1715 -0.1226 -1.8209
13683TIP3    H262465   0.186   5.011   3.418 -1.5206  1.7997 -0.3238
13684TIP3   OH262466   0.882   3.226   5.256  0.1526 -0.0613 -0.0150
13684TIP3    H162467   0.929   3.178   5.188 -0.2742 -1.3513  0.5773
13684TIP3    H262468   0.892   3.173   5.335  1.0093  1.6202  1.0700
13685TIP3   OH262469   5.387   6.278  12.591 -0.1217  0.0440  0.2717
13685TIP3    H162470   5.469   6.230  12.583  0.2070  0.9365 -3.4886
13685TIP3    H262471   5.409   6.356  12.641  1.5310  0.5394 -1.1491
13686TIP3   OH262472   3.075   0.758   3.316 -0.5009  0.0761  0.3039
13686TIP3    H162473   3.043   0.802   3.395  0.5875  0.2212  0.6877
13686TIP3    H262474   3.167   0.783   3.311  0.6159 -3.2193  1.3604
13687TIP3   OH262475   2.883   4.674   2.272  0.4385  0.5017 -0.1211
13687TIP3    H162476   2.951   4.740   2.290 -0.3463  1.2326  0.2567
13687TIP3    H262477   2.902   4.603   2.332  0.1572  1.2407  0.8765
13688TIP3   OH262478   0.891   2.414   3.503 -0.4631  0.1764  0.1419
13688TIP3    H162479   0.858   2.343   3.559 -0.8175  0.2523  0.0345
13688TIP3    H262480   0.831   2.487   3.520 -0.4474  0.2660 -0.1784
13689TIP3   OH262481   2.282   4.688   5.710  0.2412  0.0283  0.0371
13689TIP3    H162482   2.339   4.614   5.730 -1.6727 -1.4065  0.5118
13689TIP3    H262483   2.249   4.669   5.622 -2.0908 -1.0190  1.0520
13690TIP3   OH262484   0.218   4.891   0.691  0.7859 -0.7258 -0.6850
13690TIP3    H162485   0.294   4.846   0.656  1.5394  1.9983 -2.9539
13690TIP3    H262486   0.244   4.983   0.695 -1.5998 -0.0214  0.8217
13691TIP3   OH262487   4.090   6.778   5.514 -0.2326 -0.4125 -0.1762
13691TIP3    H162488   4.081   6.805   5.605 -0.5697 -2.2844  0.3803
13691TIP3    H262489   4.162   6.831   5.480  1.2935 -1.1134  1.7853
13692TIP3   OH262490   0.379   1.633  12.536 -0.3909  0.6711 -0.0711
13692TIP3    H162491   0.295   1.678  12.529 -1.7652 -1.6441  0.4438
13692TIP3    H262492   0.378   1.595  12.624 -0.5829 -2.5793 -1.3539
13693TIP3   OH262493   2.650   4.354  14.093  0.3765 -0.6980  0.1681
13693TIP3    H162494   2.575   4.380  14.146  0.4303  0.2559 -0.2064
13693TIP3    H262495   2.694   4.287  14.145  0.2841  0.0244  1.2129
13694TIP3   OH262496   2.315   3.057  16.474  0.0264 -0.0151 -0.2517
13694TIP3    H162497   2.259   3.130  16.501 -0.3691 -0.3507 -0.1619
13694TIP3    H262498   2.289   2.985  16.531 -1.8915 -1.2087 -2.4761
13695TIP3   OH262499   2.418   6.237  11.283 -0.3210 -0.2411 -0.0692
13695TIP3    H162500   2.510   6.262  11.293 -0.0681 -1.0017 -0.4036
13695TIP3    H262501   2.373   6.283  11.353 -0.0556  1.9290 -1.2288
13696TIP3   OH262502   4.596   2.230  11.234  0.6607  0.5594  0.0366
13696TIP3    H162503   4.627   2.311  11.195  1.2015 -0.4487 -1.7532
13696TIP3    H262504   4.517   2.207  11.185  1.5205 -0.9028 -0.7414
13697TIP3   OH262505   6.510   2.973   2.826 -0.0244 -0.1018  0.2425
13697TIP3    H162506   6.471   2.962   2.913  0.5986  0.1813  0.5662
13697TIP3    H262507   6.436   2.997   2.770 -0.4456 -0.3487  0.6799
13698TIP3   OH262508   6.101   2.382  12.069  0.0791 -0.3875 -0.0970
13698TIP3    H162509   6.010   2.355  12.080 -0.1257  0.0037 -0.7435
13698TIP3    H262510   6.131   2.334  11.992  0.4657 -0.6305  0.2059
13699TIP3   OH262511   3.661   0.175  14.870  0.2480 -0.4879 -0.2926
13699TIP3    H162512   3.630   0.145  14.956  1.4009 -0.0002  0.3238
13699TIP3    H262513   3.626   0.112  14.808 -0.7558 -0.7547  0.5217
13700TIP3   OH262514   6.651   4.062   1.684 -0.5127  0.2183 -0.0376
13700TIP3    H162515   6.726   4.063   1.742  0.9319  1.9561 -1.8027
13700TIP3    H262516   6.688   4.063   1.596 -2.4923  2.9944 -1.0084
13701TIP3   OH262517   0.377   0.950  11.612 -0.8267  0.5500 -0.1762
13701TIP3    H162518   0.337   1.033  11.638 -2.0497  0.1659 -0.7625
13701TIP3    H262519   0.347   0.936  11.522 -2.0983 -1.3734  0.4903
13702TIP3   OH262520   3.692   2.365  12.346 -0.3053 -0.1369 -0.0342
13702TIP3    H162521   3.637   2.326  12.278 -1.8240 -1.0191  1.6304
13702TIP3    H262522   3.750   2.425  12.298 -0.1658 -1.9218 -2.2747
13703TIP3   OH262523   3.167   6.390  12.157 -0.3075 -0.1356  0.3008
13703TIP3    H162524   3.075   6.380  12.178 -0.5490  0.1736 -0.5656
13703TIP3    H262525   3.169   6.456  12.088  0.7501  1.6636  1.9225
13704TIP3   OH262526   0.454   3.465  17.041  0.0572  0.1565  0.1114
13704TIP3    H162527   0.376   3.513  17.066 -1.2873 -1.6344 -0.4502
13704TIP3    H262528   0.522   3.499  17.099 -1.7034  0.0101  2.4175
13705TIP3   OH262529   0.242   4.382   5.168  0.4397  0.2318  0.3508
13705TIP3    H162530   0.178   4.390   5.239  1.9159  0.4790  1.6903
13705TIP3    H262531   0.306   4.451   5.186  2.2654 -1.3889  0.3043
13706TIP3   OH262532   1.913   2.942  16.579  0.1552  0.2398 -0.5693
13706TIP3    H162533   1.851   2.987  16.637  0.5603 -1.3609  1.1856
13706TIP3    H262534   1.878   2.957  16.491 -2.1099  0.3477  0.2782
13707TIP3   OH262535   0.565   2.717  12.214 -0.5352  0.2974  0.0902
13707TIP3    H162536   0.638   2.767  12.177 -0.7490  0.5231 -0.0303
13707TIP3    H262537   0.575   2.630  12.177 -1.1174  0.6813 -1.0437
13708TIP3   OH262538   4.193   1.695  10.695 -0.6298 -0.2964 -0.5488
13708TIP3    H162539   4.278   1.719  10.657 -0.6435 -1.8109 -1.5989
13708TIP3    H262540   4.189   1.600  10.689 -0.9738 -0.6184  2.6084
13709TIP3   OH262541   5.815   5.911  11.306  0.1671 -0.7050 -0.3970
13709TIP3    H162542   5.797   5.953  11.222 -0.5313  0.8179  0.4553
13709TIP3    H262543   5.873   5.972  11.351 -0.5270 -0.8466  0.7258
13710TIP3   OH262544   3.216   4.985   0.411  0.6660  0.3368 -0.3023
13710TIP3    H162545   3.216   5.027   0.325  0.1691  1.5331  0.2616
13710TIP3    H262546   3.210   5.058   0.474  0.5283 -0.5382  0.7318
13711TIP3   OH262547   0.021   2.088   2.106  0.2621 -0.1943 -0.7741
13711TIP3    H162548   0.025   2.064   2.198  0.4198 -2.1422 -1.2525
13711TIP3    H262549   0.086   2.158   2.096  0.4323 -0.1546  0.5202
13712TIP3   OH262550   0.615   0.783  15.571 -0.2838  0.0153 -0.1065
13712TIP3    H162551   0.553   0.776  15.499  2.5497 -0.5379 -2.7285
13712TIP3    H262552   0.619   0.877  15.590 -0.9878  0.1883 -0.7650
13713TIP3   OH262553   5.774   6.126   0.965 -0.2444 -0.1414  1.3443
13713TIP3    H162554   5.812   6.066   0.901 -1.6497 -0.4318  0.7394
13713TIP3    H262555   5.848   6.178   0.996  0.4712  0.0443 -0.5626
13714TIP3   OH262556   0.593   1.079   5.689 -0.0705  1.0289 -0.0760
13714TIP3    H162557   0.648   1.091   5.612 -1.7748  1.3463 -1.2855
13714TIP3    H262558   0.507   1.057   5.654 -0.5562 -0.2801  1.7747
13715TIP3   OH262559   4.348   0.073   3.789 -0.2932 -0.6315 -0.4347
13715TIP3    H162560   4.350  -0.014   3.827  0.2445  0.0181  1.0819
13715TIP3    H262561   4.347   0.132   3.864 -3.0883  0.6750 -1.3568
13716TIP3   OH262562   6.103   0.737  11.894 -0.0350  0.3281 -0.9368
13716TIP3    H162563   6.126   0.760  11.804  2.9531 -0.2224 -0.4039
13716TIP3    H262564   6.129   0.646  11.903  2.0920  1.0355  1.1059
13717TIP3   OH262565   4.355   1.197  12.621  0.3690 -0.4187 -0.1730
13717TIP3    H162566   4.331   1.272  12.567 -0.6093 -0.2786  0.4289
13717TIP3    H262567   4.348   1.122  12.561  0.6740 -0.1094 -0.5975
13718TIP3   OH262568   1.598   6.770   4.512 -0.1454  0.4730  0.4082
13718TIP3    H162569   1.546   6.802   4.438 -1.7629  0.8660  1.6442
13718TIP3    H262570   1.573   6.826   4.585  1.1183 -0.1447  1.3591
13719TIP3   OH262571   5.757   6.663  14.515  0.3340  0.3136  0.1569
13719TIP3    H162572   5.820   6.653  14.443  1.7172 -1.1715  1.5045
13719TIP3    H262573   5.770   6.754  14.544 -0.9880  1.2920 -2.0548
13720TIP3   OH262574   3.438   2.691   3.431 -0.4364  0.3291 -0.0037
13720TIP3    H162575   3.362   2.742   3.403  0.1920  1.7664  0.7994
13720TIP3    H262576   3.403   2.603   3.447 -1.7159  0.6957 -0.6452
13721TIP3   OH262577   1.178   0.453  14.046 -0.4316 -0.0183  0.0562
13721TIP3    H162578   1.101   0.490  14.002 -0.1522  1.0160  0.3998
13721TIP3    H262579   1.207   0.522  14.106  0.8740 -0.3072 -0.2027
13722TIP3   OH262580   4.033   3.982   1.084  0.1557 -0.2351  0.2391
13722TIP3    H162581   4.049   3.890   1.101 -1.2424 -0.1630  2.4070
13722TIP3    H262582   4.068   3.997   0.996 -0.2438 -2.9838 -0.4878
13723TIP3   OH262583   5.865   1.632  11.509 -0.1031 -0.4134 -0.1456
13723TIP3    H162584   5.799   1.617  11.441  0.5440  1.6259 -1.3147
13723TIP3    H262585   5.814   1.653  11.587 -0.9728  2.6762 -1.4031
13724TIP3   OH262586   5.044   6.343  10.775 -0.1813 -0.0528  0.1338
13724TIP3    H162587   4.951   6.342  10.752 -0.0139 -1.2348 -0.5288
13724TIP3    H262588   5.090   6.325  10.693  0.5396 -1.5512  0.8371
13725TIP3   OH262589   3.519   1.362   2.573 -0.3676  0.4954 -0.3878
13725TIP3    H162590   3.585   1.296   2.552 -1.7475 -0.7982 -0.9233
13725TIP3    H262591   3.458   1.317   2.631 -0.9923  1.5263 -0.2160
13726TIP3   OH262592   2.905   5.242   3.022  0.4083 -0.7580 -0.4412
13726TIP3    H162593   2.917   5.299   3.098 -1.3097  0.8926 -1.3255
13726TIP3    H262594   2.994   5.211   3.002  1.0753 -0.2475  1.4653
13727TIP3   OH262595   3.764   5.056  12.645  0.2255  0.1226 -0.4514
13727TIP3    H162596   3.719   4.975  12.669  1.4481 -0.4040  0.1483
13727TIP3    H262597   3.823   5.073  12.718  1.5071  0.4084 -1.5166
13728TIP3   OH262598   4.905   1.179  15.830 -0.2484  0.0788 -0.7451
13728TIP3    H162599   4.832   1.128  15.794 -0.6727  0.4604 -0.4407
13728TIP3    H262600   4.984   1.133  15.800 -0.6063 -0.1369 -1.3726
13729TIP3   OH262601   4.680   5.738  14.589 -0.2167  1.0187  0.2141
13729TIP3    H162602   4.617   5.791  14.639 -0.4265  2.3826 -1.3961
13729TIP3    H262603   4.674   5.651  14.628 -3.6744  0.8675 -0.2850
13730TIP3   OH262604   5.695   0.985   1.846 -0.1282  0.0523  0.2182
13730TIP3    H162605   5.697   1.076   1.816  0.8828 -0.4607 -1.3769
13730TIP3    H262606   5.663   0.991   1.936  3.3205  2.3583  1.5154
13731TIP3   OH262607   3.418   0.875  14.176 -0.7098  0.4244 -0.2085
13731TIP3    H162608   3.375   0.958  14.198 -2.5101 -0.3964 -0.4681
13731TIP3    H262609   3.352   0.826  14.127  0.0055 -1.5275  0.6826
13732TIP3   OH262610   0.465   1.844   2.239 -0.1310  0.0415 -0.5990
13732TIP3    H162611   0.532   1.868   2.303  0.8608  1.1265 -1.9769
13732TIP3    H262612   0.485   1.753   2.216  0.2457  0.0358 -0.2516
13733TIP3   OH262613   4.296   4.277   2.223  0.2630 -0.3007 -0.5964
13733TIP3    H162614   4.233   4.214   2.188 -1.4938  1.3114 -0.4953
13733TIP3    H262615   4.269   4.290   2.314 -0.0172  1.3053 -0.8939
13734TIP3   OH262616   1.988   5.212   0.797  0.1237 -0.5372 -0.4763
13734TIP3    H162617   2.007   5.200   0.890 -1.3236  1.3789  0.1240
13734TIP3    H262618   1.965   5.124   0.766 -0.1370 -1.0832  1.1529
13735TIP3   OH262619   2.083   2.355  10.922 -0.1408  0.4842  0.3343
13735TIP3    H162620   2.043   2.441  10.905 -1.0307 -0.0483 -0.3414
13735TIP3    H262621   2.160   2.375  10.975 -0.2302  1.7253  0.0370
13736TIP3   OH262622   4.013   6.699  13.487  0.5572  0.4263 -0.2270
13736TIP3    H162623   4.001   6.789  13.515 -0.9564  0.1716  0.0179
13736TIP3    H262624   4.052   6.705  13.400 -0.3494  1.3255 -0.5769
13737TIP3   OH262625   4.732   3.416   0.704  0.2029 -0.2210 -0.2420
13737TIP3    H162626   4.734   3.462   0.788  1.4656  0.1550 -0.4600
13737TIP3    H262627   4.657   3.358   0.711 -1.0960  1.4332  0.2760
13738TIP3   OH262628   0.655   3.539  17.234 -0.0046 -0.1534  0.3523
13738TIP3    H162629   0.601   3.518  17.310  0.0855 -2.1964 -0.1011
13738TIP3    H262630   0.737   3.571  17.272 -0.8256  1.2274  1.0567
13739TIP3   OH262631   3.358   1.968  12.680  0.0400 -0.6009 -0.7201
13739TIP3    H162632   3.442   2.012  12.668  0.7429 -1.2353  1.3809
13739TIP3    H262633   3.369   1.883  12.637 -0.5468  0.3588 -2.8583
13740TIP3   OH262634   0.053   3.387  16.395 -0.0963  0.2333  0.3489
13740TIP3    H162635   0.064   3.450  16.323  0.2573 -1.6268 -1.3204
13740TIP3    H262636   0.143   3.363  16.419 -0.2178 -1.1925 -0.5183
13741TIP3   OH262637   0.805   2.214  11.265 -0.4437 -0.1090  0.8317
13741TIP3    H162638   0.836   2.213  11.174  0.0798  1.6512  0.9554
13741TIP3    H262639   0.881   2.244  11.315 -0.8070 -0.8210  1.8283
13742TIP3   OH262640   3.879   2.029   4.074 -0.0070 -0.3109  0.5908
13742TIP3    H162641   3.790   2.052   4.103 -0.6109  0.1335 -1.4841
13742TIP3    H262642   3.920   2.114   4.056 -0.0902 -0.5974 -1.0361
13743TIP3   OH262643   4.797   4.183   3.188  0.4707 -0.7351  0.1410
13743TIP3    H162644   4.724   4.123   3.175  0.6335 -0.6988 -1.0190
13743TIP3    H262645   4.797   4.201   3.282 -1.7237  0.1778  0.0185
13744TIP3   OH262646   5.087   6.729  11.273  0.2119 -0.1597  0.1500
13744TIP3    H162647   5.182   6.728  11.287  0.3524  0.7715 -0.6769
13744TIP3    H262648   5.054   6.657  11.328  1.2121  0.5193  1.7188
13745TIP3   OH262649   0.553   4.681   3.456 -0.1332  0.1853 -0.1086
13745TIP3    H162650   0.648   4.675   3.470 -0.0158 -1.4527 -1.2698
13745TIP3    H262651   0.544   4.688   3.361 -1.1905 -0.7181 -0.0944
13746TIP3   OH262652   6.215   5.308   0.430  0.4066  0.1055 -0.5159
13746TIP3    H162653   6.294   5.361   0.437  2.3036 -2.5012 -0.6790
13746TIP3    H262654   6.229   5.235   0.490 -1.8434 -0.5227 -0.6577
13747TIP3   OH262655   4.186   6.170   0.991  0.3383  0.5364 -0.1948
13747TIP3    H162656   4.164   6.099   0.930  0.7586 -0.0868  0.3740
13747TIP3    H262657   4.146   6.145   1.074 -0.6602  1.6284 -0.3163
13748TIP3   OH262658   5.637   6.341  14.178 -0.2976  0.4552 -0.2460
13748TIP3    H162659   5.656   6.398  14.104  0.3526 -0.9387 -1.1990
13748TIP3    H262660   5.722   6.301  14.199 -0.3233  1.2990  1.7040
13749TIP3   OH262661   2.664   4.802   1.342  0.5762 -0.4087 -0.3048
13749TIP3    H162662   2.625   4.834   1.261 -1.0805 -0.5305  0.4169
13749TIP3    H262663   2.744   4.757   1.314  0.0678 -0.3928 -1.8519
13750TIP3   OH262664   4.973   6.536   2.153 -0.3953  0.3668 -0.9708
13750TIP3    H162665   5.035   6.608   2.145 -0.3631  0.3591 -0.7720
13750TIP3    H262666   4.972   6.495   2.066  0.7967 -0.4033 -0.6425
13751TIP3   OH262667   6.624   1.793   6.622 -0.3612  0.1224 -0.7602
13751TIP3    H162668   6.657   1.704   6.615  0.1965  0.1908  0.7662
13751TIP3    H262669   6.702   1.848   6.616 -0.6618  0.5025 -1.3152
13752TIP3   OH262670   0.341   2.738   5.486 -0.7025  0.1843 -0.1841
13752TIP3    H162671   0.321   2.803   5.418  0.1954  2.6682  1.7590
13752TIP3    H262672   0.260   2.731   5.536 -0.6703  0.1288 -0.1403
13753TIP3   OH262673   5.388   5.173  11.152  0.1058  0.6105  0.0978
13753TIP3    H162674   5.390   5.122  11.071  0.1418  2.4857 -1.1472
13753TIP3    H262675   5.307   5.147  11.195 -0.3184  0.1745 -0.9443
13754TIP3   OH262676   1.740   2.985  16.362  0.0932 -0.4779  0.0093
13754TIP3    H162677   1.645   2.980  16.347 -0.1291 -3.2874  1.5215
13754TIP3    H262678   1.756   3.077  16.383 -1.9494  0.4451 -2.0801
13755TIP3   OH262679   3.617   2.961   1.416  0.3023 -0.3731 -0.3373
13755TIP3    H162680   3.632   3.020   1.343  1.1865 -0.8075 -0.5279
13755TIP3    H262681   3.552   3.005   1.471  0.9465  0.7597 -0.4735
13756TIP3   OH262682   6.681   6.066  15.905  0.8230  0.1738  0.0495
13756TIP3    H162683   6.731   5.988  15.881 -0.5568  0.0154 -2.7720
13756TIP3    H262684   6.734   6.139  15.873  0.1351  0.0981 -1.3381
13757TIP3   OH262685   0.520   3.299   4.421 -0.2089 -0.1764  0.1872
13757TIP3    H162686   0.564   3.367   4.369  0.4259  0.3414  1.3633
13757TIP3    H262687   0.545   3.217   4.379  1.7675  0.1073  0.6940
13758TIP3   OH262688   5.513   5.854  17.140 -0.3485  0.3621 -0.2854
13758TIP3    H162689   5.424   5.819  17.150 -0.0168  0.1015  2.5306
13758TIP3    H262690   5.501   5.939  17.098 -2.0911  0.9678  1.3180
13759TIP3   OH262691   2.577   3.523   6.398 -0.4381 -0.1075  0.1630
13759TIP3    H162692   2.506   3.580   6.427 -0.9665 -0.5036 -0.3259
13759TIP3    H262693   2.534   3.443   6.370  0.3275 -0.9852  1.3448
13760TIP3   OH262694   5.210   1.889  16.812 -0.0864 -0.1739  0.2789
13760TIP3    H162695   5.294   1.880  16.857 -0.2841 -0.2464  0.6339
13760TIP3    H262696   5.180   1.977  16.834 -0.3690 -0.3525  0.6049
13761TIP3   OH262697   1.094   6.027   1.467  0.5240  0.1455  0.1194
13761TIP3    H162698   1.160   5.959   1.482 -1.0480 -1.4425  0.0499
13761TIP3    H262699   1.075   6.061   1.555  0.5269 -0.2686  0.2833
13762TIP3   OH262700   0.570   0.229   0.913  0.1489  0.3086 -0.6735
13762TIP3    H162701   0.513   0.295   0.951  1.9507  0.3248  2.3221
13762TIP3    H262702   0.614   0.273   0.840  0.8269  2.2883  0.8567
13763TIP3   OH262703   3.493   1.897  14.162 -0.1351  0.1909 -0.4289
13763TIP3    H162704   3.496   1.991  14.146  1.3011 -0.0025 -1.5259
13763TIP3    H262705   3.462   1.889  14.252 -3.7052  1.5367 -1.3873
13764TIP3   OH262706   1.578   1.296   5.447  0.2970  0.3597 -0.5373
13764TIP3    H162707   1.525   1.277   5.369 -2.4330  0.3271  1.1573
13764TIP3    H262708   1.560   1.388   5.466  0.4545  0.2133  0.3431
13765TIP3   OH262709   4.024   5.784   5.858  0.4728  0.2647 -0.8721
13765TIP3    H162710   4.094   5.719   5.850  0.5695  0.3515 -0.7397
13765TIP3    H262711   4.035   5.820   5.946 -1.0682 -1.2413 -0.0148
13766TIP3   OH262712   3.660   0.744  16.834  0.1079  0.1133  0.3679
13766TIP3    H162713   3.748   0.782  16.835  0.3230 -0.2748 -0.9665
13766TIP3    H262714   3.674   0.651  16.851  0.4176 -0.6166 -3.0712
13767TIP3   OH262715   6.325   4.324  12.415  0.1653 -0.3062 -0.6134
13767TIP3    H162716   6.337   4.237  12.377  0.5473 -0.1687 -0.8130
13767TIP3    H262717   6.406   4.370  12.395  0.2564 -0.1356  0.1225
13768TIP3   OH262718   3.904   1.833   6.262 -0.3465 -0.3308  0.0632
13768TIP3    H162719   3.919   1.857   6.171 -0.2040  0.1808  0.2180
13768TIP3    H262720   3.831   1.888   6.290 -0.6173 -0.7351  0.1574
13769TIP3   OH262721   4.342   6.151  14.018 -0.7586  0.5894 -0.3492
13769TIP3    H162722   4.256   6.152  14.060 -1.1326 -0.4420 -1.0463
13769TIP3    H262723   4.324   6.130  13.927  0.3231 -1.3029 -0.1957
13770TIP3   OH262724   0.591   4.664  15.438 -0.3495  0.0121 -0.4990
13770TIP3    H162725   0.624   4.745  15.478  0.8080 -1.5518  1.9398
13770TIP3    H262726   0.626   4.665  15.349  1.6875  1.0686  0.2533
13771TIP3   OH262727   5.169   1.029   1.733  0.1788  0.3051  0.1920
13771TIP3    H162728   5.227   0.954   1.716 -1.0771 -1.1417  1.8667
13771TIP3    H262729   5.161   1.072   1.648  0.4921 -1.8386 -1.0164
13772TIP3   OH262730   6.259   0.490   5.960  0.8593 -0.4141 -0.5920
13772TIP3    H162731   6.181   0.539   5.933  1.5125  1.1215  0.2134
13772TIP3    H262732   6.265   0.418   5.896 -0.7741 -0.1293 -1.1140
13773TIP3   OH262733   2.149   6.400  16.343  0.2349  0.9664  0.0439
13773TIP3    H162734   2.104   6.484  16.337 -1.6430 -0.0307 -0.8539
13773TIP3    H262735   2.123   6.366  16.429  1.6291  1.6082  0.7451
13774TIP3   OH262736   4.364   4.888   3.322 -0.0197 -0.0375  0.2893
13774TIP3    H162737   4.287   4.857   3.275 -1.0840  3.0575 -0.2483
13774TIP3    H262738   4.407   4.808   3.353 -2.7429 -1.9382 -0.4341
13775TIP3   OH262739   1.999   3.519   4.135  0.0415 -0.5387  0.0789
13775TIP3    H162740   1.998   3.431   4.172  1.1960 -0.4904  0.2596
13775TIP3    H262741   1.935   3.568   4.188 -1.3340 -1.4770 -0.6398
13776TIP3   OH262742   1.614   0.289  15.765 -0.0246 -0.2759  0.1834
13776TIP3    H162743   1.547   0.222  15.780 -0.1111 -0.0788  0.6936
13776TIP3    H262744   1.636   0.280  15.672  0.6994 -1.6813  0.4712
13777TIP3   OH262745   1.511   4.548  16.502  0.6328 -0.0369 -0.1814
13777TIP3    H162746   1.456   4.554  16.580 -0.2861 -0.6842 -0.7593
13777TIP3    H262747   1.481   4.469  16.457  2.6983 -0.9692 -0.0339
13778TIP3   OH262748   5.654   5.478  13.776  0.6122 -0.3657  0.3778
13778TIP3    H162749   5.666   5.460  13.869  1.0709  1.0353  0.6077
13778TIP3    H262750   5.742   5.484  13.741  0.5657  2.1066  0.4923
13779TIP3   OH262751   2.897   0.295   2.250 -0.0510  0.3282 -0.5549
13779TIP3    H162752   2.840   0.296   2.327  0.5815 -1.4530 -0.0362
13779TIP3    H262753   2.917   0.388   2.235 -1.9593  0.8936  0.0618
13780TIP3   OH262754   6.054   0.080   2.954 -0.6516 -0.3241  0.1386
13780TIP3    H162755   5.967   0.072   2.992 -1.5063  0.6618 -1.5222
13780TIP3    H262756   6.061   0.171   2.926  1.2839 -0.1387  1.0285
13781TIP3   OH262757   4.840   1.868   0.538 -0.2616  0.2614  0.5008
13781TIP3    H162758   4.784   1.879   0.462 -1.3624 -0.1509  1.2330
13781TIP3    H262759   4.780   1.863   0.612  0.5392 -2.5589  1.0897
13782TIP3   OH262760   3.417   4.755   2.759 -0.8908  0.4487  0.7596
13782TIP3    H162761   3.322   4.770   2.752 -0.9053  0.7402  1.4635
13782TIP3    H262762   3.453   4.841   2.782 -0.5492  0.1762  1.2638
13783TIP3   OH262763   4.944   3.525  16.459 -0.8290 -0.3939 -0.5271
13783TIP3    H162764   5.018   3.582  16.476 -0.7578 -0.4825 -0.5402
13783TIP3    H262765   4.896   3.521  16.542  0.8163 -2.7402  0.4213
13784TIP3   OH262766   3.427   4.392   0.245  0.2897 -0.6701  0.3377
13784TIP3    H162767   3.468   4.401   0.331 -0.7720  0.6505  0.7473
13784TIP3    H262768   3.376   4.311   0.251 -0.9719  0.1712  1.5035
13785TIP3   OH262769   0.697   0.792  17.121  0.3337 -0.5206  0.2121
13785TIP3    H162770   0.618   0.760  17.164  1.4710 -1.3868  1.7837
13785TIP3    H262771   0.767   0.734  17.153  1.8773  1.2619  0.2473
13786TIP3   OH262772   4.013   5.939   2.350 -0.1041 -0.1894 -0.1324
13786TIP3    H162773   4.020   5.854   2.392  0.6763  0.4101  1.0023
13786TIP3    H262774   4.093   5.946   2.297  0.7436  0.5603  1.2003
13787TIP3   OH262775   6.743   0.938  14.382 -0.2993  0.4116  0.0576
13787TIP3    H162776   6.836   0.931  14.404 -0.1014  0.7520 -0.6413
13787TIP3    H262777   6.723   0.855  14.338 -1.1199 -1.0218  2.9156
13788TIP3   OH262778   1.649   2.006  12.027  0.3565  0.1493 -0.4379
13788TIP3    H162779   1.650   1.915  12.054 -0.8375  0.3001  0.1721
13788TIP3    H262780   1.574   2.014  11.969 -0.2874  0.9805  0.4662
13789TIP3   OH262781   1.416   6.468   3.578  0.0255 -0.4389 -0.3965
13789TIP3    H162782   1.461   6.533   3.631  1.0620  0.1454 -1.9031
13789TIP3    H262783   1.339   6.514   3.545 -2.1551 -1.6152  2.6525
13790TIP3   OH262784   1.577   0.228   2.397  0.5337 -0.3952 -0.0291
13790TIP3    H162785   1.488   0.233   2.432  0.6960  0.0561  0.3200
13790TIP3    H262786   1.633   0.219   2.473  0.8220 -0.2494 -0.2200
13791TIP3   OH262787   0.622   5.147  11.549 -0.2695 -0.5503  0.0251
13791TIP3    H162788   0.615   5.092  11.627 -0.1008 -0.0592  0.3893
13791TIP3    H262789   0.577   5.097  11.480 -2.3899 -0.0081  0.9504
13792TIP3   OH262790   0.471   3.168  17.011  0.2542  0.1611 -0.1888
13792TIP3    H162791   0.488   3.120  17.092  1.9079 -0.0040 -0.5894
13792TIP3    H262792   0.449   3.257  17.040  0.6108  0.0450  0.4526
13793TIP3   OH262793   2.201   5.956  16.233 -0.3263 -0.0317 -0.0505
13793TIP3    H162794   2.231   6.045  16.215 -0.7832  0.2442  0.5022
13793TIP3    H262795   2.213   5.909  16.151 -1.6460  0.9766 -0.8707
13794TIP3   OH262796   3.169   2.372  14.695 -0.8882 -0.2270 -0.4706
13794TIP3    H162797   3.076   2.352  14.688 -1.1424  0.5128  0.5408
13794TIP3    H262798   3.173   2.451  14.750  0.2773  0.3861 -1.3917
13795TIP3   OH262799   1.227   4.647   4.133  0.0295 -0.0421  0.7704
13795TIP3    H162800   1.268   4.701   4.066  0.0606  0.8221  1.4779
13795TIP3    H262801   1.297   4.590   4.164 -0.4804 -2.0735 -1.4778
13796TIP3   OH262802   1.450   4.303   3.581 -0.3086 -0.4242 -0.2521
13796TIP3    H162803   1.456   4.389   3.623 -3.7092 -0.3486  0.3408
13796TIP3    H262804   1.511   4.248   3.630 -1.5786  0.5236  2.5841
13797TIP3   OH262805   3.530   0.767  12.021 -0.3534 -0.5224  0.0717
13797TIP3    H162806   3.564   0.681  12.047  1.0768  0.2038  0.7306
13797TIP3    H262807   3.491   0.803  12.101  0.6435  0.1422  0.2870
13798TIP3   OH262808   5.506   3.400  14.162  0.5564 -0.3631 -0.2512
13798TIP3    H162809   5.539   3.359  14.082  0.2727 -0.2165 -0.4445
13798TIP3    H262810   5.571   3.377  14.229  0.8706 -0.3669 -0.5517
13799TIP3   OH262811   4.943   0.452   0.180 -0.5855  0.3492 -0.0876
13799TIP3    H162812   5.003   0.527   0.181  2.1106 -1.6801 -0.3152
13799TIP3    H262813   4.902   0.455   0.094  2.6651 -0.6813 -1.8305
13800TIP3   OH262814   2.648   0.774  16.501  0.4522  0.1438  0.0280
13800TIP3    H162815   2.622   0.862  16.473 -0.0398  0.3462  1.0592
13800TIP3    H262816   2.672   0.729  16.420 -0.5498  0.8169 -0.6738
13801TIP3   OH262817   5.390   0.573  11.948  0.7611 -0.7720  0.3039
13801TIP3    H162818   5.439   0.588  11.867  0.4366 -0.1593  0.2100
13801TIP3    H262819   5.455   0.539  12.010  1.8160  1.8851  0.7950
13802TIP3   OH262820   5.214   4.926   2.373 -0.2829 -0.0841  0.1084
13802TIP3    H162821   5.175   4.998   2.422 -1.4963 -0.4109 -0.3187
13802TIP3    H262822   5.190   4.847   2.422 -1.1272 -0.3764 -0.7271
13803TIP3   OH262823   0.994   6.142   3.664 -0.0893  0.0112  0.6365
13803TIP3    H162824   1.042   6.110   3.740  1.8432  0.5104 -0.2949
13803TIP3    H262825   1.060   6.146   3.594 -1.5141  0.7143 -0.7392
13804TIP3   OH262826   6.172   4.279  11.741  0.5029 -0.1930  0.0672
13804TIP3    H162827   6.256   4.233  11.735  0.2675 -0.5821 -0.4216
13804TIP3    H262828   6.132   4.265  11.655  0.4230  0.9467 -0.0950
13805TIP3   OH262829   4.780   4.384  14.474  0.6464 -0.7784 -0.2318
13805TIP3    H162830   4.759   4.402  14.382 -0.2897  0.0782  0.1214
13805TIP3    H262831   4.720   4.314  14.499  0.1138 -0.2432  0.0189
13806TIP3   OH262832   0.304   2.595   2.167  0.3153 -0.2845  0.0802
13806TIP3    H162833   0.237   2.611   2.101  1.2912  2.6343 -0.3610
13806TIP3    H262834   0.281   2.655   2.239  1.4379 -0.5685  0.6949
13807TIP3   OH262835   4.043   6.661   0.344 -0.1066 -0.0814 -0.4903
13807TIP3    H162836   4.041   6.596   0.414  1.8484  1.3637  1.0318
13807TIP3    H262837   4.011   6.741   0.384 -1.2981  0.2419 -1.9920
13808TIP3   OH262838   5.527   3.839  14.626 -0.5955 -0.2054  0.4252
13808TIP3    H162839   5.594   3.813  14.690 -1.2317  1.0604  1.6801
13808TIP3    H262840   5.450   3.859  14.679 -1.2768  0.5017 -0.7825
13809TIP3   OH262841   3.566   4.625  12.127 -0.1513  0.3873  0.1642
13809TIP3    H162842   3.525   4.557  12.181  1.2542 -0.5853  0.0689
13809TIP3    H262843   3.507   4.636  12.053 -1.0199  0.1572  0.8125
13810TIP3   OH262844   4.537   6.443  14.203  0.2074 -0.7700 -0.0097
13810TIP3    H162845   4.527   6.376  14.136 -1.7998 -0.7743  0.2482
13810TIP3    H262846   4.461   6.433  14.259 -0.8198  2.3974 -0.6067
13811TIP3   OH262847   5.808   4.456  15.049 -0.0043  0.6845 -0.2986
13811TIP3    H162848   5.753   4.532  15.032  0.8498  1.5336  0.5995
13811TIP3    H262849   5.889   4.473  15.002 -0.0588 -0.0125 -0.6605
13812TIP3   OH262850   4.341   4.570  11.255 -0.3516  0.2066 -0.2184
13812TIP3    H162851   4.265   4.626  11.237  0.9353  1.0294 -3.8683
13812TIP3    H262852   4.410   4.631  11.280 -0.1590 -0.2628  0.4173
13813TIP3   OH262853   4.348   2.280  16.217  0.6633  0.1158  0.4690
13813TIP3    H162854   4.323   2.321  16.134 -0.1333  0.7529  1.0084
13813TIP3    H262855   4.286   2.209  16.229  0.9517 -0.1524  0.3917
13814TIP3   OH262856   4.428   6.078  14.405 -0.3179  0.1971  0.2317
13814TIP3    H162857   4.440   6.155  14.461 -0.6549 -0.1862  0.8500
13814TIP3    H262858   4.443   6.004  14.465 -0.1106 -0.2178 -0.3275
13815TIP3   OH262859   4.366   2.768   4.956  0.0784 -0.4644 -0.1404
13815TIP3    H162860   4.425   2.814   4.896  0.7826 -1.2916 -0.0938
13815TIP3    H262861   4.280   2.774   4.915  0.3630 -0.0729 -0.6818
13816TIP3   OH262862   4.320   5.194   5.026  0.1246 -0.1306 -0.7906
13816TIP3    H162863   4.325   5.183   5.121  0.4781  0.2083 -0.7666
13816TIP3    H262864   4.393   5.143   4.991 -0.0988 -0.3833 -0.8935
13817TIP3   OH262865   5.809   2.946   3.944 -0.0400 -0.0793 -0.0175
13817TIP3    H162866   5.832   3.037   3.962 -0.8426  0.4273 -1.3977
13817TIP3    H262867   5.731   2.931   3.997 -0.0453  0.1103  0.0300
13818TIP3   OH262868   4.399   1.761   1.609 -0.7634  0.0773 -0.6639
13818TIP3    H162869   4.340   1.758   1.533 -0.2162 -0.8389 -1.0794
13818TIP3    H262870   4.445   1.844   1.600 -0.9079  0.1081 -1.1787
13819TIP3   OH262871   4.506   4.023  13.627 -0.1394 -0.3356  0.0150
13819TIP3    H162872   4.538   4.002  13.539  1.6351  1.4394  0.1487
13819TIP3    H262873   4.582   4.009  13.684 -0.9408 -0.4116  1.1072
13820TIP3   OH262874   3.986   5.595  14.819  0.3582  0.1248 -0.1304
13820TIP3    H162875   4.072   5.615  14.782  0.2470 -0.9109 -0.9817
13820TIP3    H262876   3.948   5.681  14.838  1.5926  0.5954  0.3253
13821TIP3   OH262877   1.560   5.264  11.375 -0.4534  0.1557  0.3680
13821TIP3    H162878   1.595   5.210  11.304  0.8095  0.2003  0.9301
13821TIP3    H262879   1.594   5.223  11.455 -1.1929  0.5762  0.9079
13822TIP3   OH262880   1.215   0.666  14.232 -0.7699 -0.3641 -0.3088
13822TIP3    H162881   1.128   0.642  14.263 -0.2667 -0.2628  1.2657
13822TIP3    H262882   1.275   0.622  14.292  0.2877 -0.5493 -1.4534
13823TIP3   OH262883   4.760   3.522  16.994 -0.2630 -0.1912  0.5219
13823TIP3    H162884   4.797   3.439  17.023  1.4893  0.5209  0.4800
13823TIP3    H262885   4.749   3.573  17.075  4.5546  1.7669  0.3256
13824TIP3   OH262886   6.123   5.534   1.877 -0.0563 -0.1822 -0.0472
13824TIP3    H162887   6.179   5.605   1.908  1.3332  0.3653 -3.3823
13824TIP3    H262888   6.086   5.497   1.956  1.4399  2.3887  2.0338
13825TIP3   OH262889   2.114   2.252   1.593 -0.3858  0.1638  0.3834
13825TIP3    H162890   2.120   2.215   1.505 -0.4128 -0.9529  0.8261
13825TIP3    H262891   2.021   2.274   1.603 -0.6879 -1.0971  0.6360
13826TIP3   OH262892   6.688   2.760   4.983 -0.5148 -0.3701  0.1112
13826TIP3    H162893   6.621   2.707   5.027  0.0272 -0.5122  0.7790
13826TIP3    H262894   6.646   2.789   4.902 -1.1008 -1.1442  0.1233
13827TIP3   OH262895   3.112   0.438  13.342 -0.5192  0.4225  0.3506
13827TIP3    H162896   3.091   0.475  13.256 -0.3599  0.1905  0.2116
13827TIP3    H262897   3.165   0.360  13.323 -0.4931  0.3635  0.6574
13828TIP3   OH262898   2.456   3.675   6.061  0.0430  0.1330  0.1162
13828TIP3    H162899   2.369   3.645   6.085 -0.6139  1.2965 -0.7562
13828TIP3    H262900   2.485   3.611   5.995 -0.9468  0.8099 -1.0078
13829TIP3   OH262901   1.768   6.135   2.579 -0.1841  0.0647  0.3661
13829TIP3    H162902   1.708   6.164   2.510 -2.4163 -2.4650  1.0871
13829TIP3    H262903   1.780   6.212   2.634 -2.9704  0.6472  0.2810
13830TIP3   OH262904   4.567   5.977   1.151 -0.0784  0.1940  0.1496
13830TIP3    H162905   4.630   6.009   1.086 -1.6310  0.4897 -1.2786
13830TIP3    H262906   4.570   6.042   1.221 -0.0220  1.1370 -0.7064
13831TIP3   OH262907   3.912   4.426   1.593 -0.1482  0.0958  0.1050
13831TIP3    H162908   3.872   4.416   1.506 -2.4345 -3.0396  1.3358
13831TIP3    H262909   3.971   4.351   1.601  0.9722  1.0210  0.8633
13832TIP3   OH262910   5.240   4.600  11.298 -0.0954  0.3222 -0.2162
13832TIP3    H162911   5.284   4.590  11.214  2.2307 -0.5425  1.0332
13832TIP3    H262912   5.176   4.528  11.300 -0.3908  0.5260 -1.3275
13833TIP3   OH262913   6.452   0.215   4.673 -0.4943 -0.8553 -0.2128
13833TIP3    H162914   6.449   0.211   4.577 -0.3401 -1.1134 -0.2083
13833TIP3    H262915   6.535   0.258   4.693 -0.8557 -0.1383 -0.2050
13834TIP3   OH262916   6.578   1.023   0.218  0.6017  0.0093  0.2396
13834TIP3    H162917   6.559   1.045   0.127  2.8465  0.3888 -0.1966
13834TIP3    H262918   6.644   0.954   0.213  0.6892 -0.0385  1.5948
13835TIP3   OH262919   3.687   2.187   3.424 -0.1455 -0.6247  0.6820
13835TIP3    H162920   3.701   2.102   3.465  1.8037 -1.5518 -1.6297
13835TIP3    H262921   3.729   2.250   3.482  1.1143 -1.6688  0.9434
13836TIP3   OH262922   4.360   4.510   6.138 -0.1738 -0.3769  0.0394
13836TIP3    H162923   4.412   4.514   6.218 -1.2927 -0.9197  0.8306
13836TIP3    H262924   4.406   4.448   6.082 -0.8330 -2.2270  1.4291
13837TIP3   OH262925   6.443   5.654  14.412 -0.4990  0.2821  0.8795
13837TIP3    H162926   6.361   5.655  14.363 -0.5991  3.8097  0.8765
13837TIP3    H262927   6.416   5.637  14.503 -0.9748 -0.5098  0.5978
13838TIP3   OH262928   1.417   0.008   0.975  0.3677 -0.1361  0.1490
13838TIP3    H162929   1.342  -0.039   1.012  0.5817  0.3787  1.3005
13838TIP3    H262930   1.384   0.046   0.893 -0.4861 -0.3278  0.3926
13839TIP3   OH262931   6.008   6.660  11.244 -0.1911 -0.1101 -0.1051
13839TIP3    H162932   6.046   6.665  11.331  1.9216  0.3393 -0.9819
13839TIP3    H262933   5.993   6.567  11.229 -1.8635 -0.0838  1.2201
13840TIP3   OH262934   1.597   4.471  11.178 -0.8177 -0.5201 -0.3440
13840TIP3    H162935   1.532   4.497  11.244 -0.3622  0.2268 -0.1862
13840TIP3    H262936   1.557   4.494  11.095 -0.5682  0.3877 -0.2240
13841TIP3   OH262937   0.153   4.667  14.993 -0.3748 -0.6420 -0.6291
13841TIP3    H162938   0.095   4.723  14.942 -1.6110 -0.6215  0.7382
13841TIP3    H262939   0.109   4.582  14.996 -0.1633 -0.7311  0.1215
13842TIP3   OH262940   2.526   0.246   3.443 -0.3439 -0.1402  0.3814
13842TIP3    H162941   2.487   0.175   3.494 -1.1274 -2.1000 -2.6877
13842TIP3    H262942   2.606   0.208   3.406  0.2856  1.2553  0.2485
13843TIP3   OH262943   1.574   5.594   5.510  0.1810  0.2147  0.2894
13843TIP3    H162944   1.495   5.548   5.540 -0.2783  0.1845 -0.9231
13843TIP3    H262945   1.559   5.685   5.535 -0.5869  0.3430 -0.6035
13844TIP3   OH262946   1.039   3.451  16.441  0.0157 -0.7676 -0.2444
13844TIP3    H162947   1.040   3.462  16.346 -0.3520 -1.0196 -0.2827
13844TIP3    H262948   0.961   3.398  16.458  1.5048 -3.0218 -0.0525
13845TIP3   OH262949   4.520   2.107  13.849 -0.6149  0.1554 -0.4755
13845TIP3    H162950   4.487   2.130  13.763  0.4269 -0.1456 -0.9711
13845TIP3    H262951   4.593   2.168  13.864  0.9378 -1.5001 -0.9810
13846TIP3   OH262952   4.197   3.758  15.265 -0.6035 -0.4658  0.5909
13846TIP3    H162953   4.291   3.766  15.246 -0.8920 -0.8190 -1.2649
13846TIP3    H262954   4.189   3.674  15.310  0.0511 -0.0522  1.5092
13847TIP3   OH262955   5.146   5.655   0.165 -0.0558  0.2453 -0.2935
13847TIP3    H162956   5.091   5.731   0.143 -1.7656 -0.7918  0.2576
13847TIP3    H262957   5.171   5.669   0.257 -0.5845  0.0247 -0.1133
13848TIP3   OH262958   4.719   5.447   2.748  0.5327  0.1363  0.1049
13848TIP3    H162959   4.643   5.483   2.701  1.0821  1.4224  0.1660
13848TIP3    H262960   4.709   5.352   2.740 -0.7056  0.2917 -0.4902
13849TIP3   OH262961   3.068   2.932   2.837  0.0568 -0.1306  0.0985
13849TIP3    H162962   3.128   2.903   2.906  0.6057 -0.9994 -0.7063
13849TIP3    H262963   3.125   2.975   2.773 -0.0546 -1.5142 -0.9724
13850TIP3   OH262964   1.187   3.367   3.989 -0.2629 -0.0205 -0.3444
13850TIP3    H162965   1.186   3.438   4.054 -1.7889 -1.1764  0.9773
13850TIP3    H262966   1.277   3.367   3.956  0.8965  0.0151  2.4933
13851TIP3   OH262967   1.186   2.213   0.941 -0.0564  0.2451  0.5748
13851TIP3    H162968   1.202   2.119   0.952 -1.5176  0.0314  1.0400
13851TIP3    H262969   1.097   2.226   0.973  1.1350  2.3046  3.4387
13852TIP3   OH262970   6.641   6.108  17.164  0.0043  0.8461  0.0063
13852TIP3    H162971   6.575   6.117  17.096  0.4312  1.8541 -0.2828
13852TIP3    H262972   6.590   6.102  17.245 -0.4804  0.3099 -0.3328
13853TIP3   OH262973   6.653   5.226  15.038 -0.0473  0.0174 -0.2706
13853TIP3    H162974   6.701   5.156  14.994  0.0516  1.4677 -2.5998
13853TIP3    H262975   6.720   5.273  15.089 -0.1539 -1.6179  1.5031
13854TIP3   OH262976   4.468   3.096  16.557  0.2130  0.3246 -0.5441
13854TIP3    H162977   4.492   3.186  16.536 -1.2564  0.9590  0.2994
13854TIP3    H262978   4.379   3.086  16.523 -0.9672  0.3463  2.2397
13855TIP3   OH262979   1.103   2.182  11.925 -0.6817 -0.1781  0.2226
13855TIP3    H162980   1.027   2.124  11.931 -0.7203 -0.1345  0.1599
13855TIP3    H262981   1.179   2.122  11.928 -0.7423 -0.3960 -1.4744
13856TIP3   OH262982   6.025   4.160  15.800  0.0673  0.5425 -0.1842
13856TIP3    H162983   5.979   4.231  15.756 -0.5178  1.4685  1.8211
13856TIP3    H262984   6.076   4.203  15.869  0.8532 -0.8526  0.1430
13857TIP3   OH262985   1.513   6.447  15.400  0.1908  0.0991  0.2530
13857TIP3    H162986   1.504   6.354  15.420  0.1861  0.3699  1.5688
13857TIP3    H262987   1.448   6.463  15.332 -2.4920 -0.0927  2.6213
13858TIP3   OH262988   5.707   5.176  16.942 -0.1830  0.7310 -0.0270
13858TIP3    H162989   5.687   5.270  16.943 -3.5026  0.1293 -0.5357
13858TIP3    H262990   5.682   5.145  17.029  0.7241  0.2596  0.0751
13859TIP3   OH262991   1.132   2.822   1.477 -0.2652 -0.0519 -0.0176
13859TIP3    H162992   1.084   2.785   1.550 -1.3439  1.4403  0.0905
13859TIP3    H262993   1.221   2.834   1.509 -0.7301  0.6080  1.0848
13860TIP3   OH262994   2.295   0.591   3.747  0.4275 -0.3325 -0.1981
13860TIP3    H162995   2.285   0.544   3.664  0.2725 -1.3233  0.3696
13860TIP3    H262996   2.238   0.545   3.808  1.7193 -0.5816  0.8521
13861TIP3   OH262997   3.617   5.902  16.174  0.4587 -0.2219  0.4638
13861TIP3    H162998   3.535   5.897  16.223 -0.2809  0.0064 -0.6984
13861TIP3    H262999   3.663   5.977  16.210 -0.8311  0.9794 -0.2774
13862TIP3   OH263000   2.905   2.309   2.194  0.1221 -0.3178  0.6428
13862TIP3    H163001   2.877   2.396   2.166  0.0162  0.0620  1.8713
13862TIP3    H263002   2.827   2.271   2.235 -0.1384 -1.4184 -0.7765
13863TIP3   OH263003   0.263   2.507   3.171  0.2890  0.2108  0.4068
13863TIP3    H163004   0.196   2.443   3.194  1.3751 -0.4195  1.9750
13863TIP3    H263005   0.246   2.581   3.229 -0.9429  1.4169 -1.3772
13864TIP3   OH263006   4.138   1.879  14.116  0.2532 -0.2946  0.0549
13864TIP3    H163007   4.173   1.930  14.043 -0.2313 -1.0283 -0.7110
13864TIP3    H263008   4.167   1.790  14.098 -0.0101 -0.5070  0.6764
13865TIP3   OH263009   1.305   6.307   1.457 -0.4888  0.0362 -0.0355
13865TIP3    H163010   1.386   6.346   1.425 -0.4441  0.6966  0.8544
13865TIP3    H263011   1.319   6.213   1.452  0.2900  0.1501  0.0234
13866TIP3   OH263012   4.552   3.204   5.376  0.4902 -0.1141  0.3148
13866TIP3    H163013   4.593   3.211   5.462  1.6724  0.6721 -0.2885
13866TIP3    H263014   4.558   3.112   5.354  1.4609 -0.0971  0.4686
13867TIP3   OH263015   6.420   3.877   5.072  0.3907  0.1652  0.1926
13867TIP3    H163016   6.393   3.826   4.996 -0.0597 -0.5608  0.8273
13867TIP3    H263017   6.468   3.815   5.127  1.3091  0.8525  0.1946
13868TIP3   OH263018   4.240   1.409   4.016 -0.1527  0.6838 -0.4931
13868TIP3    H163019   4.279   1.496   4.024  0.6506  0.3791 -0.9771
13868TIP3    H263020   4.315   1.350   4.007 -0.6478 -0.1886  0.8424
13869TIP3   OH263021   6.609   3.613  13.941 -0.0648 -0.4180  0.1415
13869TIP3    H163022   6.633   3.651  13.856  1.3224  0.3685  0.8543
13869TIP3    H263023   6.562   3.532  13.919  0.6872 -0.4737 -1.3664
13870TIP3   OH263024   3.342   4.770  11.191 -0.2288 -0.3571 -0.6772
13870TIP3    H163025   3.320   4.834  11.123  0.0600  0.8903  0.3565
13870TIP3    H263026   3.258   4.744  11.227 -0.2905  0.9070  0.1632
13871TIP3   OH263027   5.263   5.780  15.998  0.1714 -0.4191 -0.0813
13871TIP3    H163028   5.174   5.775  16.031 -0.1819  0.8731 -0.7512
13871TIP3    H263029   5.303   5.851  16.048 -0.1575  1.0864 -1.8220
13872TIP3   OH263030   3.816   0.259  14.244 -0.3949  0.2967  0.5112
13872TIP3    H163031   3.834   0.177  14.197  1.1626  0.9170 -0.0566
13872TIP3    H263032   3.731   0.287  14.211 -1.9266 -2.0365  2.1543
13873TIP3   OH263033   6.752   1.760  16.572 -0.5336 -0.4013 -0.1510
13873TIP3    H163034   6.734   1.727  16.484  2.7820 -1.0700 -0.7208
13873TIP3    H263035   6.787   1.848  16.558 -1.1025 -0.0442  0.6151
13874TIP3   OH263036   2.475   5.833   2.152 -0.1768 -0.4238  0.6410
13874TIP3    H163037   2.428   5.763   2.108 -0.5668  0.9423 -1.1947
13874TIP3    H263038   2.413   5.905   2.156  1.3751  1.0857 -0.9524
13875TIP3   OH263039   0.185   4.621   3.647 -0.0688  0.0623 -0.6018
13875TIP3    H163040   0.136   4.624   3.730  0.8163 -0.0992 -0.0607
13875TIP3    H263041   0.126   4.576   3.587 -0.4614 -0.4200  0.1228
13876TIP3   OH263042   4.344   5.518   0.548  0.3114 -0.5099  0.3811
13876TIP3    H163043   4.252   5.493   0.557  0.2156 -0.3226 -0.0767
13876TIP3    H263044   4.341   5.608   0.514  0.6626 -0.4831  0.4205
13877TIP3   OH263045   3.383   5.479  13.041  0.3170 -0.1821  0.0676
13877TIP3    H163046   3.350   5.430  13.116 -3.2282 -0.4856 -1.4948
13877TIP3    H263047   3.403   5.412  12.975 -1.3222  0.2265 -0.8977
13878TIP3   OH263048   2.320   5.016   3.751  0.4860  0.4090 -0.3832
13878TIP3    H163049   2.376   5.079   3.797 -1.6312  0.8517  1.8170
13878TIP3    H263050   2.292   5.062   3.672  1.0482  1.2379 -0.1094
13879TIP3   OH263051   2.565   1.817  15.896  0.7795 -0.2742  0.1439
13879TIP3    H163052   2.620   1.754  15.942  0.7138  0.3399  1.0936
13879TIP3    H263053   2.523   1.766  15.826  2.0257 -0.8885 -0.1850
13880TIP3   OH263054   1.593   6.230   0.378 -0.4978  0.1442  0.5192
13880TIP3    H163055   1.630   6.317   0.394  0.2876  0.2088 -1.3859
13880TIP3    H263056   1.499   6.240   0.393 -0.7002  1.8538 -1.4573
13881TIP3   OH263057   5.702   6.413   1.782 -0.2818  0.3985  0.6517
13881TIP3    H163058   5.793   6.438   1.766  0.2232 -1.8047 -0.1912
13881TIP3    H263059   5.708   6.337   1.840 -1.5598 -0.0657  0.2107
13882TIP3   OH263060   1.284   4.703  14.502 -0.0410  0.0992  0.3216
13882TIP3    H163061   1.265   4.744  14.418  0.7152  0.6411  0.4041
13882TIP3    H263062   1.232   4.751  14.566  0.7770  0.8958  0.4069
13883TIP3   OH263063   3.398   4.743  13.698 -0.0835  0.4494 -0.2545
13883TIP3    H163064   3.388   4.683  13.624  0.6036 -0.9340  0.7319
13883TIP3    H263065   3.464   4.702  13.754  2.5637  3.5011 -0.8791
13884TIP3   OH263066   1.857   2.361   1.947 -0.0754 -0.2433  0.2386
13884TIP3    H163067   1.869   2.308   2.026 -0.5645 -0.2901  0.2830
13884TIP3    H263068   1.762   2.364   1.934 -0.1011  1.1800  0.6029
13885TIP3   OH263069   0.080   2.382   2.425 -0.1890  0.4901 -0.2242
13885TIP3    H163070   0.098   2.436   2.502  2.1352 -0.6564  0.1299
13885TIP3    H263071   0.050   2.298   2.459  1.0359 -0.0902 -0.5140
13886TIP3   OH263072   6.428   6.723   0.732 -0.7480  0.3919  0.5652
13886TIP3    H163073   6.370   6.668   0.785 -1.8189  1.0402  0.0918
13886TIP3    H263074   6.508   6.670   0.722 -0.8470 -0.0969  2.0711
13887TIP3   OH263075   6.116   1.420  16.835 -0.1179  0.5671  0.4175
13887TIP3    H163076   6.194   1.393  16.785 -0.5838  1.6373 -0.9502
13887TIP3    H263077   6.077   1.338  16.865 -0.8426 -0.3155 -2.5879
13888TIP3   OH263078   3.084   3.923  14.019 -0.1357  0.3904  0.4027
13888TIP3    H163079   3.080   3.875  14.101 -0.2262 -0.3406 -0.0199
13888TIP3    H263080   2.994   3.951  14.003 -0.3670 -0.6366 -0.1238
13889TIP3   OH263081   2.031   5.841   6.438 -0.2614 -0.0275 -0.2376
13889TIP3    H163082   2.003   5.755   6.471 -1.2347  0.6480  0.7977
13889TIP3    H263083   2.110   5.823   6.388 -0.8262 -1.6195 -0.6332
13890TIP3   OH263084   3.421   4.713  14.390  0.0712  0.2642 -0.2762
13890TIP3    H163085   3.454   4.623  14.390  0.6796  0.4743 -1.1586
13890TIP3    H263086   3.477   4.759  14.328 -0.7810  1.0551 -0.4826
13891TIP3   OH263087   5.691   2.127   4.640 -0.4817  0.4688  0.5321
13891TIP3    H163088   5.683   2.166   4.553  0.5055 -1.9923 -0.7344
13891TIP3    H263089   5.766   2.172   4.679 -1.1011  1.7844  0.2810
13892TIP3   OH263090   6.494   1.077  16.416 -0.1559  0.4630  0.0250
13892TIP3    H163091   6.483   1.139  16.343  1.4299 -2.3831 -2.8912
13892TIP3    H263092   6.510   0.993  16.374 -2.1001 -2.0450  3.7282
13893TIP3   OH263093   4.806   0.316   1.464  0.5045  0.3171 -0.0017
13893TIP3    H163094   4.711   0.330   1.466  0.5602  1.0074 -1.3990
13893TIP3    H263095   4.843   0.395   1.502  0.5729  0.8926 -1.2378
13894TIP3   OH263096   2.979   4.589  11.862  0.4667  0.3291  0.2690
13894TIP3    H163097   2.992   4.676  11.899  3.0695 -0.4617  1.4262
13894TIP3    H263098   2.915   4.547  11.919  1.0672  0.6639  1.2120
13895TIP3   OH263099   0.373   0.883   4.906  0.1613  0.4662 -0.6298
13895TIP3    H163100   0.364   0.869   4.811  3.5687  1.0544 -1.1937
13895TIP3    H263101   0.347   0.974   4.920 -3.6714 -0.5301 -0.2741
13896TIP3   OH263102   6.367   0.131  14.939  0.1583  0.3941 -0.4065
13896TIP3    H163103   6.408   0.140  14.853 -0.7864  0.0273 -0.9083
13896TIP3    H263104   6.313   0.210  14.948 -0.7512 -0.1802 -0.7178
13897TIP3   OH263105   3.566   4.265   1.444 -0.2222  0.0856 -0.0090
13897TIP3    H163106   3.513   4.343   1.433  0.9160  1.0658  1.2376
13897TIP3    H263107   3.650   4.287   1.403  0.2422 -0.3269  0.7059
13898TIP3   OH263108   3.984   5.240   1.010 -0.5690 -0.1757  0.2592
13898TIP3    H163109   3.971   5.221   1.103 -0.2688 -0.6536  0.2049
13898TIP3    H263110   3.896   5.260   0.978 -0.4502  1.9683  1.0629
13899TIP3   OH263111   6.561   2.465  13.089 -0.6540 -0.7594  0.0489
13899TIP3    H163112   6.597   2.491  13.174  0.6564 -1.2586 -0.3321
13899TIP3    H263113   6.580   2.372  13.082 -0.2837 -0.6199 -1.0046
13900TIP3   OH263114   4.794   6.259   3.504 -0.0253 -0.5252 -0.0871
13900TIP3    H163115   4.768   6.334   3.451 -3.7018 -0.2328  1.8360
13900TIP3    H263116   4.722   6.197   3.496 -0.2645 -0.9166  3.5985
13901TIP3   OH263117   5.483   6.608   5.425  0.5883 -0.1389  0.2148
13901TIP3    H163118   5.490   6.663   5.347  0.7827 -0.0017  0.3262
13901TIP3    H263119   5.403   6.637   5.469  0.4280 -0.2813  0.0176
13902TIP3   OH263120   1.800   3.351   1.891  0.6119 -0.2770 -0.4091
13902TIP3    H163121   1.868   3.404   1.849 -1.1248  2.6124  0.1176
13902TIP3    H263122   1.723   3.408   1.892 -0.6181 -1.7571  2.8907
13903TIP3   OH263123   4.379   4.101   1.480 -0.2056 -0.2524  0.3693
13903TIP3    H163124   4.464   4.065   1.503  0.8858  1.8744 -0.0789
13903TIP3    H263125   4.371   4.087   1.386 -0.1676 -0.1181  0.3453
13904TIP3   OH263126   1.870   3.166  12.551  0.6960 -0.3014 -0.0233
13904TIP3    H163127   1.931   3.093  12.549  2.6028  1.1726  0.9852
13904TIP3    H263128   1.884   3.212  12.468  2.2533  0.9700  0.8889
13905TIP3   OH263129   2.805   5.873  13.507 -0.1226  0.0269 -0.1342
13905TIP3    H163130   2.723   5.839  13.472  0.0712  0.5102 -1.0684
13905TIP3    H263131   2.873   5.837  13.449  0.3190 -0.2519  0.5424
13906TIP3   OH263132   1.027   6.240   4.641 -0.3621 -0.1475 -0.1736
13906TIP3    H163133   0.970   6.206   4.572 -1.3178 -1.0109  1.0117
13906TIP3    H263134   1.017   6.335   4.636  1.5060  0.0205 -2.8194
13907TIP3   OH263135   6.452   1.643   4.211  0.0556 -0.0038 -0.0324
13907TIP3    H163136   6.426   1.611   4.297  0.2651 -1.1735 -0.3770
13907TIP3    H263137   6.523   1.585   4.185  1.0162  1.2810 -0.3635
13908TIP3   OH263138   1.722   5.619   4.902  0.1629  0.1780 -0.0662
13908TIP3    H163139   1.726   5.619   4.806 -1.8806  0.1977 -0.1824
13908TIP3    H263140   1.766   5.700   4.928 -0.4480  0.8549 -1.0627
13909TIP3   OH263141   3.086   4.307  16.490  0.2344  0.0645 -0.2032
13909TIP3    H163142   3.165   4.261  16.519  0.2221  1.5275  2.5001
13909TIP3    H263143   3.081   4.384  16.547 -1.9543  1.2261 -1.8120
13910TIP3   OH263144   0.498   1.932  13.520 -0.3337  0.3427  0.0672
13910TIP3    H163145   0.448   1.993  13.575 -1.3460 -0.4222  0.0136
13910TIP3    H263146   0.502   1.975  13.435  0.0944  0.9269  0.3728
13911TIP3   OH263147   4.367   5.569  10.362  0.4248  0.0413 -0.4469
13911TIP3    H163148   4.452   5.543  10.398  1.5067  1.0060 -2.1551
13911TIP3    H263149   4.367   5.535  10.272 -1.4251 -0.7532 -0.1899
13912TIP3   OH263150   0.492   6.528   2.978  0.1179  0.4295  0.0642
13912TIP3    H163151   0.409   6.500   2.941  0.2564  0.1540 -0.0427
13912TIP3    H263152   0.524   6.596   2.918  0.2692  0.0913 -0.2444
13913TIP3   OH263153   3.522   3.216  13.125  0.2473 -0.1548  0.1613
13913TIP3    H163154   3.468   3.186  13.198 -2.0392  1.7606 -0.5847
13913TIP3    H263155   3.596   3.260  13.166 -0.4455 -0.0336  1.3208
13914TIP3   OH263156   4.300   0.878   4.129 -0.8548 -0.2357 -0.2019
13914TIP3    H163157   4.241   0.904   4.059 -1.2409  1.1029  0.5825
13914TIP3    H263158   4.379   0.848   4.083 -0.1847  2.7516 -1.2900
13915TIP3   OH263159   3.400   4.236   0.933 -0.7280  0.0819  0.4929
13915TIP3    H163160   3.426   4.149   0.963 -0.9539  0.0773  0.6776
13915TIP3    H263161   3.332   4.220   0.868  0.2983  0.0592 -0.5946
13916TIP3   OH263162   0.673   3.427  13.019 -0.2708 -0.4109 -0.0969
13916TIP3    H163163   0.605   3.494  13.009 -4.1588 -4.1389 -2.3197
13916TIP3    H263164   0.702   3.409  12.930  3.2407  0.4289  0.7368
13917TIP3   OH263165   1.517   0.403  17.155  0.0795  0.6807 -0.1930
13917TIP3    H163166   1.478   0.350  17.086  1.8187  0.0449 -0.7392
13917TIP3    H263167   1.457   0.394  17.229 -0.6584 -0.4791 -0.8983
13918TIP3   OH263168   4.105   1.423  16.478 -0.0372 -0.0776 -0.7282
13918TIP3    H163169   4.163   1.492  16.510 -0.7114  1.2233 -2.1438
13918TIP3    H263170   4.158   1.375  16.414  0.1711 -0.3202 -0.3730
13919TIP3   OH263171   3.782   4.390  12.978 -0.4873 -0.3174  0.4144
13919TIP3    H163172   3.842   4.331  12.933  0.2167 -0.6295  1.7092
13919TIP3    H263173   3.697   4.346  12.974  0.1028 -1.6651  1.7220
13920TIP3   OH263174   4.481   0.621  12.199 -0.4855 -0.1848  0.2169
13920TIP3    H163175   4.557   0.649  12.251  0.1482  1.5827 -1.5128
13920TIP3    H263176   4.499   0.655  12.111 -2.3830 -1.4398 -0.7160
13921TIP3   OH263177   5.307   3.619   1.936  0.6621  0.0165  0.1541
13921TIP3    H163178   5.323   3.627   1.842 -2.6168 -1.7258 -0.7125
13921TIP3    H263179   5.272   3.705   1.961 -0.7573 -0.2352 -0.8375
13922TIP3   OH263180   1.802   4.333   1.601 -0.1909 -0.2595 -0.2388
13922TIP3    H163181   1.727   4.392   1.597 -0.7273 -0.8441  0.8224
13922TIP3    H263182   1.862   4.366   1.533 -1.3825  0.2269 -1.0938
13923TIP3   OH263183   4.880   5.623  16.913  0.5711  0.0126 -0.7924
13923TIP3    H163184   4.873   5.614  16.818 -0.0218  0.9048 -0.8429
13923TIP3    H263185   4.793   5.600  16.946  0.8723 -0.6406 -0.4279
13924TIP3   OH263186   3.831   3.404  16.099  0.5006 -0.0152 -0.1897
13924TIP3    H163187   3.784   3.337  16.051  0.9782 -0.0870 -0.5596
13924TIP3    H263188   3.819   3.484  16.047 -1.8853  0.7486  1.2928
13925TIP3   OH263189   1.581   0.392  11.949 -0.4443  0.7083  0.8009
13925TIP3    H163190   1.618   0.327  11.888 -0.9572  0.3444  0.8761
13925TIP3    H263191   1.646   0.397  12.019  0.9880  2.3684 -0.5570
13926TIP3   OH263192   3.221   6.667   3.046 -1.0176 -0.2799 -0.1003
13926TIP3    H163193   3.186   6.705   2.965  0.7382 -0.2704 -0.8981
13926TIP3    H263194   3.313   6.652   3.027 -1.1220 -2.7899  0.9998
13927TIP3   OH263195   1.196   1.781  11.046  0.3492 -0.0885  0.3270
13927TIP3    H163196   1.282   1.764  11.008  0.3510  1.6169 -0.5098
13927TIP3    H263197   1.178   1.872  11.025 -1.1152 -0.0444  1.6039
13928TIP3   OH263198   1.198   3.682  17.141 -0.1602  0.1189  0.5107
13928TIP3    H163199   1.247   3.738  17.080 -0.7178 -0.0604 -0.1234
13928TIP3    H263200   1.112   3.724  17.146 -0.4542 -0.4634  0.3386
13929TIP3   OH263201   1.722   1.713   0.333  0.3369  0.5040  0.4375
13929TIP3    H163202   1.664   1.750   0.267 -1.1594  0.1308  1.4991
13929TIP3    H263203   1.711   1.770   0.409 -0.5362 -0.9464  1.4577
13930TIP3   OH263204   1.548   4.982   2.375  0.1292  0.4453 -0.3240
13930TIP3    H163205   1.569   5.001   2.284  1.8484 -0.1647 -0.0965
13930TIP3    H263206   1.531   4.888   2.377  1.5865  0.1612  0.1912
13931TIP3   OH263207   4.191   4.677   5.999  0.1450 -0.5009 -0.3585
13931TIP3    H163208   4.235   4.734   5.936 -0.2073  0.5287  0.2943
13931TIP3    H263209   4.261   4.625   6.038  0.3139 -1.4939 -1.9126
13932TIP3   OH263210   0.884   1.091  15.193  0.1637 -0.5981  0.2112
13932TIP3    H163211   0.803   1.077  15.242 -0.4725 -1.3072 -0.9934
13932TIP3    H263212   0.872   1.175  15.149 -0.7831 -1.6045 -1.5383
13933TIP3   OH263213   2.994   4.279   4.555  0.2666  0.2854 -0.3109
13933TIP3    H163214   2.972   4.195   4.594  1.9581 -1.2178 -2.3680
13933TIP3    H263215   2.987   4.342   4.628  2.0289 -2.1068  2.1483
13934TIP3   OH263216   2.761   2.168  14.439  0.2288 -0.5924 -0.2825
13934TIP3    H163217   2.703   2.162  14.363 -0.2428 -0.0152  0.0187
13934TIP3    H263218   2.760   2.080  14.477  1.5436 -1.2749 -1.6866
13935TIP3   OH263219   4.689   5.603  11.284 -0.2545 -0.2573  0.0617
13935TIP3    H163220   4.686   5.632  11.376 -0.1095 -1.0673  0.3281
13935TIP3    H263221   4.782   5.601  11.263 -0.2417 -0.9400  0.1791
13936TIP3   OH263222   6.272   5.737   1.991 -0.0191  0.0739  0.1805
13936TIP3    H163223   6.340   5.799   1.965 -0.7873  0.7213 -0.3514
13936TIP3    H263224   6.230   5.777   2.067  0.1932 -0.3252  0.5117
13937TIP3   OH263225   5.728   1.211   5.777  0.4638  0.4282 -0.5876
13937TIP3    H163226   5.740   1.129   5.728  0.3876  0.8018 -1.2429
13937TIP3    H263227   5.653   1.193   5.834  2.0935 -0.8666  1.2905
13938TIP3   OH263228   6.115   5.303  14.645 -0.0207  0.5363  0.1942
13938TIP3    H163229   6.021   5.311  14.627  0.4884  1.1372 -2.6617
13938TIP3    H263230   6.134   5.210  14.630  0.2040  0.8419 -1.7318
13939TIP3   OH263231   0.035   5.101  10.680  0.0753  0.3663  0.3529
13939TIP3    H163232  -0.043   5.133  10.635  0.4833  0.0709 -0.5823
13939TIP3    H263233   0.026   5.006  10.679  1.2787  0.2361 -1.3296
13940TIP3   OH263234   0.289   5.058   5.456 -0.0341  0.7269 -0.0061
13940TIP3    H163235   0.230   5.097   5.392  1.0628 -0.1160 -1.5963
13940TIP3    H263236   0.237   5.053   5.536 -2.4226 -0.7051 -1.4984
13941TIP3   OH263237   3.875   4.774  11.865 -0.0143 -0.2627 -0.1231
13941TIP3    H163238   3.816   4.833  11.911  0.6139 -0.0154  0.3970
13941TIP3    H263239   3.940   4.831  11.825 -0.9652 -0.4206 -1.9890
13942TIP3   OH263240   3.784   3.151  13.722 -0.2662 -0.1344 -0.0714
13942TIP3    H163241   3.857   3.193  13.677 -0.1038 -0.2632  0.0717
13942TIP3    H263242   3.822   3.119  13.804 -0.4761 -0.2284 -0.0111
13943TIP3   OH263243   3.994   5.401   4.267 -0.3218  0.1458 -0.1166
13943TIP3    H163244   4.020   5.399   4.175  0.2670  1.5292  0.0069
13943TIP3    H263245   3.908   5.358   4.268  0.9053 -2.5825 -0.8420
13944TIP3   OH263246   6.502   4.463  13.717 -0.1939 -0.1792  0.4257
13944TIP3    H163247   6.588   4.431  13.745  0.8719  2.2743  0.1458
13944TIP3    H263248   6.514   4.488  13.625 -1.4953 -0.6748  0.0954
13945TIP3   OH263249   6.134   3.598  15.188  0.3962 -0.5682 -0.6292
13945TIP3    H163250   6.089   3.604  15.104 -0.8988 -4.2397 -0.3719
13945TIP3    H263251   6.076   3.645  15.249  2.1859  3.6659 -1.8201
13946TIP3   OH263252   6.372   4.195  13.498 -0.2028 -0.3045 -0.6676
13946TIP3    H163253   6.414   4.201  13.584 -0.9849  0.9937 -0.3504
13946TIP3    H263254   6.433   4.144  13.445  1.6441  1.2224 -0.1327
13947TIP3   OH263255   6.395   5.732   5.350 -0.0721  0.4261  0.0486
13947TIP3    H163256   6.435   5.772   5.427 -0.6161 -0.3670  0.7557
13947TIP3    H263257   6.323   5.679   5.384  0.9665 -1.6472 -0.7879
13948TIP3   OH263258   1.114   4.065  11.642  0.3344  0.5863 -0.2513
13948TIP3    H163259   1.095   4.018  11.723  0.9748 -0.7385 -0.8353
13948TIP3    H263260   1.208   4.051  11.627  0.1098  0.2830 -1.5282
13949TIP3   OH263261   3.407   2.089  12.979 -0.7685 -0.2281  0.6052
13949TIP3    H163262   3.487   2.140  12.991 -0.5962 -0.3846  0.1370
13949TIP3    H263263   3.389   2.093  12.885 -1.2979 -0.2184  0.7001
13950TIP3   OH263264   0.108   0.014   3.445  0.3130 -0.1946 -0.5615
13950TIP3    H163265   0.013   0.018   3.459  0.4467  1.4043  0.1047
13950TIP3    H263266   0.128  -0.079   3.446 -1.0974 -0.5289  0.4558
13951TIP3   OH263267   0.210   6.102  15.823 -0.1927  0.4941  0.2356
13951TIP3    H163268   0.211   6.057  15.907  0.9198  0.9423  0.4790
13951TIP3    H263269   0.241   6.190  15.843 -0.1556  0.6795 -0.6117
13952TIP3   OH263270   2.475   1.338  12.166  0.1016  0.2891  0.4418
13952TIP3    H163271   2.394   1.342  12.116  0.1986  2.5032  0.3804
13952TIP3    H263272   2.449   1.358  12.256  0.4299 -0.1490  0.6374
13953TIP3   OH263273   0.842   6.451   2.355 -0.7706  1.1758 -0.2391
13953TIP3    H163274   0.799   6.394   2.418 -0.8142  3.3374  1.7969
13953TIP3    H263275   0.893   6.391   2.300  0.7037 -0.7302  2.9379
13954TIP3   OH263276   2.471   6.772  11.984  0.0821  0.2774 -0.2117
13954TIP3    H163277   2.421   6.854  11.989 -1.4669 -0.5902 -0.7703
13954TIP3    H263278   2.458   6.742  11.894 -2.3409 -2.3248  0.8664
13955TIP3   OH263279   3.993   3.634   3.447  0.1168 -0.4174  0.4231
13955TIP3    H163280   3.989   3.722   3.409 -0.2777 -0.7628 -0.3439
13955TIP3    H263281   3.912   3.592   3.419  0.0174 -0.8258  1.3001
13956TIP3   OH263282   0.489   1.127  13.591  0.0382  0.3177 -0.4453
13956TIP3    H163283   0.470   1.205  13.539  0.2899  0.6787  0.0023
13956TIP3    H263284   0.450   1.146  13.677  0.3474  0.0696 -0.2509
13957TIP3   OH263285   6.640   4.029  12.678  0.0690 -0.0914 -0.0614
13957TIP3    H163286   6.669   4.027  12.770  0.1207 -1.8264 -0.0801
13957TIP3    H263287   6.659   4.118  12.649 -1.4007  1.0377  2.0682
13958TIP3   OH263288   4.362   5.517   4.360 -0.2545 -0.6540  0.3877
13958TIP3    H163289   4.454   5.492   4.355 -0.4422 -1.3205  0.2228
13958TIP3    H263290   4.363   5.612   4.351  0.3492 -0.7346 -0.5165
13959TIP3   OH263291   2.748   6.740  13.097 -0.1502  0.2910 -0.3115
13959TIP3    H163292   2.701   6.718  13.017  1.1254  0.0832 -1.0214
13959TIP3    H263293   2.683   6.728  13.166 -0.8780 -0.9559 -1.1588
13960TIP3   OH263294   5.642   0.266  12.861  0.1129  0.4143 -0.0396
13960TIP3    H163295   5.733   0.293  12.857  0.5520 -0.8946  0.5082
13960TIP3    H263296   5.620   0.242  12.771  0.2637  0.8850 -0.2006
13961TIP3   OH263297   2.789   0.712  12.652 -0.9167  0.4889 -0.2034
13961TIP3    H163298   2.764   0.753  12.735 -0.2161  0.7396 -0.1155
13961TIP3    H263299   2.719   0.738  12.592  0.1147  2.8749 -0.4846
13962TIP3   OH263300   1.785   6.440  16.323 -0.1606 -0.8276 -0.4620
13962TIP3    H163301   1.798   6.349  16.298 -2.5822 -1.4454  0.2959
13962TIP3    H263302   1.690   6.452  16.324  0.0290  1.1254  1.4174
13963TIP3   OH263303   2.425   0.668  11.926 -0.7638 -0.1060  0.0628
13963TIP3    H163304   2.376   0.728  11.870 -0.6966 -0.5911 -0.5330
13963TIP3    H263305   2.514   0.672  11.893 -0.9541 -1.2925 -0.6695
13964TIP3   OH263306   0.642   6.286  14.890 -0.1137  0.3823  0.2677
13964TIP3    H163307   0.580   6.321  14.953  0.0178  0.5919  0.2814
13964TIP3    H263308   0.691   6.362  14.860 -0.7046  0.4123 -0.6756
13965TIP3   OH263309   5.690   0.592   1.778  0.1267 -0.2140 -0.6350
13965TIP3    H163310   5.612   0.538   1.790  0.2695 -1.1173 -3.2455
13965TIP3    H263311   5.685   0.622   1.687  3.1946 -0.9398 -1.1288
13966TIP3   OH263312   2.268   4.040   3.562 -0.3235  0.5471  0.2169
13966TIP3    H163313   2.219   3.975   3.613 -0.9361  0.8594  0.0418
13966TIP3    H263314   2.267   4.118   3.618 -3.4398  1.8087 -1.3502
13967TIP3   OH263315   4.440   0.406   4.927  0.0926 -0.2870 -0.6057
13967TIP3    H163316   4.508   0.460   4.967 -0.0983 -0.7596  0.4185
13967TIP3    H263317   4.487   0.335   4.884  0.2815 -0.3707 -0.2703
13968TIP3   OH263318   2.875   1.640   2.463  0.0922  0.4408 -0.3890
13968TIP3    H163319   2.871   1.551   2.427  0.4558  0.8785 -1.5415
13968TIP3    H263320   2.966   1.650   2.490 -0.1599  0.1436  0.6256
13969TIP3   OH263321   4.413   5.794  14.161 -0.5351 -0.0037 -0.1900
13969TIP3    H163322   4.385   5.808  14.252  0.5024  1.9739 -0.1217
13969TIP3    H263323   4.341   5.830  14.109 -0.5041  0.1520 -0.1261
13970TIP3   OH263324   0.784   6.589   5.373  0.4960 -0.5293  0.1068
13970TIP3    H163325   0.788   6.614   5.280 -0.2312 -1.4624 -0.1984
13970TIP3    H263326   0.698   6.617   5.402  0.3962 -0.9841  0.2634
13971TIP3   OH263327   4.170   5.570  12.541  0.1996 -0.3284 -0.5894
13971TIP3    H163328   4.119   5.490  12.550  2.0361 -1.5476 -0.5683
13971TIP3    H263329   4.161   5.595  12.449  0.3619 -1.0861 -0.8125
13972TIP3   OH263330   0.008   0.929   4.948  0.1103 -0.0866 -0.0315
13972TIP3    H163331   0.067   0.898   5.017 -0.0366 -1.8356 -0.6506
13972TIP3    H263332  -0.080   0.913   4.983  0.0353 -0.8944 -0.5697
13973TIP3   OH263333   0.495   2.042  16.347  0.3644 -0.8161 -0.2551
13973TIP3    H163334   0.491   2.070  16.256  1.8488  0.0557 -0.0786
13973TIP3    H263335   0.422   1.979  16.356  0.7280 -1.5963 -2.2556
13974TIP3   OH263336   6.475   6.655   0.162 -0.0131  0.7901 -0.7092
13974TIP3    H163337   6.386   6.667   0.128 -0.0173  0.3845 -0.8450
13974TIP3    H263338   6.481   6.717   0.235 -0.7651  0.1021 -0.0393
13975TIP3   OH263339   4.203   5.315   3.300 -0.3468 -0.2472 -0.0998
13975TIP3    H163340   4.147   5.335   3.375 -0.2870  1.3493 -0.4282
13975TIP3    H263341   4.265   5.388   3.297  2.2776 -2.3050  0.6831
13976TIP3   OH263342   5.130   2.190   5.079  0.6119 -0.2773 -0.6245
13976TIP3    H163343   5.171   2.204   5.164 -1.5189 -1.6799  0.7160
13976TIP3    H263344   5.193   2.137   5.030  2.4244  1.5961 -0.4658
13977TIP3   OH263345   0.855   0.904   4.549 -0.0418 -0.1709 -0.6249
13977TIP3    H163346   0.874   0.810   4.550 -2.3831 -0.7294  0.8143
13977TIP3    H263347   0.865   0.930   4.458  0.8776 -1.7517 -1.0171
13978TIP3   OH263348   5.858   1.072   0.648 -0.1354  0.1267 -0.6811
13978TIP3    H163349   5.811   1.152   0.628  0.5192  0.7242  0.1106
13978TIP3    H263350   5.839   1.055   0.741 -2.1585 -1.9283 -1.3687
13979TIP3   OH263351   4.213   0.011   4.589 -0.1404 -0.5823  0.3576
13979TIP3    H163352   4.168   0.065   4.654  0.7804  0.4570  0.1527
13979TIP3    H263353   4.168   0.031   4.507  0.0225 -0.3279  0.3287
13980TIP3   OH263354   6.192   2.590   2.419  0.0541  0.3000  0.0332
13980TIP3    H163355   6.097   2.592   2.402 -0.4007 -0.3905  2.1796
13980TIP3    H263356   6.218   2.500   2.401  0.6738  0.8521 -2.0875
13981TIP3   OH263357   6.194   1.314   6.191 -0.6207  0.4057 -0.1153
13981TIP3    H163358   6.155   1.328   6.277 -0.3297 -0.8802  0.2543
13981TIP3    H263359   6.131   1.259   6.144 -1.6523  2.5888 -1.4384
13982TIP3   OH263360   1.494   0.475   2.512 -0.2866 -0.2824  0.4752
13982TIP3    H163361   1.575   0.514   2.479  0.0762 -0.1952  1.4333
13982TIP3    H263362   1.453   0.437   2.434  0.8464 -0.6318  0.0157
13983TIP3   OH263363   1.030   0.456  11.910 -0.3137 -0.6618  0.9409
13983TIP3    H163364   1.102   0.463  11.847 -1.0480 -1.0752  0.0286
13983TIP3    H263365   1.072   0.462  11.996  0.8988 -1.6225  0.4444
13984TIP3   OH263366   4.368   2.137   5.576 -0.7085  0.1584  0.2079
13984TIP3    H163367   4.317   2.112   5.499 -0.8823 -0.5513  0.5402
13984TIP3    H263368   4.459   2.137   5.546 -0.8704  1.1323 -0.3120
13985TIP3   OH263369   5.228   4.882   5.253  0.0657  1.1620  0.3542
13985TIP3    H163370   5.313   4.893   5.210 -0.3920 -1.2618 -1.3250
13985TIP3    H263371   5.250   4.848   5.340  0.8519 -1.6781 -0.8563
13986TIP3   OH263372   5.704   3.690   0.271 -0.2897 -0.1762 -0.2263
13986TIP3    H163373   5.630   3.742   0.303  0.7194  1.2835 -0.1766
13986TIP3    H263374   5.777   3.752   0.264  0.6209 -1.3067 -1.4700
13987TIP3   OH263375   5.336   5.205  12.240 -0.0747 -0.0349  0.2735
13987TIP3    H163376   5.345   5.137  12.174 -0.9355 -1.4759  1.5668
13987TIP3    H263377   5.414   5.195  12.295 -0.4219 -0.3001  0.7287
13988TIP3   OH263378   1.154   1.871  12.267  0.6318 -0.1901 -0.0632
13988TIP3    H163379   1.191   1.804  12.324 -0.7028 -1.5681 -0.7606
13988TIP3    H263380   1.061   1.871  12.287  0.1087 -0.7735 -2.2561
13989TIP3   OH263381   4.894   1.035  13.761 -0.5597  0.4523  0.0682
13989TIP3    H163382   4.933   1.116  13.728 -1.1522  0.1181 -1.5325
13989TIP3    H263383   4.837   1.005  13.690  0.7431 -2.1423 -0.0006
13990TIP3   OH263384   5.376   0.825  14.673 -0.2207  0.2966 -0.6423
13990TIP3    H163385   5.336   0.754  14.724 -0.2346 -0.1575 -1.2764
13990TIP3    H263386   5.388   0.896  14.736  1.9712 -1.0663  0.6056
13991TIP3   OH263387   4.990   6.534  14.307 -0.1623 -0.6134  0.1914
13991TIP3    H163388   4.929   6.512  14.377 -0.3741  0.0643  0.2187
13991TIP3    H263389   4.935   6.552  14.231  0.0673 -1.3679 -0.1669
13992TIP3   OH263390   1.814   4.326   0.819  0.0683  0.8716 -0.2631
13992TIP3    H163391   1.909   4.320   0.830  0.0635  0.6052 -0.3648
13992TIP3    H263392   1.797   4.419   0.806  0.6523  0.6593 -3.3578
13993TIP3   OH263393   3.838   1.813   3.892  0.0504  0.0468  0.4054
13993TIP3    H163394   3.751   1.780   3.913 -0.2042  0.8687  0.6735
13993TIP3    H263395   3.840   1.901   3.928  0.3909  0.6886 -1.1024
13994TIP3   OH263396   1.727   2.095   4.180 -0.1081  0.4041  0.6112
13994TIP3    H163397   1.714   2.082   4.086  0.8946 -0.0360  0.5230
13994TIP3    H263398   1.815   2.132   4.188  0.2467 -0.5533  1.4343
13995TIP3   OH263399   0.498   1.973   3.802  0.0252  0.2010 -0.2924
13995TIP3    H163400   0.495   2.021   3.719  0.0860  0.5424 -0.0982
13995TIP3    H263401   0.425   1.912   3.796 -0.9733  1.3049  0.0469
13996TIP3   OH263402   2.311   1.601  14.161  0.1130  0.1064  0.0313
13996TIP3    H163403   2.386   1.583  14.217  0.3610  1.1139  0.0427
13996TIP3    H263404   2.330   1.553  14.080  0.8737  0.5046 -0.0417
13997TIP3   OH263405   3.470   0.594   3.986 -0.1570  0.1530  0.2816
13997TIP3    H163406   3.391   0.575   3.934 -0.1984  0.0612  0.3788
13997TIP3    H263407   3.541   0.550   3.938 -0.0860  0.6442 -0.0753
13998TIP3   OH263408   1.857   5.107  13.554 -0.6027 -0.5834 -0.0312
13998TIP3    H163409   1.941   5.081  13.590 -0.2910 -0.2418 -0.4995
13998TIP3    H263410   1.823   5.172  13.615 -0.4863 -0.6537  0.1083
13999TIP3   OH263411   0.679   6.759   1.467 -0.1301  0.0329 -0.2066
13999TIP3    H163412   0.653   6.720   1.384  0.5012  1.4599 -1.1052
13999TIP3    H263413   0.775   6.753   1.467 -0.1447 -0.3569  0.6390
14000TIP3   OH263414   0.871   4.019  16.304 -0.1085 -0.1938 -0.3158
14000TIP3    H163415   0.823   3.937  16.291  0.4487 -0.8347  1.3925
14000TIP3    H263416   0.856   4.041  16.396  0.4737  1.1671 -0.5262
14001TIP3   OH263417   0.823   3.414  14.433 -0.4969 -0.3639 -0.3060
14001TIP3    H163418   0.823   3.447  14.523  2.0762  0.3162 -0.4531
14001TIP3    H263419   0.881   3.338  14.435  1.7816  1.1891 -1.7492
14002TIP3   OH263420   1.986   4.243  12.766  0.4815 -0.4458 -0.0668
14002TIP3    H163421   1.937   4.276  12.840 -0.8920 -2.4460 -0.0082
14002TIP3    H263422   2.033   4.319  12.732 -1.9746  1.4030  0.4029
14003TIP3   OH263423   1.655   3.585   4.892  0.3576  0.5147  0.1985
14003TIP3    H163424   1.725   3.648   4.912  1.1393  0.5121 -2.1826
14003TIP3    H263425   1.575   3.637   4.890  0.6476  0.9838  0.6465
14004TIP3   OH263426   4.412   6.261  11.712 -1.0283  0.1218  0.4009
14004TIP3    H163427   4.377   6.349  11.723 -0.4427  0.4460 -0.2413
14004TIP3    H263428   4.335   6.206  11.702 -1.4133  0.9805 -2.1415
14005TIP3   OH263429   2.663   1.284   1.000  0.2637 -0.4035 -0.4515
14005TIP3    H163430   2.610   1.294   0.920  0.2221 -0.4944 -0.4356
14005TIP3    H263431   2.615   1.335   1.066 -1.3357 -2.6926  0.2874
14006TIP3   OH263432   5.207   0.807   1.479 -0.2576  0.5640 -0.2954
14006TIP3    H163433   5.244   0.866   1.414  0.5429  0.7186  0.2795
14006TIP3    H263434   5.113   0.824   1.478  0.1767  3.9037  1.8064
14007TIP3   OH263435   0.258   2.789  15.030  0.1250  0.2322  0.5569
14007TIP3    H163436   0.183   2.766  15.086  0.5903 -0.3508  0.9430
14007TIP3    H263437   0.293   2.705  15.001 -0.2993  0.5277 -0.8803
14008TIP3   OH263438   0.666   1.072   5.292  0.2329 -0.0034  0.1335
14008TIP3    H163439   0.722   1.011   5.244  1.7604  0.6312  1.0136
14008TIP3    H263440   0.648   1.028   5.375  2.2238  1.0835  1.2168
14009TIP3   OH263441   2.971   0.555  11.023 -0.1729 -0.7097 -0.8761
14009TIP3    H163442   2.884   0.544  10.984 -0.4259 -2.4418  0.0726
14009TIP3    H263443   2.960   0.626  11.086  0.0190  1.5024 -3.1810
14010TIP3   OH263444   1.945   5.806   5.574 -0.0239  0.5542 -0.8734
14010TIP3    H163445   1.989   5.869   5.631  1.9642  0.8561 -2.6097
14010TIP3    H263446   1.869   5.853   5.539 -1.1370  0.4374  1.2392
14011TIP3   OH263447   3.666   1.363   1.269 -0.3536 -0.6032 -0.0067
14011TIP3    H163448   3.682   1.395   1.358 -0.5831 -1.2601  0.2801
14011TIP3    H263449   3.571   1.358   1.262 -0.3471 -0.1288 -0.4496
14012TIP3   OH263450   0.926   2.523  12.885  0.2420 -0.3607  0.2095
14012TIP3    H163451   1.015   2.538  12.854  0.3348 -0.2365  0.5294
14012TIP3    H263452   0.875   2.506  12.806  0.1637  1.4966 -0.1785
14013TIP3   OH263453   0.010   0.840  16.357 -0.1523 -0.1590  0.1222
14013TIP3    H163454   0.076   0.903  16.383  1.0352 -1.6535  0.9179
14013TIP3    H263455  -0.014   0.864  16.268  0.2862  1.3566  0.3923
14014TIP3   OH263456   0.080   0.875   0.943  0.1194  0.0515  0.1913
14014TIP3    H163457   0.038   0.950   0.900  1.4492  0.3713 -0.5976
14014TIP3    H263458   0.088   0.902   1.035  1.5760  1.3810 -0.2785
14015TIP3   OH263459   6.575   3.591  10.446 -0.3653  0.2521 -0.0747
14015TIP3    H163460   6.616   3.661  10.496  1.0551 -1.4149  1.2269
14015TIP3    H263461   6.627   3.513  10.467 -2.3530 -1.3640 -0.8329
14016TIP3   OH263462   5.528   5.195  14.916  0.3361 -0.1617  0.3954
14016TIP3    H163463   5.517   5.101  14.907 -0.3493 -0.1992  1.4093
14016TIP3    H263464   5.618   5.206  14.947  0.7287 -0.4038 -0.6324
14017TIP3   OH263465   5.182   5.898   5.898  0.2294  0.3450 -0.0892
14017TIP3    H163466   5.244   5.900   5.971 -0.3256  0.8744  0.3842
14017TIP3    H263467   5.180   5.988   5.866  0.2386  0.1795 -0.5579
14018TIP3   OH263468   4.290   5.106  13.362  0.0419  0.1267  0.2531
14018TIP3    H163469   4.277   5.161  13.439 -2.4878 -0.1053  0.1050
14018TIP3    H263470   4.298   5.017  13.398 -0.6369  0.0784  0.3118
14019TIP3   OH263471   5.633   4.643  15.555  0.3456  0.5230  0.2732
14019TIP3    H163472   5.646   4.700  15.479 -0.5165  1.6213  0.9127
14019TIP3    H263473   5.574   4.574  15.524  0.2442  0.7931 -0.1460
14020TIP3   OH263474   3.540   6.706   4.092 -0.3237  0.5673  0.0824
14020TIP3    H163475   3.579   6.631   4.136 -0.1747  1.7871  2.1685
14020TIP3    H263476   3.590   6.781   4.125 -0.1108  1.5741 -2.3361
14021TIP3   OH263477   2.037   5.640   1.404  0.2276 -0.7285  0.5072
14021TIP3    H163478   2.078   5.669   1.323 -0.1034  2.5753  1.3745
14021TIP3    H263479   2.109   5.634   1.467 -0.0196  1.7388  1.1549
14022TIP3   OH263480   0.267   0.004  16.201 -0.3896  0.1909  0.0859
14022TIP3    H163481   0.222  -0.079  16.184  0.8503 -0.5814  0.3997
14022TIP3    H263482   0.204   0.072  16.175 -1.6650 -0.8313  0.3925
14023TIP3   OH263483   3.390   3.059   2.456  0.3620 -0.1438  0.0807
14023TIP3    H163484   3.451   2.995   2.421  0.7421  0.1928  0.1265
14023TIP3    H263485   3.426   3.143   2.431  0.0308  0.0637  0.2958
14024TIP3   OH263486   1.282   2.472   5.120 -0.4650  0.1745 -0.0813
14024TIP3    H163487   1.278   2.566   5.139 -1.2521  0.2675 -0.6429
14024TIP3    H263488   1.191   2.448   5.101 -0.0294 -0.3300 -1.6371
14025TIP3   OH263489   2.519   4.333   3.975 -0.2821  0.5925 -0.5193
14025TIP3    H163490   2.549   4.242   3.977  0.2117  0.7370 -1.2555
14025TIP3    H263491   2.558   4.370   3.896 -0.1491  1.5604 -0.0147
14026TIP3   OH263492   6.136   1.404   3.777  0.1063 -0.0584  0.1922
14026TIP3    H163493   6.122   1.440   3.865  0.2249 -2.2537  1.1830
14026TIP3    H263494   6.049   1.378   3.747 -0.1205  1.8270 -0.9293
14027TIP3   OH263495   3.783   3.568  15.476 -0.3373  0.1073  0.2668
14027TIP3    H163496   3.798   3.495  15.415 -0.5077  0.8798 -0.7274
14027TIP3    H263497   3.862   3.570  15.531 -1.1243 -1.9881  1.5899
14028TIP3   OH263498   5.924   5.894   1.300 -0.3012  0.4259  0.2116
14028TIP3    H163499   5.894   5.912   1.389  0.2902 -0.6956  0.6624
14028TIP3    H263500   5.992   5.959   1.283 -0.5183  0.7344  0.5224
14029TIP3   OH263501   3.439   2.833  17.186 -0.1129  0.1810 -0.1064
14029TIP3    H163502   3.505   2.892  17.223 -0.6862 -0.2385  1.6700
14029TIP3    H263503   3.418   2.772  17.257 -0.0393 -1.7594 -1.6664
14030TIP3   OH263504   0.956   3.577   1.882  0.1368  0.6077 -0.8087
14030TIP3    H163505   1.010   3.535   1.815 -0.7443 -0.3675 -0.9302
14030TIP3    H263506   0.892   3.510   1.907  2.1161 -0.1299  3.0478
14031TIP3   OH263507   0.288   1.907   4.723  0.2785 -0.2600  0.2522
14031TIP3    H163508   0.328   1.918   4.809  0.4279 -0.4016  0.2023
14031TIP3    H263509   0.240   1.824   4.730  2.0672 -1.4302 -0.4615
14032TIP3   OH263510   3.436   2.165   0.926  0.3400  0.5739  0.1514
14032TIP3    H163511   3.428   2.071   0.909  0.0072  0.5690  0.3310
14032TIP3    H263512   3.347   2.194   0.946  0.1348  1.2981 -1.7026
14033TIP3   OH263513   1.354   2.774   4.011  0.1837 -0.2388  0.3440
14033TIP3    H163514   1.390   2.729   3.934  1.9530 -0.4242  1.2193
14033TIP3    H263515   1.260   2.775   3.997  0.2628 -2.3612 -0.7054
14034TIP3   OH263516   4.000   6.333   1.615  0.0596  0.6989  0.1096
14034TIP3    H163517   3.911   6.369   1.611 -0.3973 -0.3391  0.4605
14034TIP3    H263518   4.042   6.381   1.686 -0.4877  0.6464  0.4795
14035TIP3   OH263519   4.297   1.385   5.448 -0.0316  0.5375 -0.1340
14035TIP3    H163520   4.376   1.348   5.487  0.4584 -0.0885 -1.6478
14035TIP3    H263521   4.226   1.353   5.503  0.5339 -1.2904 -0.3974
14036TIP3   OH263522   1.171   6.368  14.440  0.3444  0.0979  0.1142
14036TIP3    H163523   1.224   6.382  14.519 -0.6280 -0.4909  0.8930
14036TIP3    H263524   1.236   6.355  14.370  1.2240  0.5356  0.8167
14037TIP3   OH263525   2.337   2.543  11.526 -0.1468 -0.4401 -0.2417
14037TIP3    H163526   2.251   2.516  11.557 -0.5438 -0.5220 -1.3982
14037TIP3    H263527   2.369   2.469  11.475  0.3120 -0.1304 -0.4125
14038TIP3   OH263528   3.385   6.385  11.836 -0.3872 -0.6387 -0.3165
14038TIP3    H163529   3.378   6.346  11.749  1.8027  0.1676 -0.8958
14038TIP3    H263530   3.410   6.312  11.893 -0.2382 -0.8522 -0.6530
14039TIP3   OH263531   0.644   1.058  15.313 -0.3878  0.4913 -0.5511
14039TIP3    H163532   0.573   1.019  15.262  0.8634 -0.4896 -1.6092
14039TIP3    H263533   0.605   1.074  15.399 -2.0866  0.6704 -1.3042
14040TIP3   OH263534   4.034   6.043   4.204  0.9149 -0.0826 -0.1612
14040TIP3    H163535   3.938   6.043   4.212  0.9214 -0.7435 -0.0249
14040TIP3    H263536   4.056   5.953   4.180  1.6032 -0.2939  1.1486
14041TIP3   OH263537   0.182   2.505  15.039 -0.0644 -0.3658  0.7747
14041TIP3    H163538   0.097   2.546  15.022  0.8425  1.4544  0.2639
14041TIP3    H263539   0.221   2.494  14.952 -0.6196 -3.3063  0.8034
14042TIP3   OH263540   3.313   6.261   5.839 -0.0288 -0.0780  0.0109
14042TIP3    H163541   3.318   6.355   5.859  1.4567 -0.0349 -0.4852
14042TIP3    H263542   3.403   6.230   5.845 -0.6517 -1.7798  1.5231
14043TIP3   OH263543   2.393   1.719  15.011 -0.6140 -0.4892  0.1969
14043TIP3    H163544   2.456   1.676  15.068 -0.4969 -0.1034  0.3607
14043TIP3    H263545   2.445   1.777  14.956 -0.6595 -1.2941 -0.7118
14044TIP3   OH263546   2.215   0.161  15.341  0.3199 -0.2849  0.6084
14044TIP3    H163547   2.204   0.180  15.434  1.9401  2.5704  0.3593
14044TIP3    H263548   2.184   0.240  15.297  2.5869 -0.1905 -1.0125
14045TIP3   OH263549   5.850   2.152  14.108  0.8805  0.7693 -0.8581
14045TIP3    H163550   5.775   2.194  14.149  1.5200 -0.0310  1.2541
14045TIP3    H263551   5.825   2.060  14.098  2.3695 -0.1231  2.2909
14046TIP3   OH263552   6.287   5.699  15.904  0.2096  0.0030 -0.4616
14046TIP3    H163553   6.355   5.720  15.967 -0.6624 -0.1580  0.5693
14046TIP3    H263554   6.213   5.671  15.957 -0.1730 -1.2778 -1.6148
14047TIP3   OH263555   5.803   1.872   4.537 -0.2586 -0.1334  0.0180
14047TIP3    H163556   5.777   1.964   4.544 -0.6854 -0.2346 -0.1718
14047TIP3    H263557   5.891   1.868   4.575 -0.1749  0.3809 -0.1246
14048TIP3   OH263558   3.198   0.576  11.987  0.4726  0.3425  0.0321
14048TIP3    H163559   3.123   0.526  12.019  0.4747  0.7655  0.7062
14048TIP3    H263560   3.227   0.628  12.062  1.7502 -0.1758 -0.0608
14049TIP3   OH263561   5.585   5.790  16.319  0.1169  0.1900  0.2636
14049TIP3    H163562   5.513   5.836  16.363 -1.4137 -1.8200 -0.0342
14049TIP3    H263563   5.554   5.701  16.308  2.2014 -0.4457 -1.0079
14050TIP3   OH263564   3.779   4.756   2.988  0.2748  0.8336  0.0092
14050TIP3    H163565   3.755   4.847   3.003  1.2657  0.8816  1.5102
14050TIP3    H263566   3.742   4.709   3.062  0.4702  0.1367 -0.3245
14051TIP3   OH263567   6.367   1.461   2.613 -0.4259  0.4380 -0.4438
14051TIP3    H163568   6.369   1.471   2.708 -1.3978  0.1439 -0.3774
14051TIP3    H263569   6.305   1.389   2.597  2.1132 -1.7452 -1.1592
14052TIP3   OH263570   2.368   5.551  12.938  0.1401 -0.8162 -0.3332
14052TIP3    H163571   2.434   5.564  12.869  0.7451 -0.7962  0.2428
14052TIP3    H263572   2.372   5.457  12.958  0.6650 -0.6509  0.3620
14053TIP3   OH263573   5.150   1.630  16.669  0.5446  0.2472  0.9743
14053TIP3    H163574   5.216   1.627  16.738  0.6301  1.3436  0.9589
14053TIP3    H263575   5.144   1.722  16.645  1.9590 -0.2880 -1.8811
14054TIP3   OH263576   0.465   0.974  16.953 -0.0990  0.8900  0.1759
14054TIP3    H163577   0.389   1.032  16.948 -0.3482  0.5628  0.1219
14054TIP3    H263578   0.439   0.905  17.013 -0.5565 -0.2480 -1.2547
14055TIP3   OH263579   1.913   2.245  11.744  0.0240  0.2899 -0.9008
14055TIP3    H163580   1.863   2.190  11.684 -1.5100  0.6011  0.0401
14055TIP3    H263581   1.850   2.271  11.811  1.2768  1.3251 -0.0745
14056TIP3   OH263582   2.814   1.195   2.814 -0.1474 -0.1164 -0.4670
14056TIP3    H163583   2.893   1.211   2.762  0.7273 -2.7255 -0.0994
14056TIP3    H263584   2.751   1.261   2.784  1.4269  0.5882 -2.4066
14057TIP3   OH263585   1.969   4.034  16.025 -0.5203 -0.5599 -0.1864
14057TIP3    H163586   1.969   3.952  15.976 -0.5217 -0.5339 -0.2302
14057TIP3    H263587   2.041   4.084  15.987 -2.6262  0.8976 -2.5537
14058TIP3   OH263588   0.726   4.595  12.655  0.5704  0.2930 -0.3939
14058TIP3    H163589   0.765   4.610  12.569  2.0620  1.6990  0.4772
14058TIP3    H263590   0.724   4.681  12.696  0.1362 -0.3901  1.0841
14059TIP3   OH263591   0.185   6.739  15.024 -0.1900 -0.1211  0.6825
14059TIP3    H163592   0.237   6.768  14.950  2.2582 -1.4822  1.7534
14059TIP3    H263593   0.103   6.709  14.985 -0.4087  2.3983 -1.0303
14060TIP3   OH263594   5.384   2.701  12.272  0.3281 -0.3586  0.4135
14060TIP3    H163595   5.303   2.657  12.246 -0.0437  0.0150  0.9174
14060TIP3    H263596   5.407   2.660  12.356  1.0230 -0.9258 -0.0521
14061TIP3   OH263597   5.683   4.333  11.330 -0.5654 -0.1411  0.3520
14061TIP3    H163598   5.714   4.404  11.387  0.4615 -0.4970  0.2687
14061TIP3    H263599   5.664   4.375  11.247 -0.1975  0.0836  0.3783
14062TIP3   OH263600   1.881   6.498  14.739 -0.0137  0.0382  0.0831
14062TIP3    H163601   1.964   6.537  14.767 -0.1647  1.3061 -1.1354
14062TIP3    H263602   1.875   6.518  14.646 -2.5627  1.6602  0.4942
14063TIP3   OH263603   6.129   3.300  12.535  0.3866 -0.3220  0.3997
14063TIP3    H163604   6.068   3.242  12.490  1.4368 -0.8444 -0.3824
14063TIP3    H263605   6.108   3.289  12.628 -1.9637  0.9425  0.1204
14064TIP3   OH263606   0.333   5.083  17.206 -0.1478  0.3261  0.5094
14064TIP3    H163607   0.348   5.001  17.253  0.4519 -0.8021 -1.5319
14064TIP3    H263608   0.416   5.131  17.214  0.4064 -0.4392 -0.4272
14065TIP3   OH263609   5.848   4.788  13.252  0.3468 -0.1786  0.2881
14065TIP3    H163610   5.900   4.835  13.317  1.1666 -0.3264 -0.2328
14065TIP3    H263611   5.911   4.727  13.212 -0.3900 -0.8189  0.0821
14066TIP3   OH263612   5.731   2.220  11.562 -0.1911 -0.5577 -0.0862
14066TIP3    H163613   5.753   2.302  11.517  0.0283 -0.5002  0.1228
14066TIP3    H263614   5.638   2.208  11.545  0.1403 -1.1908 -1.6309
14067TIP3   OH263615   2.968   6.365  13.031 -0.0831  0.2425  0.4247
14067TIP3    H163616   2.953   6.443  13.085  0.6110  0.2323  0.6369
14067TIP3    H263617   3.048   6.384  12.982 -0.7122  0.2604 -0.6411
14068TIP3   OH263618   0.985   3.084  17.224 -0.1943  0.2273 -0.5857
14068TIP3    H163619   0.914   3.146  17.206 -0.2004  0.3706 -0.0872
14068TIP3    H263620   0.949   3.027  17.292  0.2424  0.4359 -0.1753
14069TIP3   OH263621   0.912   4.102  15.207  0.0001 -0.3461 -0.5293
14069TIP3    H163622   0.958   4.127  15.126 -0.5126 -0.3995 -0.8375
14069TIP3    H263623   0.887   4.185  15.247  0.1179 -0.3233 -0.5006
14070TIP3   OH263624   5.362   1.123  12.157  0.2627  0.3487 -0.6258
14070TIP3    H163625   5.293   1.097  12.097 -0.5257  0.6765  0.1134
14070TIP3    H263626   5.318   1.133  12.242  1.5075 -1.0831  0.2456
14071TIP3   OH263627   1.998   1.157  13.947  0.0125 -0.3522  0.1161
14071TIP3    H163628   1.922   1.118  13.991 -1.1022  1.6628  0.0640
14071TIP3    H263629   2.043   1.206  14.016  1.7954 -2.1714  0.3425
14072TIP3   OH263630   5.561   5.336   3.170 -0.9503 -0.6591 -0.2127
14072TIP3    H163631   5.493   5.316   3.235 -1.5284  1.4253 -0.1127
14072TIP3    H263632   5.512   5.356   3.091 -0.3360 -0.9620 -0.6750
14073TIP3   OH263633   4.212   5.461  14.405 -0.4103 -0.4914  0.4003
14073TIP3    H163634   4.151   5.396  14.371  0.0198 -0.9064  0.4114
14073TIP3    H263635   4.186   5.543  14.362  0.0881 -0.9928 -0.8897
14074TIP3   OH263636   6.574   1.871  14.923  0.2511  0.3198 -0.2786
14074TIP3    H163637   6.558   1.905  14.835 -2.1246 -0.0855 -0.0592
14074TIP3    H263638   6.652   1.917  14.953  0.8195  0.8152 -2.4063
14075TIP3   OH263639   5.893   2.004   3.086 -0.1112 -0.0523  0.1723
14075TIP3    H163640   5.856   2.029   3.170  0.5606  0.8081  0.2287
14075TIP3    H263641   5.820   2.012   3.024 -0.8492 -1.5752  0.7918
14076TIP3   OH263642   6.296   6.571   3.246  0.1941 -0.0959 -0.2449
14076TIP3    H163643   6.217   6.523   3.223  0.6548 -1.2141  0.4149
14076TIP3    H263644   6.326   6.608   3.164 -1.7212  1.4960 -0.3049
14077TIP3   OH263645   4.535   1.033  16.720 -0.1038  0.0806 -0.0988
14077TIP3    H163646   4.594   0.957  16.719  0.4469  0.5063 -0.1345
14077TIP3    H263647   4.458   1.004  16.671 -0.4767 -0.9139  1.0074
14078TIP3   OH263648   4.534   0.053   6.103 -0.1150  0.8166  0.3530
14078TIP3    H163649   4.470   0.007   6.158  0.7021  0.5081  1.0752
14078TIP3    H263650   4.589   0.099   6.166 -1.2032  3.2312 -0.3561
14079TIP3   OH263651   4.643   5.588  15.023  0.5436  0.6156  0.3758
14079TIP3    H163652   4.648   5.571  15.117 -0.8865 -1.0953  0.1995
14079TIP3    H263653   4.676   5.507  14.982 -1.3556  0.2515 -0.5491
14080TIP3   OH263654   3.329   1.864  13.285  0.2427  0.1442 -0.1068
14080TIP3    H163655   3.300   1.773  13.291 -2.4599  0.8404 -0.9723
14080TIP3    H263656   3.279   1.909  13.352  0.1516  1.2673 -0.9008
14081TIP3   OH263657   6.263   1.771   5.632  0.0618  0.0279  0.4829
14081TIP3    H163658   6.353   1.754   5.604 -0.8264 -0.2256 -2.6248
14081TIP3    H263659   6.237   1.693   5.679  0.9080 -0.6826 -0.1854
14082TIP3   OH263660   5.225   6.398  11.826  0.3342 -0.3919 -0.2389
14082TIP3    H163661   5.290   6.342  11.868 -0.3437 -1.5134 -0.6381
14082TIP3    H263662   5.271   6.439  11.753  0.7682 -0.6396 -0.1038
14083TIP3   OH263663   1.838   2.264   3.518 -0.0337 -0.0050 -0.1387
14083TIP3    H163664   1.758   2.312   3.497  0.5978  1.2834  0.2928
14083TIP3    H263665   1.809   2.174   3.532 -1.4235  0.4583  0.1321
14084TIP3   OH263666   0.912   4.001   3.549  0.5186 -0.0344 -0.3997
14084TIP3    H163667   0.878   4.084   3.582 -1.2917 -0.1493 -1.7968
14084TIP3    H263668   0.856   3.934   3.589 -0.3130 -0.3079 -1.9251
14085TIP3   OH263669   5.021   0.743  15.695  0.0103 -0.1256 -0.6501
14085TIP3    H163670   4.985   0.662  15.731  0.6671 -0.0274  0.2407
14085TIP3    H263671   5.073   0.781  15.766  0.3648  0.6737 -1.3155
14086TIP3   OH263672   1.748   5.268  14.367 -0.8319 -0.9203  0.2285
14086TIP3    H163673   1.741   5.209  14.442  0.3655  0.9188  1.8868
14086TIP3    H263674   1.659   5.274  14.332 -2.1911  0.6819  3.5725
14087TIP3   OH263675   0.690   2.145  15.196  0.2998  0.1366 -0.1652
14087TIP3    H163676   0.625   2.078  15.176  1.1575 -0.5885 -0.5594
14087TIP3    H263677   0.651   2.195  15.269 -0.5191 -0.5236 -0.1375
14088TIP3   OH263678   1.994   0.178  11.691 -0.1377 -0.5572  0.5243
14088TIP3    H163679   2.004   0.163  11.785 -0.9775  0.8285  0.8592
14088TIP3    H263680   2.021   0.269  11.678 -0.7458 -0.5023 -0.4580
14089TIP3   OH263681   0.414   5.288   3.436  0.1488  0.1211 -0.2549
14089TIP3    H163682   0.330   5.320   3.404 -0.0144  0.1771  0.2128
14089TIP3    H263683   0.425   5.203   3.395  1.2361  1.3108 -2.6281
14090TIP3   OH263684   5.895   1.446   0.096 -0.0829 -0.7150 -0.1840
14090TIP3    H163685   5.979   1.449   0.141 -0.1031  1.5627 -0.2129
14090TIP3    H263686   5.912   1.483   0.009 -0.9600 -0.9788 -0.4859
14091TIP3   OH263687   0.838   6.361  16.603 -1.0508  0.0202  0.1091
14091TIP3    H163688   0.914   6.327  16.652 -0.6228  0.1526 -0.4496
14091TIP3    H263689   0.771   6.376  16.670 -1.2511 -1.8967  0.3999
14092TIP3   OH263690   1.880   4.756   1.090  0.2074 -0.9358 -0.1499
14092TIP3    H163691   1.948   4.750   1.157 -0.5102 -0.8539  0.6037
14092TIP3    H263692   1.912   4.700   1.019  1.1015 -0.8218  0.1479
14093TIP3   OH263693   5.840   6.441  13.284 -0.3617  0.0997  0.2106
14093TIP3    H163694   5.859   6.410  13.373 -2.4226  2.5327  1.6463
14093TIP3    H263695   5.882   6.526  13.279 -0.2350 -0.0228 -1.2157
14094TIP3   OH263696   2.253   3.859   0.856 -0.0120 -0.2259  0.3755
14094TIP3    H163697   2.312   3.890   0.925  2.5031 -0.6027 -1.4466
14094TIP3    H263698   2.306   3.862   0.776 -2.1704 -1.6254 -1.2318
14095TIP3   OH263699   4.794   0.039  17.098 -0.3118  0.1370 -0.0469
14095TIP3    H163700   4.780   0.042  17.003 -0.7187 -0.4317 -0.0109
14095TIP3    H263701   4.841  -0.043  17.112 -1.1742 -0.3005  0.3502
14096TIP3   OH263702   1.206   2.263  13.760  0.2044 -0.3391 -0.0019
14096TIP3    H163703   1.128   2.252  13.705 -0.2894  1.7543  0.1835
14096TIP3    H263704   1.263   2.321  13.710 -0.5807  2.2506  1.8671
14097TIP3   OH263705   1.836   3.027  14.079  0.0664  0.0443  0.1544
14097TIP3    H163706   1.854   3.001  14.169  1.4493  1.2512  0.2595
14097TIP3    H263707   1.913   2.998  14.030  0.2945  1.2753 -0.2478
14098TIP3   OH263708   0.607   4.521   1.007  0.0508 -0.2035  0.0665
14098TIP3    H163709   0.571   4.504   0.919  0.8151 -0.2672 -0.2432
14098TIP3    H263710   0.702   4.514   0.995  0.2063  0.6705  0.7121
14099TIP3   OH263711   0.424   1.886   1.487 -0.3285  0.4702 -0.3026
14099TIP3    H163712   0.450   1.829   1.415  0.4630 -1.8756  1.6679
14099TIP3    H263713   0.501   1.888   1.545 -0.9586  2.1615  0.5513
14100TIP3   OH263714   0.514   3.650   4.956 -0.8441 -0.1040 -0.5848
14100TIP3    H163715   0.422   3.656   4.932 -1.2553 -2.4907  0.1324
14100TIP3    H263716   0.521   3.569   5.006  1.3313  0.8783  0.9041
14101TIP3   OH263717   2.658   1.490  11.817  0.8528  0.2497 -0.4175
14101TIP3    H163718   2.650   1.459  11.727  1.1522 -0.4704 -0.2043
14101TIP3    H263719   2.729   1.438  11.855 -1.1207 -1.5240  1.0808
14102TIP3   OH263720   0.916   2.348  15.180  0.0453  0.1881  0.3711
14102TIP3    H163721   0.915   2.270  15.235  0.3525 -0.9944 -1.2312
14102TIP3    H263722   0.950   2.417  15.236  1.6610 -1.2717  1.2601
14103TIP3   OH263723   0.642   6.311   6.142 -0.1943 -0.2108 -0.4778
14103TIP3    H163724   0.547   6.319   6.130 -0.0572 -1.3479 -2.7806
14103TIP3    H263725   0.652   6.292   6.235 -2.2100  0.1104 -0.1379
14104TIP3   OH263726   5.204   0.826  15.356  0.5814  0.0443 -0.7503
14104TIP3    H163727   5.285   0.878  15.357 -0.8430  2.4657  1.3897
14104TIP3    H263728   5.212   0.767  15.430  0.7464 -0.3793 -1.0995
14105TIP3   OH263729   6.432   1.078  13.408  0.5343  0.2355 -0.4275
14105TIP3    H163730   6.363   1.135  13.444  1.2048  1.2328 -0.6688
14105TIP3    H263731   6.498   1.075  13.477 -0.2529 -1.7022  0.2933
14106TIP3   OH263732   3.992   6.132  13.947 -0.5127  0.4874  0.1817
14106TIP3    H163733   4.066   6.181  13.912 -0.0660 -0.8092 -0.7843
14106TIP3    H263734   3.920   6.150  13.888 -0.4126  0.1950 -0.0350
14107TIP3   OH263735   4.272   3.159   3.449 -0.2765  0.1901  0.3159
14107TIP3    H163736   4.291   3.093   3.382 -3.7492 -1.8596  1.1001
14107TIP3    H263737   4.327   3.133   3.523 -3.0810 -3.5571  1.4295
14108TIP3   OH263738   2.222   1.168  10.691 -0.4124 -0.3447  0.2548
14108TIP3    H163739   2.134   1.177  10.728 -0.6814  2.9806 -0.9054
14108TIP3    H263740   2.222   1.225  10.615  2.8890  0.0661  0.4506
14109TIP3   OH263741   6.370   6.706  14.268 -0.4910  0.5540  0.0912
14109TIP3    H163742   6.336   6.729  14.182 -1.4012 -1.5317 -0.1730
14109TIP3    H263743   6.303   6.736  14.329  0.9651  3.6829  0.3321
14110TIP3   OH263744   0.525   3.161   5.461  0.5230 -0.1052  0.2046
14110TIP3    H163745   0.539   3.117   5.377  0.5322 -0.8061  0.5728
14110TIP3    H263746   0.490   3.094   5.519  1.7264  0.0348  1.1348
14111TIP3   OH263747   4.846   1.167  17.009  0.2597  0.0581  0.0198
14111TIP3    H163748   4.802   1.154  16.925  0.5493 -1.7635  0.0993
14111TIP3    H263749   4.937   1.183  16.987  0.0120  1.5147 -0.0535
14112TIP3   OH263750   5.923   4.918   1.938  0.1299 -0.0095 -0.5653
14112TIP3    H163751   6.014   4.888   1.941 -0.4852 -1.8956  1.4823
14112TIP3    H263752   5.915   4.975   2.015 -0.7305 -0.9557  0.0683
14113TIP3   OH263753   6.359   5.924  12.713  0.4447 -0.2047 -0.0840
14113TIP3    H163754   6.310   5.851  12.750 -0.3215  0.3835  0.1069
14113TIP3    H263755   6.450   5.895  12.714  0.3014 -0.6883  1.1273
14114TIP3   OH263756   3.296   2.133   2.725  0.4918 -0.3096 -0.4232
14114TIP3    H163757   3.349   2.140   2.804  1.3909  1.2851 -1.1199
14114TIP3    H263758   3.275   2.224   2.703 -0.8793 -0.8061 -1.2759
14115TIP3   OH263759   3.660   0.107  15.595 -0.1610  0.6714 -0.6216
14115TIP3    H163760   3.658   0.043  15.524 -1.1309 -0.2722  0.2136
14115TIP3    H263761   3.701   0.061  15.668 -0.3635  1.1799 -0.1783
14116TIP3   OH263762   3.135   2.200   3.803 -0.0861 -0.0824  0.0231
14116TIP3    H163763   3.055   2.233   3.844 -0.6341 -1.0588 -0.2463
14116TIP3    H263764   3.172   2.140   3.868  0.7745  0.8336  0.4065
14117TIP3   OH263765   5.916   6.362   2.916 -0.5911 -0.1751  0.0820
14117TIP3    H163766   5.862   6.319   2.850 -0.4253  0.4592 -0.4767
14117TIP3    H263767   5.858   6.376   2.990 -0.4952 -1.8965  0.5130
14118TIP3   OH263768   4.789   0.467  14.858 -0.1167  0.3919 -0.1346
14118TIP3    H163769   4.870   0.456  14.809  0.3331 -1.3383  0.9174
14118TIP3    H263770   4.816   0.500  14.943 -0.7936  2.3313 -0.6321
14119TIP3   OH263771   1.767   5.611  12.619 -0.0516  0.0690  0.5715
14119TIP3    H163772   1.721   5.529  12.638  0.3581 -0.6190 -1.2373
14119TIP3    H263773   1.698   5.670  12.586 -0.2594  0.3285  1.4262
14120TIP3   OH263774   2.719   3.332   3.715 -0.3897 -0.1831  0.1070
14120TIP3    H163775   2.761   3.255   3.677 -0.5317 -0.9417  1.4203
14120TIP3    H263776   2.786   3.400   3.712 -0.1254 -0.4692 -0.6998
14121TIP3   OH263777   0.179   4.985   5.007 -1.0399  0.0222  0.3813
14121TIP3    H163778   0.130   5.042   5.066 -0.1882  0.3452  0.8059
14121TIP3    H263779   0.151   5.011   4.919 -1.0474  0.7403  0.5877
14122TIP3   OH263780   3.177   2.897  14.026 -0.3860  0.4957  0.1615
14122TIP3    H163781   3.224   2.816  14.006  0.9567  1.6065 -1.5441
14122TIP3    H263782   3.183   2.949  13.945 -3.5598  1.2369  0.2604
14123TIP3   OH263783   3.237   3.051  13.105 -0.5030  0.0603 -0.0152
14123TIP3    H163784   3.176   3.064  13.033 -2.1420  0.8290  1.4273
14123TIP3    H263785   3.193   3.091  13.181  1.3829 -0.2131  1.2906
14124TIP3   OH263786   5.915   1.485   0.701  0.2400 -0.5125  0.0774
14124TIP3    H163787   5.957   1.444   0.777  0.2307 -0.8974 -0.1202
14124TIP3    H263788   5.977   1.470   0.629 -0.6598 -1.9518 -0.4380
14125TIP3   OH263789   1.484   2.317  14.851 -0.0748 -0.0064  0.5334
14125TIP3    H163790   1.498   2.344  14.760 -0.3232 -0.4469  0.3588
14125TIP3    H263791   1.405   2.363  14.878 -0.7296 -0.8535  0.1038
14126TIP3   OH263792   3.198   1.354   0.405  0.4042  0.1647 -0.2090
14126TIP3    H163793   3.270   1.327   0.463  0.0154  0.1243  0.2572
14126TIP3    H263794   3.212   1.303   0.325 -0.5226 -1.7407  0.7731
14127TIP3   OH263795   2.717   0.066   3.364 -0.4933  0.2404  0.2078
14127TIP3    H163796   2.725   0.007   3.289 -0.8760 -0.5850  0.7945
14127TIP3    H263797   2.789   0.128   3.353  1.4625 -1.7704  0.8077
14128TIP3   OH263798   1.767   4.797  15.202 -0.2565  0.1367  0.3822
14128TIP3    H163799   1.840   4.736  15.210  0.0953  0.6141  0.9161
14128TIP3    H263800   1.747   4.821  15.293  0.0176  1.2866  0.1566
14129TIP3   OH263801   3.847   1.927   3.525  1.1461  0.2722  0.6551
14129TIP3    H163802   3.871   1.843   3.566  0.6162  0.0570  0.5338
14129TIP3    H263803   3.928   1.978   3.527  1.3897 -0.1130  1.0476
14130TIP3   OH263804   1.072   6.466  13.113 -0.1163  0.0793  0.1505
14130TIP3    H163805   1.022   6.547  13.116  0.7977  0.6463  0.8677
14130TIP3    H263806   1.026   6.410  13.050 -2.3876  0.0557  1.7321
14131TIP3   OH263807   0.941   6.048  16.800 -0.0944  0.4451  0.4444
14131TIP3    H163808   0.852   6.035  16.767  0.8788 -2.2633 -1.4597
14131TIP3    H263809   0.975   6.121  16.748 -0.3012 -0.4277 -0.9848
14132TIP3   OH263810   3.545   3.481   5.431  0.2426 -0.0211  0.2147
14132TIP3    H163811   3.566   3.535   5.506  0.5187  1.5777 -0.9612
14132TIP3    H263812   3.451   3.465   5.438  0.7975 -3.1850  2.9110
14133TIP3   OH263813   4.169   0.941   0.581 -0.6165 -0.5475 -0.3783
14133TIP3    H163814   4.244   0.916   0.527 -0.7902  0.5673 -1.1831
14133TIP3    H263815   4.094   0.934   0.521 -0.9686 -0.3957  0.0450
14134TIP3   OH263816   2.610   2.746  10.948  0.5334  0.0477  0.4466
14134TIP3    H163817   2.675   2.781  11.009  0.2886 -1.1855  1.4637
14134TIP3    H263818   2.661   2.701  10.881  0.7820  0.7574  0.1514
14135TIP3   OH263819   0.295   2.547  14.787  0.1380  0.1020 -0.0786
14135TIP3    H163820   0.367   2.517  14.732 -0.2640 -0.0902 -0.5050
14135TIP3    H263821   0.223   2.562  14.726  0.0216  0.9620  0.2551
14136TIP3   OH263822   4.420   0.136   0.615  0.0405 -0.4324  0.1800
14136TIP3    H163823   4.502   0.100   0.650  1.4747  0.5618 -1.9310
14136TIP3    H263824   4.396   0.076   0.544 -0.7478 -0.3568  0.3710
14137TIP3   OH263825   4.059   4.253   2.467  0.0580 -0.4764 -0.2192
14137TIP3    H163826   4.121   4.244   2.539 -1.4098 -0.0215  1.1286
14137TIP3    H263827   4.027   4.343   2.474 -0.9971 -0.8030 -0.6949
14138TIP3   OH263828   6.172   2.582  15.163 -0.0026 -0.8253  0.2857
14138TIP3    H163829   6.136   2.648  15.223  0.5437 -0.2926  0.0363
14138TIP3    H263830   6.255   2.556  15.203 -0.1571 -1.2680  0.3158
14139TIP3   OH263831   0.834   2.614  14.034 -0.5724 -0.3672 -0.1771
14139TIP3    H163832   0.822   2.529  14.074  0.9644 -0.2888  0.5090
14139TIP3    H263833   0.869   2.669  14.104  0.4192  0.2601 -1.1315
14140TIP3   OH263834   5.845   3.563   0.942 -0.2945  0.3522  0.4551
14140TIP3    H163835   5.938   3.578   0.960 -0.1869  0.8672 -0.4537
14140TIP3    H263836   5.844   3.527   0.853 -0.9360 -0.1002  0.6434
14141TIP3   OH263837   3.354   1.453  16.424 -0.5739  0.4106 -0.1077
14141TIP3    H163838   3.308   1.378  16.463  0.6991 -0.7678 -0.7888
14141TIP3    H263839   3.437   1.456  16.471 -0.8600  1.8235  0.3455
14142TIP3   OH263840   5.501   5.120   2.001 -0.1765  0.6350  0.3519
14142TIP3    H163841   5.492   5.054   2.070 -0.2937 -0.8208 -1.0184
14142TIP3    H263842   5.412   5.150   1.984 -0.2633  0.2347  0.1055
14143TIP3   OH263843   1.274   3.886   2.931 -0.4640  0.1005  0.2020
14143TIP3    H163844   1.183   3.872   2.958 -0.5080  1.3208  0.7063
14143TIP3    H263845   1.299   3.970   2.969  0.5920  0.2172 -0.6801
14144TIP3   OH263846   3.217   6.708  10.722 -0.7864 -0.3034 -0.6535
14144TIP3    H163847   3.257   6.785  10.762  0.3160 -1.4802  0.6187
14144TIP3    H263848   3.270   6.692  10.644 -0.3840 -0.3547 -0.3737
14145TIP3   OH263849   0.114   3.253  13.305 -0.0399 -0.4980 -0.2485
14145TIP3    H163850   0.117   3.186  13.374  1.2743  0.3193  0.5251
14145TIP3    H263851   0.148   3.208  13.228  1.9412 -0.4783  0.5412
14146TIP3   OH263852   4.692   0.157  12.561 -0.1517 -0.1181  0.7975
14146TIP3    H163853   4.783   0.185  12.548 -0.1181 -0.1573  0.9455
14146TIP3    H263854   4.685   0.077  12.510  0.0235 -0.3553  1.1437
14147TIP3   OH263855   5.996   0.997   2.889  0.7161 -0.0651  0.5989
14147TIP3    H163856   6.020   0.909   2.920  0.7834 -0.0640  0.5489
14147TIP3    H263857   6.078   1.035   2.857  0.3189 -0.8136 -1.4490
14148TIP3   OH263858   3.011   5.341   3.288 -0.1353 -0.0227 -0.1044
14148TIP3    H163859   3.053   5.426   3.294 -1.1232  0.5021 -0.3739
14148TIP3    H263860   2.950   5.338   3.362  1.0757 -1.2036  0.9080
14149TIP3   OH263861   5.696   3.329  15.841 -0.4036 -0.0295  0.2196
14149TIP3    H163862   5.714   3.243  15.879  0.5075 -1.5788 -3.3113
14149TIP3    H263863   5.609   3.351  15.873 -0.1163 -1.5806  2.3073
14150TIP3   OH263864   5.761   5.877   4.783  0.6162  0.0185 -0.4809
14150TIP3    H163865   5.791   5.944   4.844  0.5476 -1.0112  0.7273
14150TIP3    H263866   5.837   5.820   4.770 -0.4588 -2.1424  1.9665
14151TIP3   OH263867   2.413   2.781  15.630  0.0620 -0.0832  0.5159
14151TIP3    H163868   2.473   2.855  15.631  1.1828 -0.9406 -0.1732
14151TIP3    H263869   2.326   2.820  15.620  0.3383  1.2624  2.7299
14152TIP3   OH263870   2.044   2.982   4.415  0.1427  0.2450  0.4025
14152TIP3    H163871   2.044   2.946   4.326 -1.0789  2.3926 -0.5635
14152TIP3    H263872   1.985   2.926   4.464 -0.0591 -0.3074 -0.4570
14153TIP3   OH263873   0.790   5.893  16.146 -0.2103 -0.1860 -0.3692
14153TIP3    H163874   0.751   5.979  16.153  0.0277 -0.0571 -0.5928
14153TIP3    H263875   0.752   5.842  16.218  1.7235  0.8887  1.5294
14154TIP3   OH263876   5.725   3.175  12.001 -0.2667  0.2935  0.2718
14154TIP3    H163877   5.642   3.219  11.981  0.5989  1.7684 -0.1515
14154TIP3    H263878   5.782   3.194  11.927  0.4705 -0.7258  0.5482
14155TIP3   OH263879   3.427   3.973   1.043 -0.6177 -0.8338 -0.3023
14155TIP3    H163880   3.511   3.928   1.054 -0.2245  0.0845  0.7787
14155TIP3    H263881   3.383   3.962   1.127 -0.9274 -0.0614 -0.3526
14156TIP3   OH263882   5.305   5.976   1.310 -0.7176  0.1827 -0.1833
14156TIP3    H163883   5.326   5.989   1.403 -1.3496 -1.8664  0.3013
14156TIP3    H263884   5.388   5.985   1.265  0.0467 -1.1017  0.8965
14157TIP3   OH263885   2.832   4.701   0.934  0.6281  0.0410 -0.0493
14157TIP3    H163886   2.853   4.609   0.953 -1.3811 -0.3992  0.2793
14157TIP3    H263887   2.780   4.697   0.854  0.3293  0.8842  0.0991
14158TIP3   OH263888   4.650   2.459   4.125 -0.1170 -0.6268 -0.4790
14158TIP3    H163889   4.575   2.499   4.170  2.4551  1.1030  2.7227
14158TIP3    H263890   4.660   2.511   4.046 -1.4023  0.1076 -0.1943
14159TIP3   OH263891   0.129   1.454  16.686  0.2907  0.0680 -0.3540
14159TIP3    H163892   0.066   1.382  16.690  1.8765 -1.3962 -0.5980
14159TIP3    H263893   0.075   1.533  16.689 -1.4888 -1.1082  0.3316
14160TIP3   OH263894   3.121   2.222  10.228  0.1623  0.2523  0.1496
14160TIP3    H163895   3.115   2.310  10.265 -0.7422  0.4415 -0.4206
14160TIP3    H263896   3.055   2.172  10.275 -1.0742  0.5209 -1.2295
14161TIP3   OH263897   0.501   4.232  11.584 -0.6986 -0.7715 -0.5015
14161TIP3    H163898   0.469   4.273  11.504  0.3995  1.4326  0.1194
14161TIP3    H263899   0.488   4.138  11.569 -2.5792 -0.2962 -2.3250
14162TIP3   OH263900   0.786   4.775   3.868 -0.3908 -0.1469 -0.1752
14162TIP3    H163901   0.694   4.769   3.895 -0.9785  0.8921 -1.8246
14162TIP3    H263902   0.783   4.782   3.773  1.4821 -1.3344 -0.3712
14163TIP3   OH263903   4.967   1.372  15.345 -0.3469  0.3411  0.5379
14163TIP3    H163904   4.890   1.421  15.319 -0.3230 -0.3497 -0.9294
14163TIP3    H263905   4.998   1.415  15.425 -0.6929  2.2858 -0.3238
14164TIP3   OH263906   2.529   1.589  14.310  0.3917  0.0102 -0.1406
14164TIP3    H163907   2.559   1.545  14.389 -1.1218 -0.1001  0.4061
14164TIP3    H263908   2.610   1.614  14.264  1.2923 -0.3871  1.1652
14165TIP3   OH263909   5.601   2.708   1.839 -0.6478 -0.1405 -0.2110
14165TIP3    H163910   5.607   2.731   1.746 -0.1930  0.4277 -0.0475
14165TIP3    H263911   5.564   2.620   1.839  0.4334 -0.6127 -0.9800
14166TIP3   OH263912   0.266   0.957   2.955 -0.4595 -0.1268 -0.1766
14166TIP3    H163913   0.235   1.043   2.984 -0.9651 -0.7029  1.0546
14166TIP3    H263914   0.336   0.977   2.892 -0.8018  1.1753 -0.1835
14167TIP3   OH263915   2.057   1.047  12.194 -0.3281  0.2059 -0.1094
14167TIP3    H163916   2.125   0.993  12.154 -0.6166 -0.3252  0.1010
14167TIP3    H263917   1.975   1.009  12.162 -0.5162  1.2679 -0.9047
14168TIP3   OH263918   3.217   4.493  14.777  0.5088  0.5962 -0.7282
14168TIP3    H163919   3.306   4.489  14.743  0.0918  2.7170 -2.2969
14168TIP3    H263920   3.185   4.403  14.774  2.2421 -0.0370 -1.1073
14169TIP3   OH263921   0.586   5.946  15.832  0.0740  0.4787 -0.0520
14169TIP3    H163922   0.507   5.921  15.881 -0.6133  0.6413 -1.0496
14169TIP3    H263923   0.656   5.893  15.871 -0.3020  1.0874  1.5488
14170TIP3   OH263924   2.624   0.464   0.342 -0.2346 -0.1056 -0.2271
14170TIP3    H163925   2.657   0.554   0.339 -1.2367  0.3097  0.6128
14170TIP3    H263926   2.558   0.460   0.273 -1.2181  0.2600  0.6556
14171TIP3   OH263927   3.817   2.961   0.842  0.0406  0.7554  0.4374
14171TIP3    H163928   3.745   2.944   0.782  2.0915 -0.5128 -1.8252
14171TIP3    H263929   3.817   2.886   0.902  0.4848 -0.1334 -0.6458
14172TIP3   OH263930   3.883   2.923   1.487 -0.2112 -0.8649  0.4230
14172TIP3    H163931   3.796   2.882   1.485  0.6136 -2.7165 -1.9655
14172TIP3    H263932   3.868   3.014   1.464 -1.3024 -1.8634 -3.4710
14173TIP3   OH263933   6.030   6.286  15.475  0.2006 -0.3702  0.2466
14173TIP3    H163934   6.068   6.224  15.414  0.7159 -0.0445  0.2265
14173TIP3    H263935   5.935   6.278  15.463  0.3001  0.8438 -1.7728
14174TIP3   OH263936   1.084   3.402  11.137  0.5555  0.0573  0.0210
14174TIP3    H163937   1.084   3.423  11.044  0.3052 -0.1053 -0.0164
14174TIP3    H263938   1.174   3.375  11.155  0.8453  0.9796  0.0327
14175TIP3   OH263939   6.605   3.050  15.532  0.0195  0.2434  0.1762
14175TIP3    H163940   6.516   3.016  15.526  0.1769  0.0303 -3.7186
14175TIP3    H263941   6.661   2.972  15.539  0.0084  0.1439 -0.7125
14176TIP3   OH263942   0.183   2.762  11.158  0.2385  0.3976  0.1528
14176TIP3    H163943   0.241   2.762  11.081  0.8839  0.0696  0.6242
14176TIP3    H263944   0.236   2.721  11.227 -1.1512 -1.5798  0.1377
14177TIP3   OH263945   4.908   0.732  11.414 -0.1281  0.0331  0.0457
14177TIP3    H163946   4.875   0.653  11.371 -0.2566 -0.4413  0.9812
14177TIP3    H263947   5.001   0.714  11.429  0.3003  0.8451 -1.4245
14178TIP3   OH263948   5.005   3.088  17.177 -0.1133 -0.6143 -0.2456
14178TIP3    H163949   4.944   3.020  17.149 -0.3458 -0.4929 -0.0332
14178TIP3    H263950   4.979   3.165  17.127 -0.5230 -0.3992  0.2963
14179TIP3   OH263951   6.561   0.065   5.774  0.4483  0.0919 -0.6307
14179TIP3    H163952   6.629   0.102   5.830 -0.1843  0.8029 -0.3124
14179TIP3    H263953   6.520   0.141   5.732  0.9090 -0.4302 -2.0763
14180TIP3   OH263954   6.154   1.600   1.847  0.1523  0.5493  0.1327
14180TIP3    H163955   6.074   1.556   1.819 -0.0126  1.1201 -0.3235
14180TIP3    H263956   6.213   1.593   1.772  0.2166  0.8761  0.1492
14181TIP3   OH263957   5.297   5.427  15.290  1.0304 -0.0194  0.0798
14181TIP3    H163958   5.344   5.507  15.313  0.5705  0.2570  0.0672
14181TIP3    H263959   5.267   5.391  15.374 -2.3161  2.0011 -0.0777
14182TIP3   OH263960   2.604   5.178   1.666  0.3437  0.2671 -0.9643
14182TIP3    H163961   2.657   5.132   1.602  1.2055 -0.4217  0.2072
14182TIP3    H263962   2.564   5.109   1.719 -0.4963  0.8154 -0.8469
14183TIP3   OH263963   0.603   1.052   2.935  0.2003  0.4073 -0.0670
14183TIP3    H163964   0.584   1.126   2.878 -1.1272 -0.6198 -1.0385
14183TIP3    H263965   0.680   1.078   2.985 -0.2047  2.3999 -0.4193
14184TIP3   OH263966   0.794   5.698   3.237  0.6131 -0.4470  0.4114
14184TIP3    H163967   0.859   5.703   3.167  2.0524 -1.0178  1.6623
14184TIP3    H263968   0.728   5.764   3.213  1.3432 -0.2539 -1.1774
14185TIP3   OH263969   1.069   5.453  12.453 -0.2042  0.7717  0.4313
14185TIP3    H163970   1.091   5.371  12.410  0.1337  0.9351  0.2816
14185TIP3    H263971   0.981   5.440  12.487 -1.4799  1.4070 -2.3042
14186TIP3   OH263972   4.226   5.338  15.733 -0.4983  0.8730 -0.5573
14186TIP3    H163973   4.218   5.272  15.802  0.3444  1.8119  0.4741
14186TIP3    H263974   4.138   5.343  15.695 -0.6119 -0.7345 -0.5754
14187TIP3   OH263975   2.024   0.351   5.639 -0.0303 -0.5028  0.1522
14187TIP3    H163976   2.010   0.269   5.593  2.0109 -0.5748 -0.4095
14187TIP3    H263977   1.943   0.364   5.689 -0.8064 -2.2988 -0.5540
14188TIP3   OH263978   0.471   1.905  15.100  0.1103  0.3482  0.0674
14188TIP3    H163979   0.441   1.889  15.189 -0.3966  1.3480  0.0856
14188TIP3    H263980   0.414   1.850  15.046 -2.2221  2.5885  0.0553
14189TIP3   OH263981   6.607   3.408  17.137 -0.1322  0.2844  0.1322
14189TIP3    H163982   6.701   3.416  17.121 -0.1547  0.0453 -0.1299
14189TIP3    H263983   6.581   3.330  17.088 -0.5554  0.6207 -0.1846
14190TIP3   OH263984   1.157   6.326   2.379  0.4735  0.0477 -0.2866
14190TIP3    H163985   1.133   6.386   2.450  1.2431 -1.7784  1.6294
14190TIP3    H263986   1.248   6.345   2.360  0.1781  0.7589 -1.0710
14191TIP3   OH263987   4.418   3.156  15.550  0.0805  0.2093  0.2603
14191TIP3    H163988   4.490   3.115  15.597  0.1190 -0.9147 -0.7257
14191TIP3    H263989   4.341   3.105  15.576 -0.1944  0.7524  0.5207
14192TIP3   OH263990   4.504   0.543   5.514 -0.0235 -0.0336 -0.3632
14192TIP3    H163991   4.567   0.563   5.583 -1.1517  0.7125  0.4929
14192TIP3    H263992   4.438   0.613   5.521 -2.3822 -2.1861  0.5672
14193TIP3   OH263993   4.708   3.268  15.858 -0.0980 -0.1411  0.1241
14193TIP3    H163994   4.741   3.239  15.942 -1.0881  0.9119  0.9158
14193TIP3    H263995   4.782   3.313  15.816  0.4873 -0.9538  0.2836
14194TIP3   OH263996   6.072   3.408  11.615  0.0869 -0.0224  0.2305
14194TIP3    H163997   6.023   3.351  11.556 -1.8545  0.5342  1.2477
14194TIP3    H263998   6.044   3.383  11.703  0.0064  1.7481  0.7428
14195TIP3   OH263999   2.309   1.094   4.538  0.3418  0.2054  0.2279
14195TIP3    H164000   2.272   1.074   4.452  1.1461  1.8733 -0.5407
14195TIP3    H264001   2.335   1.009   4.573 -1.1689 -0.6525 -0.6013
14196TIP3   OH264002   2.758   4.029   2.456  0.3515 -0.0154  0.7619
14196TIP3    H164003   2.663   4.040   2.464  0.4857  0.2666  2.2056
14196TIP3    H264004   2.770   3.935   2.446 -0.1107  0.0070 -0.0923
14197TIP3   OH264005   1.219   0.269  16.436  0.2264 -0.0397 -0.0236
14197TIP3    H164006   1.194   0.276  16.528  0.5218  1.2126 -0.0102
14197TIP3    H264007   1.255   0.356  16.415  0.9545 -0.5783 -1.0807
14198TIP3   OH264008   4.507   2.871   4.184 -0.1198  0.1367 -0.8844
14198TIP3    H164009   4.489   2.790   4.232  0.6089  0.6596  0.3079
14198TIP3    H264010   4.453   2.937   4.227  0.1920  0.5246 -1.0790
14199TIP3   OH264011   5.716   3.060  11.437  0.3901  0.1257  0.2243
14199TIP3    H164012   5.772   2.998  11.391 -0.1311  0.5460 -1.0129
14199TIP3    H264013   5.627   3.031  11.419  0.0573  2.1038 -1.7782
14200TIP3   OH264014   2.532   5.437   3.814  0.3556 -0.6835  0.7203
14200TIP3    H164015   2.507   5.480   3.896  2.1283 -0.2074  1.0685
14200TIP3    H264016   2.544   5.345   3.838  0.3986 -0.6347  0.8879
14201TIP3   OH264017   5.696   4.791  15.293 -0.2724 -0.2080  0.3806
14201TIP3    H164018   5.667   4.717  15.239 -2.9974  0.8655  0.2346
14201TIP3    H264019   5.672   4.868  15.243  1.2052  0.8283  1.1936
14202TIP3   OH264020   5.322   4.401   0.114 -0.5156 -0.1145 -0.0235
14202TIP3    H164021   5.385   4.462   0.076  0.2419 -1.1795 -0.5048
14202TIP3    H264022   5.264   4.379   0.041  0.6633 -1.8031 -0.4956
14203TIP3   OH264023   1.891   2.600  14.760 -0.0871  0.2245 -0.1281
14203TIP3    H164024   1.973   2.647  14.746 -0.6452  1.0012 -0.8900
14203TIP3    H264025   1.828   2.645  14.705 -0.4386 -2.0709 -1.7762
14204TIP3   OH264026   3.349   4.443   6.027 -0.6416 -0.0639 -0.4620
14204TIP3    H164027   3.375   4.533   6.008  0.6933  0.1907  2.0401
14204TIP3    H264028   3.254   4.446   6.037 -0.4603  1.5133  1.3147
14205TIP3   OH264029   3.614   0.993   1.191  0.2160 -0.3977 -0.0705
14205TIP3    H164030   3.706   1.003   1.168  0.0804  1.4562  0.0595
14205TIP3    H264031   3.608   1.023   1.281 -0.4356 -1.0033  0.0965
14206TIP3   OH264032   3.208   1.826   5.280  0.2463  0.7192 -0.0513
14206TIP3    H164033   3.197   1.795   5.190 -1.5094 -0.1324  0.4047
14206TIP3    H264034   3.195   1.748   5.333 -3.7115  1.9563  1.1224
14207TIP3   OH264035   4.587   2.458  14.014 -0.2858 -0.1074 -0.1933
14207TIP3    H164036   4.622   2.382  13.969 -0.7422  0.1092 -0.9311
14207TIP3    H264037   4.615   2.533  13.961 -1.4655  0.1006 -0.5694
14208TIP3   OH264038   1.200   0.221   1.778 -0.3075  0.6533 -0.2848
14208TIP3    H164039   1.211   0.295   1.719 -0.1937  0.1965 -0.8467
14208TIP3    H264040   1.110   0.191   1.762  0.3984 -0.7783 -1.7836
14209TIP3   OH264041   2.702   5.504  17.076  0.5991 -0.1725 -0.0896
14209TIP3    H164042   2.724   5.441  17.144  0.7027 -0.4589 -0.3868
14209TIP3    H264043   2.746   5.585  17.102 -0.2029  0.0240  0.7334
14210TIP3   OH264044   0.219   4.417   3.108 -0.2981 -0.3260 -0.2252
14210TIP3    H164045   0.235   4.407   3.014  0.4018 -0.4033 -0.1043
14210TIP3    H264046   0.175   4.502   3.116  1.4945  0.6757 -0.4362
14211TIP3   OH264047   2.699   5.026   2.258 -0.4844 -0.0573 -0.2873
14211TIP3    H164048   2.603   5.030   2.259 -0.4521  0.8880  0.9076
14211TIP3    H264049   2.722   4.974   2.335 -0.0621 -2.0739 -1.6969
14212TIP3   OH264050   5.376   2.087   0.621  0.1732 -0.8923  0.3735
14212TIP3    H164051   5.441   2.016   0.622  0.2759 -0.8068 -0.0211
14212TIP3    H264052   5.328   2.076   0.703  0.5255 -1.1066  0.5563
14213TIP3   OH264053   5.510   5.873   0.457  0.0157 -0.1667  0.0311
14213TIP3    H164054   5.488   5.850   0.367 -1.6049  2.2213 -0.2743
14213TIP3    H264055   5.603   5.849   0.466  0.1635 -0.6536 -2.1829
14214TIP3   OH264056   2.233   4.420  13.351 -0.4414 -0.0889  0.1195
14214TIP3    H164057   2.152   4.453  13.311 -1.4720 -0.0918  2.0820
14214TIP3    H264058   2.242   4.331  13.316 -0.1086  0.6155 -1.7141
14215TIP3   OH264059   3.932   6.554  14.004 -0.0088 -0.4382  0.5022
14215TIP3    H164060   4.023   6.540  14.027  0.1592  0.5247  0.4876
14215TIP3    H264061   3.887   6.473  14.029  0.9496 -1.1846 -0.1272
14216TIP3   OH264062   0.836   4.960  14.513 -0.1884  0.1070 -0.1322
14216TIP3    H164063   0.898   4.901  14.470 -0.8860 -0.4797 -0.3387
14216TIP3    H264064   0.776   4.988  14.444 -1.2437 -0.7533  0.3997
14217TIP3   OH264065   5.006   2.957  14.670 -0.1365  0.5986  0.2888
14217TIP3    H164066   5.008   3.043  14.627 -0.5886  0.1793 -0.6037
14217TIP3    H264067   4.913   2.935  14.676  0.0095 -0.2724 -0.4268
14218TIP3   OH264068   0.388   4.010  11.431 -0.5844  0.2052  0.0959
14218TIP3    H164069   0.425   3.924  11.414  0.5863  0.2435  2.1334
14218TIP3    H264070   0.363   4.043  11.344  0.7043 -1.3855 -0.9344
14219TIP3   OH264071   2.607   3.327   1.536 -0.2845  0.0101 -0.0201
14219TIP3    H164072   2.639   3.245   1.576  0.1806  0.0710 -0.2556
14219TIP3    H264073   2.640   3.396   1.595  0.6819  0.1214 -0.6643
14220TIP3   OH264074   5.794   1.879  14.104  0.6202 -0.4334  0.5798
14220TIP3    H164075   5.757   1.863  14.191  2.5694 -2.2570  1.1737
14220TIP3    H264076   5.726   1.850  14.044 -0.9312  1.2597  1.4268
14221TIP3   OH264077   2.436   0.149   0.233  0.2504  0.9732 -0.0451
14221TIP3    H164078   2.517   0.136   0.283  0.3183  0.5924 -0.2479
14221TIP3    H264079   2.440   0.239   0.203  1.5498  0.4154 -1.7085
14222TIP3   OH264080   4.232   2.811  16.608  0.3864 -0.0861 -0.4555
14222TIP3    H164081   4.176   2.883  16.580  0.4998  1.4762  2.8303
14222TIP3    H264082   4.171   2.741  16.630 -0.0742  0.5317  0.2796
14223TIP3   OH264083   5.614   1.262   0.587  0.5309 -0.0957  0.2836
14223TIP3    H164084   5.522   1.242   0.569  0.3843  0.6843  0.1075
14223TIP3    H264085   5.617   1.358   0.589  1.0713 -0.1257  1.6898
14224TIP3   OH264086   3.908   5.701   2.971 -1.0801 -1.2209 -0.0387
14224TIP3    H164087   4.001   5.679   2.976 -1.0213 -0.7404  1.8341
14224TIP3    H264088   3.898   5.745   2.887  1.4987  3.3901  1.7385
14225TIP3   OH264089   1.239   3.571   2.198  0.2063 -0.6918  0.6914
14225TIP3    H164090   1.333   3.561   2.178  0.0553  0.6855 -0.9971
14225TIP3    H264091   1.234   3.561   2.293  2.1134 -0.6032  0.8568
14226TIP3   OH264092   0.510   3.657   2.185  0.1036 -0.3791  0.3141
14226TIP3    H164093   0.596   3.699   2.193 -0.3028  0.2315  1.7187
14226TIP3    H264094   0.516   3.580   2.241 -0.2828 -0.2926  0.4757
14227TIP3   OH264095   1.171   6.731  13.966  0.0575 -0.3171  0.2105
14227TIP3    H164096   1.222   6.811  13.980 -1.3314  0.4648  0.9840
14227TIP3    H264097   1.163   6.691  14.052  0.9569 -1.4635 -0.2062
14228TIP3   OH264098   4.136   0.647   1.217 -0.2406 -0.4153 -0.3973
14228TIP3    H164099   4.122   0.731   1.175 -3.1258 -1.0478 -0.9100
14228TIP3    H264100   4.222   0.655   1.259  0.4022  2.0668 -1.9981
14229TIP3   OH264101   3.589   2.924   2.874  0.6215 -0.1112 -0.0903
14229TIP3    H164102   3.553   3.003   2.914  1.6216 -0.1425  0.9383
14229TIP3    H264103   3.644   2.956   2.802  1.9337  0.2374  1.0328
14230TIP3   OH264104   0.752   0.545   0.849  0.1758  0.3773  0.3786
14230TIP3    H164105   0.703   0.511   0.924 -0.6346  0.3586 -0.1399
14230TIP3    H264106   0.809   0.473   0.824 -0.9008 -0.3241 -0.1680
14231TIP3   OH264107   5.589   5.477  15.839 -0.3705 -0.7489 -0.3757
14231TIP3    H164108   5.504   5.508  15.872  0.5825  0.4952  1.0355
14231TIP3    H264109   5.617   5.411  15.903  0.2153 -0.3594 -0.2212
14232TIP3   OH264110   4.610   2.648  17.084  0.0519 -0.6229 -0.4057
14232TIP3    H164111   4.603   2.554  17.067  1.8676 -0.7590 -0.6704
14232TIP3    H264112   4.648   2.684  17.003 -0.3518  0.2939 -0.1995
14233TIP3   OH264113   0.620   0.504   2.801 -0.6981  0.0427 -0.5555
14233TIP3    H164114   0.540   0.552   2.777 -0.9026 -0.5050 -0.9934
14233TIP3    H264115   0.590   0.416   2.823 -0.2101 -0.1935 -0.8098
14234TIP3   OH264116   3.530   0.804  11.589 -0.2136 -0.2685  0.1492
14234TIP3    H164117   3.582   0.883  11.607 -0.5923  0.0257 -0.0314
14234TIP3    H264118   3.591   0.732  11.603 -0.5468 -0.1054  2.8599
14235TIP3   OH264119   5.175   2.909   3.206  0.9073 -0.2397 -0.1951
14235TIP3    H164120   5.184   2.873   3.294 -1.4919  0.7573  0.5314
14235TIP3    H264121   5.153   2.834   3.151 -0.5290 -0.4672  0.6452
14236TIP3   OH264122   4.601   4.656   1.758  0.8108  0.4883  0.0050
14236TIP3    H164123   4.512   4.629   1.736  1.2987  0.1907 -1.7821
14236TIP3    H264124   4.615   4.623   1.846 -0.2697 -0.9527 -0.3175
14237TIP3   OH264125   6.456   1.183  16.168 -0.9306 -0.1474  0.2456
14237TIP3    H164126   6.365   1.210  16.163 -0.6918  0.8674  0.9680
14237TIP3    H264127   6.468   1.123  16.095 -1.6610  1.2661 -1.0914
14238TIP3   OH264128   1.884   4.995   5.594  0.5453  0.0870  0.0202
14238TIP3    H164129   1.887   5.082   5.554  0.6766 -0.2148 -0.6246
14238TIP3    H264130   1.905   5.011   5.686  1.6175  0.6114 -0.3021
14239TIP3   OH264131   2.545   1.501  12.724  0.3417  0.4835  0.2304
14239TIP3    H164132   2.515   1.452  12.648 -0.3785  0.4664  0.5141
14239TIP3    H264133   2.619   1.553  12.692  1.2200 -0.8999 -0.0329
14240TIP3   OH264134   4.862   6.693  16.449 -0.0523  0.1451 -0.1813
14240TIP3    H164135   4.875   6.607  16.489  0.5919 -0.0374 -0.7613
14240TIP3    H264136   4.768   6.701  16.438 -0.2070 -0.0055  0.9240
14241TIP3   OH264137   0.718   2.399   2.557 -0.6237 -0.2615  0.1581
14241TIP3    H164138   0.752   2.394   2.646  2.0552 -1.2102 -0.8107
14241TIP3    H264139   0.724   2.492   2.534 -1.9049  0.0821  1.1250
14242TIP3   OH264140   6.402   6.354   2.093  0.3581  0.1480 -0.6853
14242TIP3    H164141   6.447   6.408   2.158  0.4880  0.3701 -0.9565
14242TIP3    H264142   6.339   6.302   2.144 -1.0634  1.8428 -0.5923
14243TIP3   OH264143   1.105   1.291  11.170  0.1241  0.1793  0.1249
14243TIP3    H164144   1.104   1.196  11.158 -3.4533  0.3593 -2.6137
14243TIP3    H264145   1.021   1.311  11.211 -0.3102  2.3313 -1.6514
14244TIP3   OH264146   5.747   5.562   5.563  0.2463 -0.2454  0.2392
14244TIP3    H164147   5.829   5.609   5.545  0.1481 -0.5324 -1.1175
14244TIP3    H264148   5.689   5.588   5.492 -0.5330 -0.7574  0.6779
14245TIP3   OH264149   2.425   2.734   1.111 -0.5437  0.4665  0.5279
14245TIP3    H164150   2.471   2.816   1.127 -0.8883  0.6629  0.5102
14245TIP3    H264151   2.486   2.666   1.140  0.5085  0.6411 -1.1582
14246TIP3   OH264152   3.570   5.651   5.999  0.2297 -0.4336 -0.3485
14246TIP3    H164153   3.638   5.669   6.063  0.5606  1.4599 -1.1626
14246TIP3    H264154   3.617   5.619   5.922  0.0144 -0.8651 -0.3052
14247TIP3   OH264155   2.501   0.646  15.980  0.1775 -0.7094  0.2378
14247TIP3    H164156   2.493   0.708  16.053  0.5473 -2.4125  1.7950
14247TIP3    H264157   2.507   0.560  16.022  0.5794 -1.7430 -1.8128
14248TIP3   OH264158   6.604   5.793   3.162 -0.7855 -0.2022  0.0393
14248TIP3    H164159   6.555   5.853   3.107 -1.7759 -0.7569  0.2990
14248TIP3    H264160   6.578   5.815   3.251  1.7502  1.5444  0.4579
14249TIP3   OH264161   1.635   3.681   3.007 -0.0830  0.2375  0.4787
14249TIP3    H164162   1.629   3.612   3.073  0.2299  0.6069  0.9012
14249TIP3    H264163   1.547   3.685   2.968  0.0695 -0.8324 -0.0033
14250TIP3   OH264164   3.502   0.694  17.144  0.1116 -0.2796  0.0481
14250TIP3    H164165   3.550   0.643  17.079 -0.6763 -0.2839 -0.5448
14250TIP3    H264166   3.426   0.729  17.096  0.0279  0.5012  0.7272
14251TIP3   OH264167   1.348   0.037   4.005  0.4363  0.2200 -0.4013
14251TIP3    H164168   1.272  -0.003   4.046 -0.8589  0.8533 -2.0664
14251TIP3    H264169   1.341   0.130   4.027  0.3955  0.3724 -1.0473
14252TIP3   OH264170   3.716   6.480   4.155  0.3776 -0.1297  0.2995
14252TIP3    H164171   3.757   6.402   4.192  0.4547 -0.7067 -0.9595
14252TIP3    H264172   3.779   6.511   4.089 -0.8323 -0.5726 -1.1074
14253TIP3   OH264173   0.002   3.603   4.827  0.0212 -0.2637  0.3354
14253TIP3    H164174  -0.039   3.531   4.780 -0.6573  0.5102 -0.2898
14253TIP3    H264175   0.092   3.574   4.841 -0.0935 -1.0034 -0.3958
14254TIP3   OH264176   3.215   1.744   1.628  0.4203  0.0771  0.2128
14254TIP3    H164177   3.173   1.812   1.576  0.8389  0.7524  0.7434
14254TIP3    H264178   3.151   1.719   1.694  0.8450  1.1357  1.0490
14255TIP3   OH264179   0.484   3.160   2.994 -0.3040 -0.5600  0.0818
14255TIP3    H164180   0.538   3.184   2.918  0.3399 -0.0722  0.6873
14255TIP3    H264181   0.510   3.221   3.063  1.1886 -2.7629  1.5894
14256TIP3   OH264182   3.573   4.320  13.576 -0.2745  0.5295  0.1421
14256TIP3    H164183   3.601   4.317  13.485 -0.1079  2.1378  0.1084
14256TIP3    H264184   3.560   4.228  13.600  2.0680 -0.1173 -0.7475
14257TIP3   OH264185   2.174   0.994   3.543  0.1934  0.3797 -0.2893
14257TIP3    H164186   2.118   0.927   3.505 -2.5076  1.4889  1.4100
14257TIP3    H264187   2.207   0.955   3.624 -2.3308  1.3396  1.3148
14258TIP3   OH264188   4.389   0.917  17.151  0.0057  0.2169  0.6927
14258TIP3    H164189   4.421   0.954  17.233  1.1867  0.3173  0.2129
14258TIP3    H264190   4.361   0.994  17.100 -0.4243  0.1825  0.8770
14259TIP3   OH264191   6.003   5.165   5.376  0.1251 -0.2821  0.1963
14259TIP3    H164192   5.911   5.176   5.354  0.2409 -2.7414 -2.0103
14259TIP3    H264193   6.041   5.252   5.367 -1.3718  0.2030 -2.3049
14260TIP3   OH264194   1.003   6.561  12.812 -0.1330  0.5770  0.1748
14260TIP3    H164195   0.942   6.630  12.840 -0.0171  0.4898  0.6503
14260TIP3    H264196   1.089   6.601  12.819 -0.1824  1.0177 -1.4253
14261TIP3   OH264197   2.523   3.723  11.878  0.0381 -0.1908  0.3674
14261TIP3    H164198   2.597   3.665  11.859  1.4948  1.6659  0.0520
14261TIP3    H264199   2.446   3.668  11.868  1.1481 -1.4099 -2.9104
14262TIP3   OH264200   2.637   0.890   5.236 -0.1867 -0.3255  0.1988
14262TIP3    H164201   2.619   0.984   5.239  0.3898 -0.1067 -1.7691
14262TIP3    H264202   2.617   0.858   5.324 -0.0999  1.6871  0.9820
14263TIP3   OH264203   5.159   4.905  12.294  0.0844 -0.0221 -0.1992
14263TIP3    H164204   5.123   4.842  12.232  1.5713  0.2634 -1.4241
14263TIP3    H264205   5.242   4.867  12.323 -0.5674 -0.1264  1.6180
14264TIP3   OH264206   3.643   5.525  15.331  0.4739  0.5410 -0.6894
14264TIP3    H164207   3.585   5.588  15.289  0.1307  2.4703  2.3443
14264TIP3    H264208   3.672   5.569  15.411  3.7396 -1.5325 -0.5585
14265TIP3   OH264209   3.299   0.153   1.784 -0.4441 -0.1776  0.3663
14265TIP3    H164210   3.224   0.210   1.770 -1.1733 -1.0338  0.6614
14265TIP3    H264211   3.301   0.139   1.879  0.9719  0.9849  0.5369
14266TIP3   OH264212   0.341   3.747  14.030 -0.3654 -0.0944 -0.3320
14266TIP3    H164213   0.371   3.727  14.118  1.7180 -0.0045 -0.9726
14266TIP3    H264214   0.417   3.730  13.974 -0.9638  1.9056 -1.8568
14267TIP3   OH264215   4.176   4.947  16.473  0.3383  0.4832  0.1071
14267TIP3    H164216   4.268   4.956  16.499 -0.1855  2.6781  1.5113
14267TIP3    H264217   4.127   4.986  16.545 -1.6514  0.1908 -1.0171
14268TIP3   OH264218   0.962   1.203   4.280  0.3239  0.1877 -0.2455
14268TIP3    H164219   1.016   1.265   4.329 -0.2940  0.1506  0.5176
14268TIP3    H264220   0.872   1.232   4.297 -0.0141 -1.3181  0.7160
14269TIP3   OH264221   1.316   6.409  12.961  0.0924  0.1777  0.1487
14269TIP3    H164222   1.240   6.412  13.019 -0.3979 -1.1527 -0.4040
14269TIP3    H264223   1.366   6.487  12.984 -1.3101  0.9449  0.6824
14270TIP3   OH264224   3.105   5.520  16.948  0.2075  0.3148  0.3294
14270TIP3    H164225   3.062   5.572  16.880 -0.1325 -1.5668 -0.9769
14270TIP3    H264226   3.043   5.451  16.968  0.4899  0.5811  2.3045
14271TIP3   OH264227   5.962   2.746  16.228  0.0492 -0.0699 -0.4734
14271TIP3    H164228   5.913   2.764  16.309 -1.4891 -0.5265 -1.2542
14271TIP3    H264229   6.053   2.765  16.250 -0.4401  0.5962  1.1280
14272TIP3   OH264230   5.025   5.410  13.422 -0.7180 -0.0073  0.2241
14272TIP3    H164231   4.934   5.412  13.391 -0.4838  1.2943 -0.4745
14272TIP3    H264232   5.071   5.357  13.357 -0.9846 -0.7753  0.6464
14273TIP3   OH264233   1.714   0.849   5.622 -0.3152  0.0190 -0.3189
14273TIP3    H164234   1.703   0.884   5.711 -1.6502 -0.1608 -0.3954
14273TIP3    H264235   1.688   0.921   5.565  1.8461  0.6186 -0.6495
14274TIP3   OH264236   3.102   1.184  13.397  0.3296 -0.3394  0.3836
14274TIP3    H164237   3.054   1.147  13.323  0.9188  0.7252 -0.5618
14274TIP3    H264238   3.194   1.168  13.375  0.5007 -0.1962  0.9887
14275TIP3   OH264239   3.506   2.152   2.903  0.3368 -0.4267 -0.0361
14275TIP3    H164240   3.526   2.184   2.991  0.2058 -0.1421 -0.1059
14275TIP3    H264241   3.584   2.104   2.876  1.0773  0.9544 -0.4408
14276TIP3   OH264242   1.072   0.872   0.888  0.0052  0.2853 -0.0764
14276TIP3    H164243   1.008   0.812   0.927 -0.2162  0.7058  0.2217
14276TIP3    H264244   1.027   0.907   0.811 -0.6048  1.4798  0.7838
14277TIP3   OH264245   1.904   2.378  11.175  0.3313 -0.0631  0.0430
14277TIP3    H164246   1.939   2.289  11.168  0.0487 -0.0708 -1.7530
14277TIP3    H264247   1.951   2.427  11.108 -2.4782  0.0990 -1.9762
14278TIP3   OH264248   6.666   0.635   5.970 -0.8069 -0.1900 -0.4068
14278TIP3    H164249   6.703   0.600   5.888 -0.0007  0.1757 -0.2006
14278TIP3    H264250   6.691   0.571   6.036 -0.9493 -0.1824 -0.3467
14279TIP3   OH264251   4.645   5.256   3.095 -0.3237  0.0946  0.0567
14279TIP3    H164252   4.603   5.170   3.105 -2.5090  1.1510  0.3525
14279TIP3    H264253   4.656   5.287   3.185  0.2811  0.2426 -0.0625
14280TIP3   OH264254   1.092   2.851  13.084  0.0138  0.4552 -0.5598
14280TIP3    H164255   1.132   2.938  13.078 -0.5240  0.7688  0.2698
14280TIP3    H264256   1.121   2.817  13.170 -0.8606  0.3684 -0.2919
14281TIP3   OH264257   5.512   6.678   3.373  0.8344 -0.3412  0.9776
14281TIP3    H164258   5.452   6.753   3.366  1.0573 -0.1186  1.4554
14281TIP3    H264259   5.514   6.641   3.284 -0.7186 -0.9036  1.1462
14282TIP3   OH264260   2.741   4.850  16.789  0.2731 -0.1711  0.1899
14282TIP3    H164261   2.743   4.760  16.756  0.6122 -0.0507 -0.1278
14282TIP3    H264262   2.790   4.900  16.724 -1.3359  0.5438 -0.5269
14283TIP3   OH264263   1.147   4.230  16.538  0.0952  0.4496  0.0608
14283TIP3    H164264   1.071   4.173  16.531  1.2738 -1.0788 -0.7816
14283TIP3    H264265   1.216   4.186  16.488  1.3450  2.1373  0.1889
14284TIP3   OH264266   2.497   4.245  16.002 -0.0470  0.1396  0.4145
14284TIP3    H164267   2.448   4.167  16.029  0.7912  0.0688  1.8672
14284TIP3    H264268   2.477   4.310  16.070  0.4608  0.6866  0.0476
14285TIP3   OH264269   4.219   5.267  11.344  0.2290 -0.1855 -0.0474
14285TIP3    H164270   4.290   5.320  11.308  0.8203 -0.1917  1.0766
14285TIP3    H264271   4.228   5.275  11.439 -0.7807 -0.8368  0.1208
14286TIP3   OH264272   5.425   4.257   3.288 -0.0413  0.0281 -0.6441
14286TIP3    H164273   5.439   4.349   3.311 -2.5082  0.6697 -1.3753
14286TIP3    H264274   5.463   4.248   3.201 -0.4341  0.5756 -0.8798
14287TIP3   OH264275   4.226   1.581  12.865  0.5065 -0.2830  0.6308
14287TIP3    H164276   4.255   1.498  12.903  0.1442 -0.2944  0.8846
14287TIP3    H264277   4.169   1.619  12.932 -1.6731 -1.1629 -0.6201
14288TIP3   OH264278   1.912   2.956  17.040  0.3274  0.4287  0.0354
14288TIP3    H164279   1.853   3.030  17.026  0.4692  0.5416  0.0311
14288TIP3    H264280   1.858   2.891  17.084  0.7437  1.3300  1.9950
14289TIP3   OH264281   4.678   1.748   5.009  0.5080 -0.0228  0.0394
14289TIP3    H164282   4.750   1.761   5.070 -0.0564  1.8069  0.3708
14289TIP3    H264283   4.721   1.716   4.929  1.6985  1.0436  0.2149
14290TIP3   OH264284   2.033   5.793  15.476  0.1959 -0.3873  1.3488
14290TIP3    H164285   1.952   5.758  15.513  0.4348 -0.1107  2.1441
14290TIP3    H264286   2.097   5.723  15.489 -0.0724 -0.9010  0.0580
14291TIP3   OH264287   0.799   6.531  16.380 -0.1970 -0.0897 -0.2566
14291TIP3    H164288   0.807   6.465  16.448  1.0121  1.0211  0.7224
14291TIP3    H264289   0.807   6.615  16.426  1.6187  0.6814 -1.8328
14292TIP3   OH264290   2.349   2.027   5.682 -0.1667 -0.3362  0.8505
14292TIP3    H164291   2.434   2.062   5.711  1.7097 -2.9609 -1.0210
14292TIP3    H264292   2.342   1.942   5.725 -0.6767 -1.1870 -0.8172
14293TIP3   OH264293   0.598   3.036  14.406 -1.3980 -0.3608 -0.3427
14293TIP3    H164294   0.568   3.064  14.493 -0.3236 -4.4766  1.5480
14293TIP3    H264295   0.518   3.037  14.353 -2.5586 -0.0049  1.3169
14294TIP3   OH264296   2.310   6.202  15.353 -0.3887  0.4479  0.3701
14294TIP3    H164297   2.364   6.218  15.275 -0.6495  1.6698  0.4231
14294TIP3    H264298   2.252   6.130  15.327  0.2343  0.1363 -0.1965
14295TIP3   OH264299   5.267   3.063   1.615 -0.3933  0.6384 -0.3122
14295TIP3    H164300   5.286   3.104   1.530 -2.9206  0.7085 -0.9158
14295TIP3    H264301   5.307   3.121   1.679  0.6454  1.1668 -1.3966
14296TIP3   OH264302   2.022   6.615   4.148 -0.2402 -1.0636  0.1812
14296TIP3    H164303   2.000   6.541   4.204  0.4678 -0.3983  1.4074
14296TIP3    H264304   2.117   6.609   4.137 -0.0178  0.1845  1.1457
14297TIP3   OH264305   4.871   5.501  12.122 -0.1090 -0.0756 -0.7328
14297TIP3    H164306   4.949   5.526  12.171 -0.3362 -0.8817  0.0615
14297TIP3    H264307   4.830   5.584  12.098  0.3609  0.3400 -0.1327
14298TIP3   OH264308   3.337   1.548   0.662  0.6352 -0.2425 -0.3267
14298TIP3    H164309   3.431   1.529   0.654  0.7428  0.5849 -1.2033
14298TIP3    H264310   3.306   1.487   0.729  1.5861 -1.2578 -0.7644
14299TIP3   OH264311   5.816   4.294   2.836  0.5753  0.0418 -0.3933
14299TIP3    H164312   5.747   4.276   2.772  0.3503  0.6533 -0.3250
14299TIP3    H264313   5.828   4.211   2.882  0.9649 -0.5042 -1.4447
14300TIP3   OH264314   2.343   3.524  13.368 -0.7841  1.0415  0.7562
14300TIP3    H164315   2.317   3.500  13.280  0.1838  3.1557 -0.1654
14300TIP3    H264316   2.265   3.565  13.406 -1.4247 -0.5072  1.1863
14301TIP3   OH264317   4.066   6.338  16.490  0.0213 -0.0178  0.2534
14301TIP3    H164318   4.024   6.299  16.566 -0.6196  1.2711  0.5887
14301TIP3    H264319   3.993   6.369  16.436  0.4464  2.5457  0.9933
14302TIP3   OH264320   3.259   0.437  12.807 -0.6783 -0.3157 -0.0898
14302TIP3    H164321   3.278   0.352  12.847  1.0812  0.2215  0.2999
14302TIP3    H264322   3.302   0.500  12.864 -0.8222  0.7340 -1.1112
14303TIP3   OH264323   1.246   0.016  15.116 -0.1613  0.0425  0.1954
14303TIP3    H164324   1.246   0.099  15.069 -1.7101  0.3543  0.6821
14303TIP3    H264325   1.338  -0.010  15.120  0.1596  0.7964 -1.5898
14304TIP3   OH264326   3.418   6.654  15.795 -0.3998 -0.5502 -0.2928
14304TIP3    H164327   3.470   6.703  15.859  1.0735 -0.7502 -1.2817
14304TIP3    H264328   3.378   6.583  15.845 -1.1539  0.6161  0.8304
14305TIP3   OH264329   4.077   0.357   0.490 -0.1916  0.6187 -0.0797
14305TIP3    H164330   4.134   0.347   0.566  0.3866 -2.1101 -0.7882
14305TIP3    H264331   3.989   0.357   0.527  0.1268  1.2823  0.7219
14306TIP3   OH264332   2.049   2.211  11.465  0.1680 -0.4267 -0.3447
14306TIP3    H164333   2.143   2.227  11.476  0.1523  0.2442 -1.0383
14306TIP3    H264334   2.044   2.125  11.424  0.6316  0.4459 -2.3700
14307TIP3   OH264335   0.104   4.449   3.448  0.8996 -0.6934  0.5317
14307TIP3    H164336   0.048   4.379   3.483  0.1022 -0.4877 -0.2984
14307TIP3    H264337   0.050   4.492   3.382  1.9803 -0.3502 -0.1440
14308TIP3   OH264338   1.995   2.834  11.721  0.1542  0.5252  0.0966
14308TIP3    H164339   1.953   2.879  11.647 -0.0460  0.3615  0.1070
14308TIP3    H264340   1.946   2.864  11.798 -0.9509 -0.7982 -0.0363
14309TIP3   OH264341   5.136   0.015   2.732 -0.1534  0.3590 -0.1678
14309TIP3    H164342   5.227  -0.004   2.754 -0.1467  0.4424 -0.1230
14309TIP3    H264343   5.086  -0.011   2.809 -0.3254 -1.0660 -0.7382
14310TIP3   OH264344   2.570   1.648  13.174  0.2775  0.2018  0.1290
14310TIP3    H164345   2.656   1.690  13.166  0.3593 -0.1518 -1.0551
14310TIP3    H264346   2.509   1.720  13.190  0.6507  0.5709 -0.0965
14311TIP3   OH264347   2.112   5.692  10.714  0.0039  0.4393  0.2451
14311TIP3    H164348   2.092   5.768  10.660 -1.8410  2.4686  3.4446
14311TIP3    H264349   2.163   5.727  10.787  2.3681 -2.1491 -0.0003
14312TIP3   OH264350   3.963   3.693   3.877 -0.2399 -0.1735  0.0489
14312TIP3    H164351   3.921   3.609   3.896  0.2332  0.0965  2.7734
14312TIP3    H264352   4.053   3.670   3.855 -0.5065 -0.4624 -0.7501
14313TIP3   OH264353   3.384   6.391   1.110  0.0445 -0.1628 -0.8176
14313TIP3    H164354   3.442   6.460   1.141 -0.5600  1.3016 -2.7663
14313TIP3    H264355   3.431   6.351   1.037 -0.0045 -1.2406 -0.2846
14314TIP3   OH264356   2.812   0.046   0.073 -0.5275 -0.0227 -0.2994
14314TIP3    H164357   2.815   0.141   0.077  0.4617  0.0338 -1.5093
14314TIP3    H264358   2.890   0.022   0.022 -1.6712 -1.3619 -1.5219
14315TIP3   OH264359   1.413   4.496   4.343  0.0108  0.6050  0.5386
14315TIP3    H164360   1.473   4.486   4.417 -0.6412 -0.6629  0.9192
14315TIP3    H264361   1.376   4.409   4.329 -0.8932  1.1105 -0.4193
14316TIP3   OH264362   0.675   5.328  12.356 -0.0292  0.5619  0.0205
14316TIP3    H164363   0.696   5.371  12.274 -0.6209  2.8773  1.0009
14316TIP3    H264364   0.579   5.320  12.355 -0.1004  1.2049  0.7312
14317TIP3   OH264365   5.119   4.978  17.028 -0.0500  0.5197 -0.0209
14317TIP3    H164366   5.042   4.926  17.052  0.4814 -0.1649  0.2605
14317TIP3    H264367   5.181   4.962  17.099 -0.0615  1.9856  0.3442
14318TIP3   OH264368   0.084   3.088   4.797  0.0413  0.4780 -0.3266
14318TIP3    H164369   0.164   3.059   4.755  0.2212  1.0917 -0.4266
14318TIP3    H264370   0.029   3.121   4.726 -0.4616 -0.2868 -0.3047
14319TIP3   OH264371   0.560   5.311   0.206 -0.0307 -0.2897 -0.1786
14319TIP3    H164372   0.553   5.365   0.284  1.6741  0.5135 -0.5267
14319TIP3    H264373   0.578   5.223   0.239 -0.1673 -0.1226  0.3425
14320TIP3   OH264374   3.269   3.526  13.823 -0.2785 -0.4982 -0.0280
14320TIP3    H164375   3.289   3.619  13.828  0.7821 -0.7464  0.6309
14320TIP3    H264376   3.241   3.502  13.911  2.5961 -1.4534  0.7145
14321TIP3   OH264377   0.101   2.265  15.096 -0.3856 -0.1985  0.3604
14321TIP3    H164378   0.188   2.233  15.073 -0.3734 -2.3217  2.8495
14321TIP3    H264379   0.109   2.360  15.094  0.9412 -0.2339 -2.8306
14322TIP3   OH264380   3.284   4.637  12.603 -0.5278 -0.3327  0.0471
14322TIP3    H164381   3.238   4.573  12.549  2.1572 -1.0227 -1.5920
14322TIP3    H264382   3.307   4.590  12.682 -0.1465 -0.8660 -0.3749
14323TIP3   OH264383   5.637   6.654   2.003 -0.4059 -0.2528 -0.3204
14323TIP3    H164384   5.574   6.691   1.940 -2.1367 -2.2126  0.1372
14323TIP3    H264385   5.708   6.619   1.949 -0.8212 -0.0044 -1.0349
14324TIP3   OH264386   3.780   4.100   0.911 -0.5639 -0.8655 -0.0450
14324TIP3    H164387   3.738   4.117   0.995 -0.6620 -0.6599 -0.1348
14324TIP3    H264388   3.873   4.092   0.932 -0.7990 -3.0078  0.4130
14325TIP3   OH264389   5.231   0.446   1.879  0.2023 -0.2574  0.0323
14325TIP3    H164390   5.179   0.461   1.800  1.8655  0.3922 -0.9870
14325TIP3    H264391   5.188   0.500   1.946  0.8465  2.1393 -1.3523
14326TIP3   OH264392   3.457   5.497   1.988 -0.7759  0.0258 -0.2541
14326TIP3    H164393   3.407   5.418   2.009  0.2707 -0.7066 -0.4126
14326TIP3    H264394   3.423   5.525   1.903 -1.4687  0.0201  0.0141
14327TIP3   OH264395   2.193   3.807   1.570  0.6554  0.2649 -0.1111
14327TIP3    H164396   2.101   3.790   1.552  1.0440  0.1984 -2.4734
14327TIP3    H264397   2.199   3.814   1.665 -1.8602  0.8497  0.0651
14328TIP3   OH264398   1.792   0.428   3.667 -0.0158 -0.7608 -0.5077
14328TIP3    H164399   1.726   0.495   3.650  0.1022 -0.3339  0.6200
14328TIP3    H264400   1.746   0.359   3.714 -0.1480 -1.5255 -1.7120
14329TIP3   OH264401   4.870   3.305  11.552  0.3660 -0.2320 -0.4613
14329TIP3    H164402   4.849   3.258  11.471  1.0274  1.1606 -1.4879
14329TIP3    H264403   4.849   3.396  11.532  1.9418  0.3506  0.4222
14330TIP3   OH264404   6.521   4.242  12.129  0.2425 -0.1925  0.2661
14330TIP3    H164405   6.567   4.300  12.189  2.7280 -2.1059  0.3762
14330TIP3    H264406   6.494   4.168  12.183 -1.3164 -0.0196 -0.2111
14331TIP3   OH264407   1.070   1.132  14.171  0.1951 -0.0162 -0.1559
14331TIP3    H164408   1.099   1.176  14.250  1.3363 -2.7782  1.0935
14331TIP3    H264409   1.132   1.060  14.159 -1.8215 -1.6576 -1.6897
14332TIP3   OH264410   0.132   4.856   0.155 -0.3956  0.1769  0.1730
14332TIP3    H164411   0.170   4.769   0.162  1.3728  1.0956  3.8756
14332TIP3    H264412   0.204   4.911   0.125 -1.0106  0.7269 -0.3297
14333TIP3   OH264413   6.163   1.168  16.098 -0.3678  0.4682  0.4222
14333TIP3    H164414   6.117   1.240  16.053  1.4399  2.2448  1.2605
14333TIP3    H264415   6.150   1.187  16.191  0.1605 -0.3008  0.6554
14334TIP3   OH264416   6.002   4.210  15.415 -0.0888  0.5820 -0.2124
14334TIP3    H164417   6.079   4.246  15.460 -0.4517 -0.6900  1.5120
14334TIP3    H264418   6.037   4.135  15.366 -0.0670  0.6191 -0.2542
14335TIP3   OH264419   1.853   3.663  15.552  0.6768 -0.4181  0.0651
14335TIP3    H164420   1.829   3.634  15.464 -0.1661  1.0904 -0.2337
14335TIP3    H264421   1.771   3.695  15.590  1.7002  2.6955 -0.1088
14336TIP3   OH264422   4.043   2.743  12.465 -0.2599 -0.0674 -0.2260
14336TIP3    H164423   4.000   2.824  12.493  0.9254  0.7538 -0.6590
14336TIP3    H264424   4.072   2.702  12.546  0.6957  0.8744 -0.0609
14337TIP3   OH264425   0.540   6.155  12.870  0.1483 -0.1292  0.0073
14337TIP3    H164426   0.557   6.076  12.819 -0.5497 -0.1472 -0.2120
14337TIP3    H264427   0.565   6.132  12.960  0.4520 -0.4173 -0.1498
14338TIP3   OH264428   3.587   6.112   3.534  0.2508  0.2126  0.5674
14338TIP3    H164429   3.611   6.191   3.486 -0.9560  0.5085  0.4265
14338TIP3    H264430   3.510   6.078   3.489  0.2664 -0.5916  1.1212
14339TIP3   OH264431   5.865   1.128  15.495  0.2225  0.7764 -0.4033
14339TIP3    H164432   5.820   1.090  15.570  2.5600  1.2971  1.3967
14339TIP3    H264433   5.803   1.191  15.458 -1.2470 -0.0098  0.6531
14340TIP3   OH264434   2.033   2.967   2.988  0.2638  0.8307  0.1142
14340TIP3    H164435   1.967   2.911   3.029  1.7048 -0.7738  0.3826
14340TIP3    H264436   2.064   3.024   3.058 -1.1466  1.9450 -0.1341
14341TIP3   OH264437   0.078   5.151   0.751  0.2638 -0.1356 -0.6149
14341TIP3    H164438   0.048   5.205   0.823  2.1187 -0.2926  0.3325
14341TIP3    H264439   0.174   5.149   0.760  0.3475 -2.6795 -1.2238
14342TIP3   OH264440   0.296   3.322  15.227  0.6304 -0.2911  0.1600
14342TIP3    H164441   0.207   3.288  15.229  0.5556 -0.0644  0.7080
14342TIP3    H264442   0.304   3.364  15.142  0.9639 -2.3250 -0.8757
14343TIP3   OH264443   6.679   6.315   3.653 -0.4698  0.1890  0.1078
14343TIP3    H164444   6.767   6.349   3.667  0.3768 -2.3794  1.7640
14343TIP3    H264445   6.622   6.391   3.659  1.6423  2.1072 -2.0202
14344TIP3   OH264446   0.660   0.082  12.002  0.2024  0.0159  0.1886
14344TIP3    H164447   0.709  -0.000  12.000 -0.5270 -0.4658 -2.5717
14344TIP3    H264448   0.646   0.103  11.909 -0.2041  2.9292  0.8298
14345TIP3   OH264449   0.849   3.061   1.494  0.2065 -0.6102  0.1957
14345TIP3    H164450   0.860   3.120   1.568 -1.8412 -1.1824  1.0162
14345TIP3    H264451   0.804   3.114   1.428  0.8298 -0.4969 -0.1550
14346TIP3   OH264452   1.115   6.127  13.908 -0.0737 -0.3786 -0.0167
14346TIP3    H164453   1.049   6.071  13.868  0.3136  0.1073 -1.3981
14346TIP3    H264454   1.102   6.213  13.868  0.7042 -0.0104  0.4833
14347TIP3   OH264455   0.412   4.898   6.436  0.3304 -0.2618 -0.1792
14347TIP3    H164456   0.461   4.894   6.354 -0.3489  0.4603 -0.6301
14347TIP3    H264457   0.355   4.821   6.434 -0.0850  0.0519 -0.6512
14348TIP3   OH264458   2.441   5.767   3.462  0.2976 -0.2597 -0.0803
14348TIP3    H164459   2.349   5.774   3.435  0.3155 -1.2417 -0.4486
14348TIP3    H264460   2.465   5.856   3.487 -0.7294  0.0322 -0.0530
14349TIP3   OH264461   0.508   3.170   2.693  0.3123  0.0635  0.0110
14349TIP3    H164462   0.526   3.089   2.647 -2.7868 -1.0715  0.5589
14349TIP3    H264463   0.429   3.205   2.651 -1.6997 -0.1998  3.2354
14350TIP3   OH264464   5.526   0.190   1.974 -0.4367  0.0528 -0.1133
14350TIP3    H164465   5.439   0.203   2.010 -0.6284 -1.6723  0.1044
14350TIP3    H264466   5.515   0.124   1.906  0.9062 -1.4488  1.0249
14351TIP3   OH264467   1.495   3.235  15.038  0.1164  0.1311 -0.3004
14351TIP3    H164468   1.466   3.264  15.124 -0.4348 -0.1309 -0.3893
14351TIP3    H264469   1.566   3.174  15.056 -0.0918 -0.0331 -0.0200
14352TIP3   OH264470   5.239   4.973   3.813 -0.0501 -0.2974 -0.1267
14352TIP3    H164471   5.191   4.903   3.859  2.7431 -2.2734  0.0134
14352TIP3    H264472   5.245   5.043   3.877 -0.0221 -1.2663  0.9690
14353TIP3   OH264473   4.676   2.493   1.657  0.2116 -0.3238 -0.0054
14353TIP3    H164474   4.633   2.471   1.740 -2.2488  0.1046 -1.0525
14353TIP3    H264475   4.713   2.580   1.671  0.1729 -0.4307  0.7811
14354TIP3   OH264476   6.732   1.287  13.453 -0.2028 -0.0401 -0.0283
14354TIP3    H164477   6.821   1.294  13.488  0.0616  1.4726 -0.9058
14354TIP3    H264478   6.733   1.206  13.402  0.1032 -1.0151  1.4600
14355TIP3   OH264479   2.278   5.262   5.015  0.4113 -0.2006 -0.1044
14355TIP3    H164480   2.264   5.355   5.033 -0.0124 -0.8865  4.0400
14355TIP3    H264481   2.197   5.234   4.973  0.0148  1.0379 -0.2167
14356TIP3   OH264482   2.048   2.868  13.959  0.1315 -0.1601  0.5966
14356TIP3    H164483   2.134   2.831  13.941  1.8250  3.6535 -0.1791
14356TIP3    H264484   2.024   2.912  13.878 -2.0036 -0.0858  1.2121
14357TIP3   OH264485   3.641   6.689  16.433  0.0314 -0.4598  0.2460
14357TIP3    H164486   3.639   6.601  16.394  0.5771  0.0144 -0.8828
14357TIP3    H264487   3.692   6.741  16.372 -1.2831  0.9410  0.2821
14358TIP3   OH264488   6.420   2.644  10.970 -0.1713  0.0052  0.1311
14358TIP3    H164489   6.349   2.694  11.010  0.1411  0.8359 -0.3185
14358TIP3    H264490   6.435   2.686  10.885  1.4996  0.4878  0.6192
14359TIP3   OH264491   0.490   0.400   1.325  0.4682 -0.2329 -0.7076
14359TIP3    H164492   0.538   0.483   1.331 -0.2771  0.1300  0.8011
14359TIP3    H264493   0.551   0.335   1.361  0.2869  0.0413  0.1347
14360TIP3   OH264494   1.680   6.313  15.709 -0.4754 -0.2968 -0.2465
14360TIP3    H164495   1.746   6.291  15.774 -0.7980  1.4705  0.7738
14360TIP3    H264496   1.725   6.371  15.647 -0.8196  0.2018 -0.0434
14361TIP3   OH264497   2.427   6.251   4.731 -0.0677 -0.0187  0.3954
14361TIP3    H164498   2.437   6.241   4.826  0.2673 -0.0597  0.3544
14361TIP3    H264499   2.458   6.169   4.694 -4.0853 -1.8270  0.4514
14362TIP3   OH264500   2.240   1.105  12.653 -0.0440 -0.5398  0.4364
14362TIP3    H164501   2.151   1.097  12.687 -0.6818 -0.3038 -1.1111
14362TIP3    H264502   2.239   1.058  12.570  0.4195  1.9714 -1.1127
14363TIP3   OH264503   5.753   0.723  15.512 -0.1918 -0.0297  0.2080
14363TIP3    H164504   5.832   0.729  15.565 -0.6899  2.4214  0.8304
14363TIP3    H264505   5.687   0.771  15.563 -1.4488 -0.0595 -1.3286
14364TIP3   OH264506   4.596   5.367  13.384 -0.4433 -0.2728 -0.1194
14364TIP3    H164507   4.509   5.372  13.344 -0.0339 -1.4892 -1.2478
14364TIP3    H264508   4.583   5.316  13.464 -0.7017 -0.8484 -0.5237
14365TIP3   OH264509   4.168   3.693   0.753 -0.0980  0.0119  0.1924
14365TIP3    H164510   4.151   3.784   0.726 -0.4652  0.5904  2.1732
14365TIP3    H264511   4.093   3.644   0.720 -0.5018  0.6679  0.1003
14366TIP3   OH264512   3.229   2.027   4.513 -0.4465 -0.0052  0.1143
14366TIP3    H164513   3.278   2.109   4.511 -1.5802  0.6842 -1.6720
14366TIP3    H264514   3.296   1.959   4.513  0.5147  0.8707  1.5744
14367TIP3   OH264515   6.527   1.385  14.465 -0.1012 -0.0458 -0.5166
14367TIP3    H164516   6.548   1.296  14.438  0.2256 -0.1839  0.1689
14367TIP3    H264517   6.445   1.378  14.513  0.1772 -0.0620 -0.0315
14368TIP3   OH264518   6.222   5.612  14.256 -0.9588  0.0962 -0.1103
14368TIP3    H164519   6.174   5.635  14.177 -1.2832 -0.6529 -0.1395
14368TIP3    H264520   6.197   5.521  14.274  1.1496 -0.6529 -0.6764
14369TIP3   OH264521   2.944   0.161   5.465 -0.2070 -0.5980 -0.3615
14369TIP3    H164522   2.878   0.198   5.405  0.3843  0.4914 -0.3726
14369TIP3    H264523   3.026   0.202   5.438  0.1832 -0.6086  0.7626
14370TIP3   OH264524   0.559   6.735   1.715  0.3111  0.0896 -0.5926
14370TIP3    H164525   0.643   6.749   1.670 -0.2636 -0.4181 -1.8749
14370TIP3    H264526   0.561   6.644   1.743  0.7169  0.4358  0.5776
14371TIP3   OH264527   3.495   4.776  16.881  0.1200  0.2539 -0.8320
14371TIP3    H164528   3.415   4.737  16.847  0.2217 -0.8322  0.1223
14371TIP3    H264529   3.467   4.860  16.918 -0.4655  0.1689 -1.0718
14372TIP3   OH264530   4.235   2.969   2.752 -0.2219  0.5912 -0.1484
14372TIP3    H164531   4.313   2.915   2.740  0.9410  1.7093  1.8343
14372TIP3    H264532   4.255   3.051   2.707 -0.6021  0.5883 -0.3268
14373TIP3   OH264533   5.976   5.838  17.168 -0.1739 -0.1794 -0.4020
14373TIP3    H164534   5.886   5.825  17.139  0.1395 -0.4750 -1.2798
14373TIP3    H264535   6.029   5.795  17.101  0.5760 -1.1924  0.8071
14374TIP3   OH264536   0.209   2.614  12.657 -0.3423 -0.2890  0.3540
14374TIP3    H164537   0.132   2.565  12.626  0.4076 -1.5388  0.3771
14374TIP3    H264538   0.191   2.705  12.633 -1.8292 -0.5540  0.3714
14375TIP3   OH264539   1.525   2.028  14.461 -0.3173  0.4952  0.2830
14375TIP3    H164540   1.500   2.039  14.553  0.4944  0.7658  0.4809
14375TIP3    H264541   1.446   1.993  14.419 -1.2183  1.8536  0.7578
14376TIP3   OH264542   6.686   6.015  15.356  0.5683  0.0438 -0.3865
14376TIP3    H164543   6.608   5.992  15.305  1.4494 -1.3442 -1.1644
14376TIP3    H264544   6.737   5.934  15.361  2.2387  1.0403 -0.3831
14377TIP3   OH264545   1.767   2.470  10.847  0.2691  0.1713  0.4192
14377TIP3    H164546   1.699   2.535  10.829 -0.0204 -0.6525 -1.7966
14377TIP3    H264547   1.848   2.511  10.817  0.3304  0.1223  0.5182
14378TIP3   OH264548   5.429   1.268  15.798  0.0355 -0.3746 -0.7601
14378TIP3    H164549   5.488   1.338  15.770 -0.0814  0.3572  0.7502
14378TIP3    H264550   5.375   1.308  15.866 -0.9192 -1.5747 -0.7782
14379TIP3   OH264551   3.651   0.782   3.852  0.1541 -0.2472  0.2027
14379TIP3    H164552   3.568   0.747   3.884  0.6377 -0.1781  1.5831
14379TIP3    H264553   3.632   0.873   3.828 -0.0304 -0.0171  1.1809
14380TIP3   OH264554   5.488   6.323   2.434  0.0768 -0.2510  0.1018
14380TIP3    H164555   5.428   6.281   2.495  1.5505 -1.3433  0.8699
14380TIP3    H264556   5.572   6.280   2.450  0.9547  0.8576 -1.2937
14381TIP3   OH264557   5.552   6.264   1.096 -0.4179  0.4736  0.4890
14381TIP3    H164558   5.614   6.210   1.046  0.6296 -1.4376  3.5405
14381TIP3    H264559   5.467   6.246   1.056  0.5968  1.0037 -2.0750
14382TIP3   OH264560   6.216   6.615   3.522 -0.2436 -0.4484 -0.1760
14382TIP3    H164561   6.190   6.706   3.537  0.9216 -0.3184  1.3213
14382TIP3    H264562   6.270   6.618   3.443 -0.2034  0.1601 -0.1348
14383TIP3   OH264563   6.581   1.648  17.062 -0.1766 -0.0687 -0.2335
14383TIP3    H164564   6.495   1.631  17.101 -0.4516 -1.2950 -1.2991
14383TIP3    H264565   6.634   1.572  17.086  0.9264  1.0681  1.1503
14384TIP3   OH264566   0.219   5.783   5.899 -0.2447  0.1895 -0.0008
14384TIP3    H164567   0.215   5.802   5.993 -2.6834  2.1755 -0.3962
14384TIP3    H264568   0.132   5.748   5.878 -0.1165  0.7804 -1.6683
14385TIP3   OH264569   5.078   0.342  13.784  0.3787 -0.1043 -0.3562
14385TIP3    H164570   5.111   0.429  13.762 -0.2959 -0.0168 -1.0740
14385TIP3    H264571   5.056   0.302  13.700  0.0415 -0.7107  0.0094
14386TIP3   OH264572   0.907   4.033   3.878 -0.2319 -0.1997 -0.0155
14386TIP3    H164573   0.875   4.103   3.822 -2.5710 -0.4670  0.8457
14386TIP3    H264574   0.891   4.064   3.967  0.2304 -1.1636  0.4192
14387TIP3   OH264575   1.272   1.639   3.991  0.2244 -0.2129  0.5455
14387TIP3    H164576   1.358   1.597   3.981  0.4832  0.3079  0.5322
14387TIP3    H264577   1.292   1.722   4.035 -0.4234 -0.6684  1.7379
14388TIP3   OH264578   3.006   2.790   4.047  0.1635  0.4717 -0.4263
14388TIP3    H164579   2.919   2.751   4.054  0.4442  0.0021  0.4583
14388TIP3    H264580   2.988   2.885   4.045 -0.5185  0.3586 -2.7012
14389TIP3   OH264581   4.550   4.508   6.332  0.1397 -0.0077  0.2154
14389TIP3    H164582   4.584   4.457   6.405 -0.0316  1.8819  1.6841
14389TIP3    H264583   4.598   4.591   6.336 -1.3822  0.9449 -0.4948
14390TIP3   OH264584   5.804   2.021  13.223  0.1465 -0.6998  0.4010
14390TIP3    H164585   5.717   2.061  13.230 -0.1652 -1.4328  0.7607
14390TIP3    H264586   5.799   1.943  13.278  2.0447  0.9687  3.1557
14391TIP3   OH264587   1.413   2.384   6.318  0.9232 -0.2074  0.0259
14391TIP3    H164588   1.327   2.388   6.360  0.0452 -0.2252 -1.6692
14391TIP3    H264589   1.470   2.436   6.374 -0.3882  0.5063  0.7474
14392TIP3   OH264590   5.032   2.558  11.644  0.2594 -0.5725  0.1979
14392TIP3    H164591   5.080   2.533  11.566 -2.1895 -2.3281 -0.8961
14392TIP3    H264592   4.988   2.640  11.620  0.1091 -0.7150 -0.0245
14393TIP3   OH264593   5.228   0.726  13.507 -0.5215 -0.2601  0.1656
14393TIP3    H164594   5.317   0.699  13.530 -0.8180 -0.5805  0.9660
14393TIP3    H264595   5.215   0.693  13.418  0.6479  0.9934 -0.4990
14394TIP3   OH264596   2.883   3.459  10.400 -0.4088  0.1142 -0.1850
14394TIP3    H164597   2.977   3.480  10.397 -0.4723  0.3124 -1.0211
14394TIP3    H264598   2.853   3.495  10.483  0.2846 -0.0551  0.1449
14395TIP3   OH264599   0.356   1.151  11.243  0.1577  0.5207  0.7215
14395TIP3    H164600   0.282   1.212  11.244  0.6022  1.1347 -0.8605
14395TIP3    H264601   0.416   1.187  11.308 -0.6094  0.4246  1.5012
14396TIP3   OH264602   5.552   0.268   5.725 -0.3768 -0.3304 -0.2113
14396TIP3    H164603   5.545   0.299   5.635  0.6922  3.2632  0.7475
14396TIP3    H264604   5.636   0.221   5.728  0.5359  1.1783 -0.7641
14397TIP3   OH264605   3.797   6.754  16.196  0.4999 -0.1679 -0.1534
14397TIP3    H164606   3.742   6.722  16.124  0.6293  0.5086 -0.5625
14397TIP3    H264607   3.883   6.768  16.156  0.7490 -0.4157  0.2906
14398TIP3   OH264608   1.918   5.009  11.998 -0.4673  0.3249 -0.0340
14398TIP3    H164609   1.886   5.066  12.069 -0.8762  0.4824 -0.3396
14398TIP3    H264610   2.010   5.033  11.988 -0.2764 -0.0344  0.7623
14399TIP3   OH264611   2.806   5.963  14.527 -0.4224 -0.4555 -0.4046
14399TIP3    H164612   2.766   5.960  14.440  1.3790 -0.5526 -1.2894
14399TIP3    H264613   2.821   6.057  14.542 -1.1445 -0.4035  0.0137
14400TIP3   OH264614   1.113   5.832  12.502 -0.5860 -0.2836 -0.4832
14400TIP3    H164615   1.174   5.761  12.480 -1.2888 -0.8086 -0.7670
14400TIP3    H264616   1.127   5.847  12.595 -0.5044 -0.8774 -0.3940
14401TIP3   OH264617   5.709   1.322  15.392  0.0307 -0.3131 -1.2402
14401TIP3    H164618   5.663   1.400  15.359  0.7784  1.1361  0.9574
14401TIP3    H264619   5.641   1.273  15.439  0.3046  1.0585  0.7067
14402TIP3   OH264620   0.033   3.199  12.179 -0.0287 -0.0860  0.2504
14402TIP3    H164621   0.107   3.164  12.129  0.1614  0.7441 -0.0695
14402TIP3    H264622  -0.039   3.204  12.117  1.0800  4.1169 -1.0317
14403TIP3   OH264623   6.314   1.894  15.867  0.3604 -0.4342  0.5979
14403TIP3    H164624   6.262   1.972  15.849  0.2280 -1.1592 -2.7294
14403TIP3    H264625   6.253   1.821  15.856  1.2335 -1.1482  0.3633
14404TIP3   OH264626   1.384   5.355  15.654  0.3907 -0.1010 -0.5828
14404TIP3    H164627   1.329   5.306  15.593 -2.2797  0.8357  0.9111
14404TIP3    H264628   1.345   5.339  15.740  2.4457  0.7232  0.5838
14405TIP3   OH264629   5.144   3.644   5.520  0.3570 -0.0294  0.3850
14405TIP3    H164630   5.233   3.667   5.496  0.1769  1.0820  0.7078
14405TIP3    H264631   5.103   3.728   5.544 -0.8637 -0.4702 -0.0624
14406TIP3   OH264632   0.298   5.614  13.908  0.1135 -0.1115  0.5275
14406TIP3    H164633   0.258   5.658  13.982  3.1871 -0.3905  2.5353
14406TIP3    H264634   0.230   5.554  13.875 -1.7167  0.8738  2.3220
14407TIP3   OH264635   4.585   3.036  15.737  0.7935 -0.9005  0.0196
14407TIP3    H164636   4.612   3.115  15.784  0.1471 -0.9412  0.4776
14407TIP3    H264637   4.658   3.016  15.679  0.8227  0.2240 -0.3408
14408TIP3   OH264638   0.533   5.794  14.470 -0.1166 -0.4467 -0.2346
14408TIP3    H164639   0.456   5.737  14.472 -0.0477 -0.5257  2.0516
14408TIP3    H264640   0.547   5.819  14.561  2.2344  0.0430 -0.6797
14409TIP3   OH264641   4.885   0.399   7.048 -0.2203  0.1911 -0.0344
14409TIP3    H164642   4.960   0.393   6.989  0.0995  0.4569  0.3408
14409TIP3    H264643   4.897   0.482   7.094 -1.1748  0.6275 -0.5526
14410TIP3   OH264644   0.383   3.903  14.912 -0.0414 -0.0986 -0.8290
14410TIP3    H164645   0.288   3.907  14.918 -0.0151 -0.4641  0.0044
14410TIP3    H264646   0.415   3.956  14.985  0.4342  1.5195 -2.1418
14411TIP3   OH264647   0.967   0.622  16.407  0.2391 -0.6314  0.1541
14411TIP3    H164648   0.988   0.529  16.400  0.5560 -0.5826  0.4293
14411TIP3    H264649   0.980   0.656  16.318  0.4276 -0.7886  0.1208
14412TIP3   OH264650   1.209   1.275   0.808 -0.1277  0.0096  1.2235
14412TIP3    H164651   1.230   1.183   0.821 -0.7215 -0.3525 -0.1667
14412TIP3    H264652   1.126   1.287   0.854 -1.3305 -0.8137 -0.6080
14413TIP3   OH264653   2.529   2.327   2.045  0.0999 -0.6767 -0.1573
14413TIP3    H164654   2.449   2.357   2.088  0.0394 -0.7646 -0.2094
14413TIP3    H264655   2.529   2.232   2.054 -0.9145 -0.9039 -2.0473
14414TIP3   OH264656   0.360   1.913  12.848  0.0706  0.2090  0.2240
14414TIP3    H164657   0.427   1.930  12.914  2.0973  0.0005 -1.6719
14414TIP3    H264658   0.342   1.999  12.809 -0.7342  0.2496  0.6555
14415TIP3   OH264659   2.740   3.147  12.037  0.5552  0.0976 -0.2170
14415TIP3    H164660   2.663   3.122  12.088 -0.8062 -0.7602 -2.5533
14415TIP3    H264661   2.715   3.228  11.992  1.4395  0.4290 -0.1396
14416TIP3   OH264662   2.450   1.951   1.957  0.2688 -0.8700 -0.0031
14416TIP3    H164663   2.529   1.935   1.905  1.5652 -0.3773  1.7145
14416TIP3    H264664   2.412   1.864   1.969 -0.1046 -0.9860 -1.7915
14417TIP3   OH264665   1.873   4.650  13.826  0.0872  0.1702 -0.0949
14417TIP3    H164666   1.958   4.616  13.801  1.1856  2.8107 -0.2565
14417TIP3    H264667   1.837   4.687  13.745 -0.0581  1.2923  0.4541
14418TIP3   OH264668   5.417   2.734  15.869 -0.2222  0.5649  0.1729
14418TIP3    H164669   5.382   2.741  15.780  3.2865  2.1820 -1.2541
14418TIP3    H264670   5.400   2.644  15.894 -1.0554 -0.0376 -2.2730
14419TIP3   OH264671   4.767   2.126  16.239 -0.0357 -0.0946 -0.2683
14419TIP3    H164672   4.844   2.088  16.196 -0.0183 -1.7006  1.1032
14419TIP3    H264673   4.767   2.088  16.327 -0.6545  2.2873  0.8453
14420TIP3   OH264674   1.418   3.847  11.778  0.0015  0.3855 -0.3137
14420TIP3    H164675   1.439   3.932  11.815 -1.0315  0.9508 -0.9792
14420TIP3    H264676   1.431   3.858  11.684  0.2684 -0.3244 -0.3707
14421TIP3   OH264677   1.675   0.691   5.929 -0.2651 -0.2460 -0.2662
14421TIP3    H164678   1.630   0.665   6.009  2.6430  1.4769  2.1395
14421TIP3    H264679   1.649   0.782   5.916  0.8032  0.1089 -0.0481
14422TIP3   OH264680   1.938   3.058   0.540  0.4376 -0.1409  0.3000
14422TIP3    H164681   1.906   3.034   0.627 -1.1255  1.8763  0.3465
14422TIP3    H264682   1.868   3.032   0.480  0.1163  1.2826  0.0246
14423TIP3   OH264683   6.697   3.598  12.576  0.2390 -0.0642 -0.5170
14423TIP3    H164684   6.731   3.653  12.505  1.6939  0.4558  0.5329
14423TIP3    H264685   6.711   3.508  12.546  0.5177  0.1515 -1.0430
14424TIP3   OH264686   5.355   1.413  12.981  0.3999  0.6484  0.3217
14424TIP3    H164687   5.319   1.330  13.010  1.9441  0.2410  1.1472
14424TIP3    H264688   5.316   1.427  12.894  2.0103 -2.1655 -0.9504
14425TIP3   OH264689   0.638   0.670   3.929 -0.6133 -0.0524  0.9105
14425TIP3    H164690   0.546   0.697   3.929 -1.1829 -1.7215 -1.4984
14425TIP3    H264691   0.652   0.632   4.016 -2.4331 -0.4743  1.0579
14426TIP3   OH264692   3.606   1.840  13.262 -0.6256  0.2169 -0.2057
14426TIP3    H164693   3.510   1.845  13.267 -0.8694 -2.6681 -0.5198
14426TIP3    H264694   3.633   1.802  13.345 -0.2306 -2.9634 -1.6691
14427TIP3   OH264695   4.664   3.015  15.159 -0.3137  0.1503 -0.2174
14427TIP3    H164696   4.624   3.067  15.089  0.4381  0.3340 -0.5204
14427TIP3    H264697   4.735   2.968  15.115 -1.2506 -1.5006 -0.0621
14428TIP3   OH264698   4.243   2.205  12.573 -0.8844 -0.1620  0.3158
14428TIP3    H164699   4.250   2.275  12.507 -0.5270 -0.6797 -0.2073
14428TIP3    H264700   4.330   2.202  12.613 -0.5347 -1.0934 -0.4855
14429TIP3   OH264701   5.544   2.665  10.656 -0.3445 -0.3791  0.4086
14429TIP3    H164702   5.584   2.607  10.592 -0.6181  0.3289 -0.4266
14429TIP3    H264703   5.512   2.739  10.605  0.7498  0.9311  1.5272
14430TIP3   OH264704   2.769   5.155  10.383  0.2410 -0.0725 -0.0629
14430TIP3    H164705   2.747   5.193  10.298  1.8987  1.2663  0.0548
14430TIP3    H264706   2.809   5.227  10.432  2.0020 -1.5485  0.7940
14431TIP3   OH264707   1.690   2.078   3.893  0.0664  0.2934 -0.2325
14431TIP3    H164708   1.741   1.999   3.876 -0.0877  0.2437 -0.4685
14431TIP3    H264709   1.612   2.068   3.839  0.3203  0.8799 -0.7098
14432TIP3   OH264710   0.696   0.634   5.402  0.5706 -0.1898  0.1817
14432TIP3    H164711   0.761   0.614   5.470  1.2837  0.5202 -0.2637
14432TIP3    H264712   0.746   0.630   5.320 -0.3197 -1.2456 -0.3416
14433TIP3   OH264713   3.023   0.604   0.561  0.4035  0.3797  0.4076
14433TIP3    H164714   2.955   0.565   0.616 -0.3788  0.8799 -0.1799
14433TIP3    H264715   3.014   0.698   0.577 -1.1022  0.7207 -1.9271
14434TIP3   OH264716   4.601   4.911   1.910  0.3654  0.2749  0.4883
14434TIP3    H164717   4.540   4.899   1.837  0.7374  1.0998  0.0272
14434TIP3    H264718   4.665   4.841   1.900  0.2728  0.2339  0.1772
14435TIP3   OH264719   1.266   2.833  14.247  0.6347 -0.0635  0.0104
14435TIP3    H164720   1.360   2.844  14.261  0.4452  2.2427 -0.2764
14435TIP3    H264721   1.236   2.784  14.324  2.2836 -2.4300 -0.7085
14436TIP3   OH264722   6.270   6.394   3.977  0.6082  0.0706  0.3243
14436TIP3    H164723   6.178   6.419   3.968 -0.0170 -1.1109  2.5925
14436TIP3    H264724   6.277   6.310   3.932  0.7801  0.5030 -0.4744
14437TIP3   OH264725   5.096   5.088  16.589  0.3581 -0.4796  0.6301
14437TIP3    H164726   5.150   5.073  16.511  1.0462  0.2571  0.9546
14437TIP3    H264727   5.158   5.121  16.654 -0.4703  0.2487  1.0508
14438TIP3   OH264728   4.394   2.920  12.071 -0.1308 -0.3367 -0.2315
14438TIP3    H164729   4.478   2.967  12.075  1.0655 -2.3049 -0.7353
14438TIP3    H264730   4.363   2.919  12.162 -0.6612  2.1110 -0.3213
14439TIP3   OH264731   4.582   3.692   3.116  0.0000 -0.1562  0.3022
14439TIP3    H164732   4.504   3.645   3.145  0.6677 -1.1485  0.5569
14439TIP3    H264733   4.562   3.720   3.027 -0.9625  0.3498  0.6666
14440TIP3   OH264734   0.733   2.798   3.779  0.1110 -0.0088  0.6280
14440TIP3    H164735   0.773   2.873   3.822  0.0078  0.6556 -0.4148
14440TIP3    H264736   0.745   2.726   3.842  0.8744  0.6920  1.3182
14441TIP3   OH264737   4.615   4.976   4.721  0.5504  0.4199 -0.0015
14441TIP3    H164738   4.636   4.972   4.627 -2.1870  0.8765 -0.7275
14441TIP3    H264739   4.668   5.048   4.755  1.4739  0.3534 -1.2331
14442TIP3   OH264740   3.133   0.044  16.752  0.7158  0.4077 -0.5934
14442TIP3    H164741   3.072   0.088  16.692  0.3556 -0.3009 -0.7634
14442TIP3    H264742   3.171  -0.027  16.699  0.9740  0.2561 -0.2081
14443TIP3   OH264743   0.651   6.095  13.384  0.5709  0.8459 -0.6779
14443TIP3    H164744   0.649   6.176  13.435 -0.3464  0.5736 -0.2702
14443TIP3    H264745   0.741   6.065  13.391  0.1622 -0.0077  2.1166
14444TIP3   OH264746   0.348   6.784   2.370  0.0072  0.1413 -0.3140
14444TIP3    H164747   0.287   6.710   2.367  0.0471  0.1373 -1.1060
14444TIP3    H264748   0.386   6.779   2.458  0.2850 -1.0168 -0.4819
14445TIP3   OH264749   2.229   1.300  13.827 -0.0697 -0.1220 -0.3710
14445TIP3    H164750   2.163   1.265  13.887  0.1708 -1.8361 -1.0513
14445TIP3    H264751   2.313   1.277  13.869  0.1321  1.4367  0.1486
14446TIP3   OH264752   2.314   6.713  10.426  0.4088 -0.3487  0.5387
14446TIP3    H164753   2.254   6.641  10.444 -2.2484  2.0727  2.2847
14446TIP3    H264754   2.386   6.700  10.488 -0.2857 -1.2014  1.1945
14447TIP3   OH264755   0.617   1.169  17.051 -0.0006  0.2325  0.2176
14447TIP3    H164756   0.709   1.145  17.063 -0.2873 -0.6735  0.7289
14447TIP3    H264757   0.574   1.088  17.024 -0.6241  0.6880 -0.1989
14448TIP3   OH264758   2.099   1.189  13.127 -0.3170 -0.2811 -0.8715
14448TIP3    H164759   2.158   1.222  13.060 -1.3305 -2.9191 -3.2696
14448TIP3    H264760   2.042   1.263  13.148  1.7956  1.4131 -0.7569
14449TIP3   OH264761   3.477   1.350  12.907  0.2300 -0.4450  0.5697
14449TIP3    H164762   3.453   1.437  12.876 -0.3654 -0.2616  1.5072
14449TIP3    H264763   3.556   1.364  12.960 -0.0771 -0.4086  1.0271
14450TIP3   OH264764   2.256   1.101  17.070 -0.0328  0.0764 -0.2768
14450TIP3    H164765   2.167   1.107  17.105 -1.0953  0.9729 -2.8688
14450TIP3    H264766   2.298   1.182  17.099  0.0318 -0.4152  1.0834
14451TIP3   OH264767   1.552   4.894   2.818 -0.2323 -0.4132  0.3037
14451TIP3    H164768   1.571   4.987   2.829 -2.5000 -0.1316  2.9199
14451TIP3    H264769   1.618   4.863   2.756  0.9467  2.7799 -0.2299
14452TIP3   OH264770   3.069   3.812  13.209 -0.4021 -0.6716 -0.1903
14452TIP3    H164771   2.980   3.791  13.236 -1.1327  1.8013 -0.4690
14452TIP3    H264772   3.097   3.881  13.269  0.9160 -0.6380 -0.8076
14453TIP3   OH264773   1.150   3.663   3.619  0.3613 -0.0099  0.2159
14453TIP3    H164774   1.097   3.695   3.692 -1.0362 -2.0914  0.2275
14453TIP3    H264775   1.100   3.686   3.541  0.1621 -0.6961  0.1348
14454TIP3   OH264776   5.230   1.975  12.489  0.6758  0.6572  0.4729
14454TIP3    H164777   5.155   1.918  12.501  1.6113 -0.2840  2.2686
14454TIP3    H264778   5.201   2.040  12.425 -1.2193 -0.3965  0.1915
14455TIP3   OH264779   6.659   5.604  16.593 -0.6375  0.0475  0.0804
14455TIP3    H164780   6.706   5.618  16.675 -1.6770  0.3062  0.6568
14455TIP3    H264781   6.665   5.510  16.577 -1.0219 -0.1130  0.8306
14456TIP3   OH264782   1.490   5.090  16.429  0.5628  0.6983  0.2087
14456TIP3    H164783   1.480   5.131  16.515 -1.9535 -0.2142  0.4155
14456TIP3    H264784   1.490   4.996  16.447  1.6111  0.5026 -0.6860
14457TIP3   OH264785   0.752   0.537  12.065  0.1898  0.1227 -0.2475
14457TIP3    H164786   0.824   0.503  12.012  0.3397  1.0373 -0.6642
14457TIP3    H264787   0.725   0.617  12.019  0.0148  0.6910  0.8208
14458TIP3   OH264788   0.280   2.138  16.824 -0.7420 -0.4926 -0.4189
14458TIP3    H164789   0.294   2.232  16.840  2.5919 -1.0538  0.7326
14458TIP3    H264790   0.263   2.132  16.730  1.5598  1.1117 -1.0281
14459TIP3   OH264791   4.775   6.408   1.539  0.0749 -0.0048  0.2020
14459TIP3    H164792   4.738   6.416   1.451  0.2101 -0.9456  0.0497
14459TIP3    H264793   4.711   6.449   1.596 -0.1542  0.3496 -0.3056
14460TIP3   OH264794   0.178   0.953  13.032 -0.4626 -0.3206 -0.0275
14460TIP3    H164795   0.190   1.047  13.043 -1.1083 -0.3817  1.4211
14460TIP3    H264796   0.085   0.939  13.046 -0.4452 -1.1352 -0.6444
14461TIP3   OH264797   6.684   0.860  11.148  0.2519 -0.2712 -0.2165
14461TIP3    H164798   6.704   0.867  11.055  1.3871 -0.5580 -0.0042
14461TIP3    H264799   6.644   0.944  11.170 -3.4168 -1.4168 -1.7266
14462TIP3   OH264800   3.231   5.090  11.470  0.3687 -0.1101  0.2444
14462TIP3    H164801   3.176   5.165  11.494 -0.4334 -0.6630  0.1792
14462TIP3    H264802   3.299   5.088  11.538 -0.3154 -0.0448  0.9537
14463TIP3   OH264803   0.751   6.105  11.648  0.0016 -0.4104  0.4755
14463TIP3    H164804   0.743   6.193  11.612 -0.9604 -1.5471 -2.3205
14463TIP3    H264805   0.836   6.074  11.619 -0.4037 -1.0216 -0.0830
14464TIP3   OH264806   2.485   6.591  15.326  0.8446 -0.3831 -0.1852
14464TIP3    H164807   2.527   6.515  15.286  0.9285 -2.0256  2.7359
14464TIP3    H264808   2.546   6.619  15.394 -0.5968  0.2897  0.8944
14465TIP3   OH264809   1.909   5.119  16.566  0.1545 -0.3053 -0.2233
14465TIP3    H164810   1.868   5.035  16.586 -0.0487 -0.4583 -1.2642
14465TIP3    H264811   1.866   5.149  16.486  1.8854 -0.3399 -1.2021
14466TIP3   OH264812   4.042   0.514   4.359  0.1027  0.2247 -0.1205
14466TIP3    H164813   4.119   0.565   4.334  0.4926 -0.4702 -0.3391
14466TIP3    H264814   4.075   0.445   4.415 -0.5114  0.5711  0.7032
14467TIP3   OH264815   4.884   5.693  14.297  0.5823 -0.3308  0.3531
14467TIP3    H164816   4.814   5.758  14.299  1.8202  1.0888 -0.3556
14467TIP3    H264817   4.916   5.694  14.207 -0.9460 -3.7870 -0.4194
14468TIP3   OH264818   2.457   1.748   2.667  0.3340  0.7273  0.2932
14468TIP3    H164819   2.454   1.774   2.759 -1.4443 -0.4734  0.6248
14468TIP3    H264820   2.546   1.769   2.639  0.6872  1.8060  2.0667
14469TIP3   OH264821   4.577   4.365  14.286  0.3689  0.8451  0.1941
14469TIP3    H164822   4.607   4.390  14.198  1.1690  1.3192  0.5921
14469TIP3    H264823   4.568   4.448  14.332 -1.7765  0.7489  0.0502
14470TIP3   OH264824   4.283   1.063   4.883  0.5201 -0.5073 -0.2294
14470TIP3    H164825   4.367   1.021   4.904  0.4980 -1.5206 -1.9900
14470TIP3    H264826   4.271   1.048   4.790 -0.2261  2.2225 -0.6578
14471TIP3   OH264827   2.911   6.679  12.477  0.2391 -0.0065 -0.1243
14471TIP3    H164828   2.947   6.693  12.389 -2.1855 -0.5577 -1.3173
14471TIP3    H264829   2.896   6.584  12.481 -0.5774  0.1430  0.4833
14472TIP3   OH264830   6.551   6.542   3.645 -0.0666 -0.2003  0.0653
14472TIP3    H164831   6.473   6.568   3.695 -0.2784  3.1106 -1.6757
14472TIP3    H264832   6.621   6.597   3.680  0.1330  1.0146 -2.0443
14473TIP3   OH264833   4.786   2.559   0.314 -0.1453  0.0239  0.2985
14473TIP3    H164834   4.850   2.546   0.384 -0.2230  3.0297  1.0879
14473TIP3    H264835   4.833   2.536   0.234  0.6998 -1.2927  1.1505
14474TIP3   OH264836   6.107   5.008  12.502  0.3686 -0.0302 -0.0599
14474TIP3    H164837   6.105   4.927  12.552  3.9457 -1.8368 -2.4696
14474TIP3    H264838   6.174   5.061  12.545 -0.2429  0.6575  0.0679
14475TIP3   OH264839   0.984   6.291  12.267 -0.2444  0.1848  0.3078
14475TIP3    H164840   0.891   6.305  12.248 -0.2592  0.7153  0.7216
14475TIP3    H264841   0.987   6.274  12.361  0.0228 -0.3814  0.1994
14476TIP3   OH264842   0.268   6.485  11.948  0.1878 -0.0427  0.6467
14476TIP3    H164843   0.290   6.513  11.860  0.2177 -3.5674 -0.6376
14476TIP3    H264844   0.352   6.470  11.991  0.1919 -0.3892  0.5183
14477TIP3   OH264845   6.054   3.124  15.450  0.3576  0.5635  0.1446
14477TIP3    H164846   6.142   3.128  15.414  0.2381 -0.1942 -0.2674
14477TIP3    H264847   6.010   3.201  15.413  0.3825  0.0613 -0.9666
14478TIP3   OH264848   0.972   0.401   1.683  0.2696  0.2159  0.1693
14478TIP3    H164849   1.061   0.406   1.648  0.0693 -0.5597 -0.4571
14478TIP3    H264850   0.957   0.308   1.698 -0.2639  0.3877  0.7407
14479TIP3   OH264851   6.385   5.821  13.255 -0.6377  0.3364 -0.1884
14479TIP3    H164852   6.302   5.859  13.282  0.2358  1.4164  1.1134
14479TIP3    H264853   6.440   5.896  13.232  0.2457 -0.2948 -0.1911
14480TIP3   OH264854   3.810   4.259  10.740 -0.1893  0.3705 -0.3098
14480TIP3    H164855   3.837   4.344  10.707 -1.1486  0.5375 -0.6935
14480TIP3    H264856   3.760   4.278  10.819 -0.8351  0.1950 -0.6767
14481TIP3   OH264857   3.856   1.373  11.805 -0.8867  0.2209  0.3032
14481TIP3    H164858   3.861   1.278  11.797  1.1316  0.0863  2.1648
14481TIP3    H264859   3.838   1.403  11.716 -0.9256 -1.8709 -0.4558
14482TIP3   OH264860   1.400   2.935   5.866  0.0890 -0.3197  0.9544
14482TIP3    H164861   1.356   2.946   5.951 -0.1511 -2.6297  1.1940
14482TIP3    H264862   1.443   2.850   5.873  1.8836  0.4089 -0.4947
14483TIP3   OH264863   5.779   3.819  16.223  0.1758 -0.5426 -0.9914
14483TIP3    H164864   5.769   3.906  16.263  0.7555 -0.4875 -0.9479
14483TIP3    H264865   5.691   3.784  16.218 -0.0963  0.1712 -1.2686
14484TIP3   OH264866   5.211   3.600   3.817 -0.1406 -0.5273 -0.2451
14484TIP3    H164867   5.144   3.567   3.758  0.9243 -1.6697 -0.8538
14484TIP3    H264868   5.264   3.660   3.764  0.3743 -0.9872 -0.2572
14485TIP3   OH264869   4.501   6.396  10.421  0.6410 -0.1955 -0.0488
14485TIP3    H164870   4.571   6.339  10.453  0.7255 -1.2191 -1.9194
14485TIP3    H264871   4.544   6.454  10.357 -0.1614 -0.7776 -1.1520
14486TIP3   OH264872   5.117   0.636   1.090  0.1458  0.3731  0.4217
14486TIP3    H164873   5.168   0.612   1.168  2.8669 -1.6914 -1.7924
14486TIP3    H264874   5.064   0.558   1.071  1.3480 -0.1247 -1.0883
14487TIP3   OH264875   4.659   6.540  14.871 -0.5887 -0.7030 -0.5514
14487TIP3    H164876   4.670   6.507  14.960 -1.8469 -1.7762 -0.7531
14487TIP3    H264877   4.637   6.462  14.820  2.0750 -0.4759 -2.2371
14488TIP3   OH264878   0.910   0.644   5.914  0.0903  0.0179  0.0804
14488TIP3    H164879   0.865   0.597   5.844 -1.1570  0.0051  0.8587
14488TIP3    H264880   0.853   0.718   5.933  1.7324  1.5664 -0.7208
14489TIP3   OH264881   1.612   5.136   4.297  0.6800 -0.2549 -0.0322
14489TIP3    H164882   1.575   5.186   4.224  1.9504 -0.5209 -0.8909
14489TIP3    H264883   1.698   5.174   4.310  0.6433 -0.5242  1.0344
14490TIP3   OH264884   0.902   3.100   4.578 -0.1367 -0.1477  0.3490
14490TIP3    H164885   0.847   3.156   4.633 -0.6187 -0.7265  0.4697
14490TIP3    H264886   0.861   3.104   4.491 -0.3637 -0.5684  0.4352
14491TIP3   OH264887   2.195   1.482   2.768  0.3058  0.6697 -0.1814
14491TIP3    H164888   2.214   1.388   2.769  2.4064  1.0355 -1.1440
14491TIP3    H264889   2.192   1.507   2.860 -0.7381 -0.3969  0.1015
14492TIP3   OH264890   4.674   0.074  11.830 -0.7977 -0.3281  0.1423
14492TIP3    H164891   4.721   0.157  11.829 -2.0840  0.4647  1.5155
14492TIP3    H264892   4.741   0.008  11.811  0.1952  1.0071 -1.2332
14493TIP3   OH264893   2.382   2.884  13.625 -0.0567 -0.3985 -0.1730
14493TIP3    H164894   2.332   2.877  13.543 -0.3320  0.6116 -0.0923
14493TIP3    H264895   2.462   2.833  13.607 -0.0167 -0.0174 -1.1471
14494TIP3   OH264896   6.499   1.817  13.762  0.0362  0.2868  0.5053
14494TIP3    H164897   6.488   1.779  13.849  2.4194  0.5361  0.9751
14494TIP3    H264898   6.418   1.866  13.747 -0.7561 -0.4164  2.2228
14495TIP3   OH264899   6.356   4.974   4.501 -0.4573 -0.0519  0.0282
14495TIP3    H164900   6.325   5.027   4.575  2.4768  0.9424  0.6908
14495TIP3    H264901   6.388   4.893   4.542 -1.5770 -0.8293 -0.5709
14496TIP3   OH264902   4.092   0.132  13.655  1.1820  0.1510 -0.3427
14496TIP3    H164903   4.068   0.164  13.742 -2.6012 -0.2106 -1.0736
14496TIP3    H264904   4.111   0.211  13.605  0.3086  0.6498  0.0782
14497TIP3   OH264905   5.444   0.026  11.375  0.3878  0.1461 -0.2027
14497TIP3    H164906   5.481   0.013  11.288  1.2702  1.0820  0.0097
14497TIP3    H264907   5.519   0.047  11.430 -0.2205  0.0574  0.6791
14498TIP3   OH264908   3.362   5.886  14.157  0.3903 -0.5178 -0.3412
14498TIP3    H164909   3.393   5.973  14.184 -0.8852  0.8055 -2.8219
14498TIP3    H264910   3.434   5.850  14.107  1.0763 -1.1201  1.0214
14499TIP3   OH264911   3.548   6.331  15.822  0.3539  0.1672  0.4180
14499TIP3    H164912   3.601   6.260  15.858  2.5404  1.3482 -0.2606
14499TIP3    H264913   3.546   6.313  15.728 -0.0333  0.4019  0.3834
14500TIP3   OH264914   4.288   2.372   3.051  0.0639  0.7967  0.4496
14500TIP3    H164915   4.312   2.310   3.119 -0.6774  0.2754  0.2411
14500TIP3    H264916   4.262   2.318   2.976 -3.1625  1.2276  1.1097
14501TIP3   OH264917   2.803   2.275  12.176  0.2364 -0.9363 -0.0434
14501TIP3    H164918   2.886   2.306  12.212  0.4239 -2.2389  0.6921
14501TIP3    H264919   2.739   2.289  12.246  0.2735 -1.9241  0.2005
14502TIP3   OH264920   4.412   6.016  11.388 -0.0646  0.4056  0.2729
14502TIP3    H164921   4.431   5.948  11.452  1.4566  1.0718  0.5607
14502TIP3    H264922   4.318   6.007  11.371 -0.2545 -0.5544  1.6868
14503TIP3   OH264923   6.452   3.703   2.346  0.1972 -0.3269  0.4162
14503TIP3    H164924   6.515   3.729   2.279 -0.0805 -1.1610 -0.1807
14503TIP3    H264925   6.505   3.675   2.420  0.5242 -0.7312  0.0298
14504TIP3   OH264926   2.049   0.379   3.826  0.0133  0.1949  0.1645
14504TIP3    H164927   1.989   0.373   3.901 -1.8581 -0.1598 -1.2716
14504TIP3    H264928   1.992   0.367   3.750  1.9430 -0.0396 -1.2978
14505TIP3   OH264929   3.339   3.915   2.354 -0.1283  0.2696  0.0837
14505TIP3    H164930   3.323   4.009   2.341  0.2347  0.3217  0.0069
14505TIP3    H264931   3.294   3.873   2.281 -0.1865  0.3935  0.0472
14506TIP3   OH264932   4.329   0.702  13.767  0.6249  0.1802 -0.1418
14506TIP3    H164933   4.236   0.691  13.747  0.7739 -0.2237 -0.6400
14506TIP3    H264934   4.332   0.773  13.831 -0.0594 -0.0765  0.1816
14507TIP3   OH264935   0.264   1.655  12.837  0.5253  0.4722  0.8545
14507TIP3    H164936   0.171   1.665  12.816  0.7762  0.1824 -0.4861
14507TIP3    H264937   0.293   1.743  12.861 -0.7512  0.1093  4.4625
14508TIP3   OH264938   1.938   6.247  14.865 -0.3465  0.0763  0.3141
14508TIP3    H164939   1.912   6.335  14.838  0.6060 -0.1444 -1.5418
14508TIP3    H264940   1.856   6.199  14.874 -0.8133  0.7424 -0.2572
14509TIP3   OH264941   3.121   4.071   1.083 -0.0081  0.1020  0.1332
14509TIP3    H164942   3.182   4.136   1.119 -0.7764  0.5028  0.7462
14509TIP3    H264943   3.096   4.106   0.998 -0.5528  0.7234  0.5320
14510TIP3   OH264944   4.560   0.656  13.363 -0.2063 -0.1699  0.2435
14510TIP3    H164945   4.563   0.707  13.282  1.0409 -1.6769 -0.7388
14510TIP3    H264946   4.511   0.577  13.341  0.3732 -0.7271  0.8548
14511TIP3   OH264947   1.281   0.304   2.383 -0.1354  0.1943  0.0545
14511TIP3    H164948   1.230   0.252   2.321  0.9113 -3.1769  1.7706
14511TIP3    H264949   1.232   0.299   2.465  0.5058  1.1588  0.5276
14512TIP3   OH264950   1.519   3.102   0.332  0.3547 -0.2160  0.3022
14512TIP3    H164951   1.540   3.151   0.252  0.1532 -1.3812 -0.4845
14512TIP3    H264952   1.503   3.170   0.398 -0.9290  0.8037 -1.0015
14513TIP3   OH264953   3.726   5.311  13.454 -0.2468  0.1903 -0.1710
14513TIP3    H164954   3.675   5.377  13.406  0.5906  0.9980  0.0142
14513TIP3    H264955   3.737   5.348  13.541 -0.6246 -0.6695  0.2514
14514TIP3   OH264956   6.417   5.478   4.585 -0.1598  0.3076  0.3273
14514TIP3    H164957   6.355   5.431   4.529 -0.9075 -0.5766  1.8590
14514TIP3    H264958   6.389   5.570   4.578 -1.5346 -0.0453  0.8313
14515TIP3   OH264959   5.747   3.312   3.573  0.1986 -0.5861 -0.2594
14515TIP3    H164960   5.798   3.278   3.500  0.2420 -1.2976  0.1011
14515TIP3    H264961   5.771   3.405   3.577 -1.0470 -0.1150 -2.1917
14516TIP3   OH264962   4.930   4.108   2.165 -0.0559 -0.2315  0.7883
14516TIP3    H164963   4.950   4.152   2.082  0.9097  0.1633  1.2049
14516TIP3    H264964   4.851   4.151   2.196 -2.3657 -2.5404 -1.4349
14517TIP3   OH264965   1.436   5.870  16.377 -0.5001  0.1794 -0.4418
14517TIP3    H164966   1.396   5.922  16.307  0.3379  0.3718 -0.7848
14517TIP3    H264967   1.455   5.785  16.336 -0.7082  0.0276 -0.2288
14518TIP3   OH264968   6.722   5.717   3.573  0.6677 -0.0761  0.3171
14518TIP3    H164969   6.754   5.793   3.621 -1.5459  0.9262  0.3063
14518TIP3    H264970   6.792   5.652   3.583  2.2134  1.6124  1.1017
14519TIP3   OH264971   3.978   2.925   6.527 -0.5401  0.1358 -0.2740
14519TIP3    H164972   3.988   2.861   6.456 -0.8887  1.2220 -1.3307
14519TIP3    H264973   3.892   2.965   6.511  0.7978  2.8388 -1.3467
14520TIP3   OH264974   4.590   2.401  15.516 -0.4348 -0.4658  0.1789
14520TIP3    H164975   4.643   2.330  15.478 -2.1420 -1.1823 -0.9575
14520TIP3    H264976   4.593   2.385  15.611 -0.7759 -2.0651 -0.0524
14521TIP3   OH264977   2.451   6.034   5.786 -0.6076 -0.0978 -0.2100
14521TIP3    H164978   2.366   6.059   5.823 -1.3561 -0.6681 -1.4862
14521TIP3    H264979   2.509   6.030   5.862 -1.9571 -0.6982  0.8457
14522TIP3   OH264980   5.739   5.455  12.861  0.2415  0.4623 -0.5094
14522TIP3    H164981   5.726   5.529  12.920  0.6038 -0.1251  0.3187
14522TIP3    H264982   5.690   5.383  12.900  0.8664 -0.0619 -0.6696
14523TIP3   OH264983   0.201   6.243   0.358 -0.2662  0.0110  0.0054
14523TIP3    H164984   0.278   6.202   0.396 -0.1968 -0.1826 -0.3328
14523TIP3    H264985   0.207   6.335   0.382  0.6371  0.2127 -0.9323
14524TIP3   OH264986   0.363   1.586  10.876 -0.4293  0.0215 -0.3932
14524TIP3    H164987   0.377   1.674  10.841  0.1165  0.6666  1.3876
14524TIP3    H264988   0.269   1.583  10.896 -0.9209 -0.6302 -2.5282
14525TIP3   OH264989   3.846   3.583  13.518 -0.6672 -0.2480  0.1284
14525TIP3    H164990   3.884   3.587  13.606  0.7139 -2.4562 -0.2674
14525TIP3    H264991   3.893   3.651  13.469 -0.4007  0.0193  0.7377
14526TIP3   OH264992   4.715   4.495  11.806  0.6461 -0.0760  0.0609
14526TIP3    H164993   4.756   4.419  11.847  0.5910  1.1189  2.5474
14526TIP3    H264994   4.739   4.568  11.863 -5.1395  0.7178  2.0715
14527TIP3   OH264995   3.182   3.217   5.807 -0.0239 -0.1373  0.0294
14527TIP3    H164996   3.136   3.181   5.731 -1.8089 -0.1599  1.0669
14527TIP3    H264997   3.142   3.174   5.882 -0.4966  2.1289  1.1797
14528TIP3   OH264998   5.598   2.232  14.192 -0.6196 -0.0745 -0.5247
14528TIP3    H164999   5.544   2.311  14.202 -0.3612  0.2103 -1.2990
14528TIP3    H265000   5.631   2.215  14.280 -1.0513  0.4126 -0.2570
14529TIP3   OH265001   4.765   0.253  15.516 -0.3492 -0.2405 -0.3727
14529TIP3    H165002   4.778   0.341  15.552 -1.0365 -0.8658  1.5277
14529TIP3    H265003   4.719   0.267  15.433  0.3345  1.2157 -0.5346
14530TIP3   OH265004   1.517   4.917  12.616  0.4055  0.3926  0.3249
14530TIP3    H165005   1.603   4.899  12.579 -0.1944  1.8292 -1.9923
14530TIP3    H265006   1.533   4.939  12.707  2.4068  0.0799  0.0851
14531TIP3   OH265007   5.027   4.685  16.881  0.2693 -0.2847 -0.8064
14531TIP3    H165008   5.028   4.765  16.828 -2.4241  0.8499  0.6669
14531TIP3    H265009   4.934   4.669  16.900  0.8293 -2.9408  0.1963
14532TIP3   OH265010   6.098   3.322   3.079 -0.0731 -0.4907 -0.0666
14532TIP3    H165011   6.125   3.411   3.058 -1.4964 -0.4753 -2.1020
14532TIP3    H265012   6.161   3.266   3.034 -0.7796 -0.4737 -1.1038
14533TIP3   OH265013   3.226   0.327  16.484 -0.1845 -0.3612 -0.8603
14533TIP3    H165014   3.168   0.315  16.559 -1.1185  0.6716 -1.3812
14533TIP3    H265015   3.177   0.293  16.410  0.9822 -1.9582 -0.9512
14534TIP3   OH265016   1.617   3.535  16.937 -0.0070 -0.1412  0.3728
14534TIP3    H165017   1.587   3.536  17.028  0.0385  0.4633  0.3875
14534TIP3    H265018   1.550   3.486  16.890  1.4057 -3.1594  1.1944
14535TIP3   OH265019   4.882   3.323   5.241 -0.3902 -0.0088  0.0078
14535TIP3    H165020   4.875   3.405   5.289 -0.9105 -1.2449  2.1783
14535TIP3    H265021   4.924   3.263   5.302  0.4665 -1.2410 -1.7188
14536TIP3   OH265022   3.882   4.891   5.391  0.3069 -0.3394  0.1839
14536TIP3    H165023   3.905   4.815   5.445  0.6067 -1.0736 -0.9503
14536TIP3    H265024   3.876   4.963   5.453 -0.3947 -1.3610  1.3542
14537TIP3   OH265025   3.983   5.926  12.584 -0.0519  0.0338  0.0661
14537TIP3    H165026   3.922   5.969  12.525 -1.5901 -1.1248  0.7515
14537TIP3    H265027   4.070   5.951  12.551 -0.8407 -0.1582 -2.3562
14538TIP3   OH265028   2.442   4.222   0.425  0.3393  0.7425 -0.2002
14538TIP3    H165029   2.512   4.280   0.456  0.1869  2.0089 -2.0898
14538TIP3    H265030   2.434   4.240   0.332 -1.8099 -0.1366 -0.2597
14539TIP3   OH265031   2.178   1.701   2.155 -0.6418 -0.1414 -0.0499
14539TIP3    H165032   2.170   1.629   2.218  1.1561  2.2538  3.2723
14539TIP3    H265033   2.271   1.700   2.131 -0.8775  0.3068 -0.9935
14540TIP3   OH265034   0.566   4.798  16.290 -0.5456 -0.2736 -0.3841
14540TIP3    H165035   0.539   4.886  16.263  0.4872  0.8230  1.8190
14540TIP3    H265036   0.512   4.779  16.367 -0.7046 -1.5457 -0.8012
14541TIP3   OH265037   5.246   1.063  16.558 -0.0234  0.6955  0.0510
14541TIP3    H165038   5.154   1.084  16.542 -0.3053  0.2890  1.0368
14541TIP3    H265039   5.293   1.102  16.484 -1.0009  0.7677 -0.5524
14542TIP3   OH265040   6.231   2.725   0.699  0.7658 -0.4904  0.2961
14542TIP3    H165041   6.187   2.642   0.681  1.6411 -0.9067  0.0402
14542TIP3    H265042   6.318   2.715   0.660 -0.0040  1.5756 -2.2388
14543TIP3   OH265043   3.388   2.458  11.402 -0.0779 -0.0270  0.6839
14543TIP3    H165044   3.396   2.404  11.324 -2.6771  0.0430  0.2968
14543TIP3    H265045   3.445   2.415  11.466  1.7814 -0.3201 -1.0672
14544TIP3   OH265046   5.296   5.288   1.896  0.6349  0.0637 -0.8944
14544TIP3    H165047   5.330   5.351   1.832 -1.1972  0.2971 -1.7212
14544TIP3    H265048   5.272   5.341   1.972  0.5275  0.1380 -0.9802
14545TIP3   OH265049   4.035   3.931  13.814 -0.3462  0.3476 -0.4041
14545TIP3    H165050   3.960   3.981  13.781 -0.8686  0.0048  0.2462
14545TIP3    H265051   4.109   3.962  13.762 -0.8841  0.9103 -0.8479
14546TIP3   OH265052   3.002   2.340  14.331 -0.0700  0.1725 -0.3876
14546TIP3    H165053   2.949   2.300  14.401  0.6993 -1.9143 -0.9342
14546TIP3    H265054   2.943   2.405  14.291 -1.3242 -0.2689  0.6558
14547TIP3   OH265055   5.781   0.580   2.129 -0.3270 -0.2888  0.5687
14547TIP3    H165056   5.706   0.530   2.098 -0.0908 -0.0607 -0.4172
14547TIP3    H265057   5.781   0.659   2.075  0.5307 -0.2207  0.6557
14548TIP3   OH265058   1.478   2.064  14.730  0.1067 -0.0012  0.8842
14548TIP3    H165059   1.469   2.129  14.799  0.3339 -0.6091  1.4980
14548TIP3    H265060   1.567   2.030  14.741  1.0552  1.5851 -1.2191
14549TIP3   OH265061   3.839   3.884  15.403  0.0151 -0.0544  0.1693
14549TIP3    H165062   3.776   3.956  15.396 -0.7470 -0.7239  0.0662
14549TIP3    H265063   3.835   3.841  15.318  1.6303  0.7073 -0.3330
14550TIP3   OH265064   2.116   4.552  13.748  0.2536  0.5545 -0.0274
14550TIP3    H165065   2.146   4.472  13.790 -0.1223 -0.5078 -1.6910
14550TIP3    H265066   2.196   4.601  13.728  0.5166  0.3619  0.5490
14551TIP3   OH265067   2.064   5.971   5.752 -0.2572 -0.6021 -0.5064
14551TIP3    H165068   2.108   6.056   5.754  0.7624 -1.1292  0.7748
14551TIP3    H265069   2.113   5.917   5.814 -2.3523 -1.4175  0.5203
14552TIP3   OH265070   6.474   4.293  15.671  0.0573  0.0699 -0.1154
14552TIP3    H165071   6.547   4.351  15.694 -0.0391  1.0076 -2.0083
14552TIP3    H265072   6.508   4.205  15.687  1.0987  0.5512  0.4024
14553TIP3   OH265073   1.811   1.172  12.428 -0.1679 -0.5986 -0.2997
14553TIP3    H165074   1.736   1.135  12.476 -0.5242 -0.1569 -0.5094
14553TIP3    H265075   1.776   1.193  12.342 -0.1833  0.9253  0.0463
14554TIP3   OH265076   3.839   5.468  11.430 -0.5023 -0.1781 -0.0839
14554TIP3    H165077   3.852   5.375  11.449  1.2609  0.0564  0.0164
14554TIP3    H265078   3.797   5.470  11.345 -0.2473 -1.0657 -0.2403
14555TIP3   OH265079   0.121   5.272  16.781 -0.1907 -0.6186  0.0878
14555TIP3    H165080   0.048   5.233  16.829  1.2282 -1.1879  1.8902
14555TIP3    H265081   0.153   5.342  16.837  1.5402 -1.3255  0.0591
14556TIP3   OH265082   1.249   0.640  17.131  0.1212 -0.3029  0.0019
14556TIP3    H165083   1.256   0.623  17.225  0.2739 -0.4845 -0.0401
14556TIP3    H265084   1.170   0.593  17.104  0.4510 -0.8177 -0.0841
14557TIP3   OH265085   6.322   5.559  10.893  0.2643  0.0874 -0.3619
14557TIP3    H165086   6.362   5.475  10.918 -0.0187  0.0536 -0.0106
14557TIP3    H265087   6.360   5.622  10.954 -0.4517  0.0005  0.1929
14558TIP3   OH265088   1.173   4.062   3.556  0.5000  0.3445 -0.9613
14558TIP3    H165089   1.097   4.008   3.576  1.0496  0.9969  4.2364
14558TIP3    H265090   1.149   4.149   3.587  3.2812  0.5344  1.0338
14559TIP3   OH265091   1.251   0.246  10.996 -0.2942 -0.6431 -0.1622
14559TIP3    H165092   1.177   0.198  10.958  0.3552 -1.1883 -0.7632
14559TIP3    H265093   1.267   0.318  10.935 -0.9390  0.0692  0.4769
14560TIP3   OH265094   1.895   0.330  16.376 -0.5364 -0.4540  0.3523
14560TIP3    H165095   1.907   0.235  16.379  1.1466 -0.2421  1.7314
14560TIP3    H265096   1.974   0.362  16.332  0.2303  0.4576  2.2934
14561TIP3   OH265097   3.525   4.189   5.654  0.7582  0.1760  0.7236
14561TIP3    H165098   3.490   4.278   5.646  0.0079 -0.1453  0.2771
14561TIP3    H265099   3.507   4.165   5.745 -1.4472 -0.4629  0.1800
14562TIP3   OH265100   5.225   4.216   2.573  0.5260 -0.6156 -0.2320
14562TIP3    H165101   5.144   4.190   2.529 -0.6649 -0.8517  1.9646
14562TIP3    H265102   5.199   4.284   2.635  1.9201 -1.0167  0.8568
14563TIP3   OH265103   4.276   6.542   0.223  0.2502 -0.3753  0.4645
14563TIP3    H165104   4.187   6.568   0.246 -0.3029 -1.3491 -0.4900
14563TIP3    H265105   4.273   6.525   0.129  0.9564 -2.2187  0.7266
14564TIP3   OH265106   4.849   0.593   5.625  0.0016 -0.1068 -0.2012
14564TIP3    H165107   4.789   0.557   5.690  0.9725  1.8910  1.9298
14564TIP3    H265108   4.921   0.629   5.676  0.0130  3.0940 -2.1934
14565TIP3   OH265109   6.409   4.485  11.519  0.6781 -0.0302  0.3237
14565TIP3    H165110   6.339   4.482  11.454 -0.8199  2.7507  1.6458
14565TIP3    H265111   6.418   4.394  11.549 -1.8126 -0.5982 -0.4700
14566TIP3   OH265112   3.953   2.444   5.113 -0.2408 -0.3651  0.6419
14566TIP3    H165113   3.886   2.467   5.178 -0.6320  2.0176 -0.4811
14566TIP3    H265114   3.927   2.358   5.081 -2.6458  0.3582  0.4364
14567TIP3   OH265115   6.239   2.894  14.240  0.0654 -0.2085  0.9160
14567TIP3    H165116   6.301   2.946  14.291  0.5928  0.5924 -0.4882
14567TIP3    H265117   6.234   2.810  14.286 -0.0469  0.7137  2.6767
14568TIP3   OH265118   0.693   3.775   1.350 -0.3046 -0.6175 -0.3506
14568TIP3    H165119   0.744   3.781   1.269 -0.5618 -1.4752 -0.5888
14568TIP3    H265120   0.754   3.737   1.414  0.0011  0.3718 -0.0406
14569TIP3   OH265121   0.047   5.450   2.665  0.2836 -0.0874 -0.1770
14569TIP3    H165122   0.051   5.405   2.749  0.3391 -1.1013 -0.7097
14569TIP3    H265123  -0.025   5.513   2.675 -0.5522 -1.0753  0.2179
14570TIP3   OH265124   3.902   6.454   2.885 -0.5363 -0.0161 -0.4192
14570TIP3    H165125   3.872   6.431   2.973  1.0759  0.2345  0.2402
14570TIP3    H265126   3.825   6.444   2.830 -1.7958  0.6060  1.1449
14571TIP3   OH265127   3.985   5.590   2.081 -0.6979 -0.0064  0.0848
14571TIP3    H165128   4.063   5.641   2.060 -0.0621 -1.2349 -0.6585
14571TIP3    H265129   3.912   5.643   2.049 -0.0980  0.6660 -0.1924
14572TIP3   OH265130   2.744   5.163   3.891  0.2756 -0.0100 -0.0697
14572TIP3    H165131   2.824   5.121   3.859 -0.8946 -0.9455 -1.9115
14572TIP3    H265132   2.749   5.153   3.986  2.7911  0.8429 -0.0370
14573TIP3   OH265133   4.672   3.729  13.992 -0.0909  0.2331 -0.2744
14573TIP3    H165134   4.731   3.706  13.919 -0.1138 -1.0166  0.0845
14573TIP3    H265135   4.728   3.727  14.069 -0.7239 -1.8120  0.1933
14574TIP3   OH265136   6.724   4.064   0.365 -0.1640  0.2840 -0.4801
14574TIP3    H165137   6.736   4.155   0.339 -1.8318 -0.1239 -3.0557
14574TIP3    H265138   6.808   4.022   0.348  0.3961  1.1611  0.0427
14575TIP3   OH265139   1.362   0.927  15.459  0.0189 -0.5351  0.0179
14575TIP3    H165140   1.333   1.009  15.499 -0.1948 -0.0821 -1.0158
14575TIP3    H265141   1.284   0.892  15.417  0.1917 -1.0954  0.1527
14576TIP3   OH265142   2.291   2.200   4.950  0.4267 -0.3847 -0.4218
14576TIP3    H165143   2.220   2.234   5.005  1.7043  0.0253  1.0429
14576TIP3    H265144   2.247   2.163   4.874 -1.3512 -0.1433  0.4477
14577TIP3   OH265145   6.414   2.088   0.548 -0.1794 -0.0745 -0.7141
14577TIP3    H165146   6.439   2.022   0.484  0.1253 -1.7989  1.0951
14577TIP3    H265147   6.495   2.111   0.593 -0.4395  0.8845 -0.6972
14578TIP3   OH265148   2.127   2.245  15.427  0.4060 -0.2748 -0.0601
14578TIP3    H165149   2.219   2.265  15.412  0.7134 -0.6271  1.2952
14578TIP3    H265150   2.123   2.212  15.516 -1.2413  1.0267  0.4098
14579TIP3   OH265151   2.675   2.592  14.421  0.4382 -0.4177  0.2990
14579TIP3    H165152   2.737   2.561  14.355  0.5308  0.7246 -0.1773
14579TIP3    H265153   2.633   2.512  14.454  0.2856 -1.0123 -1.2338
14580TIP3   OH265154   2.289   4.646   0.533 -0.1387 -0.0991  0.7490
14580TIP3    H165155   2.301   4.599   0.450 -3.1180  0.1106  0.0874
14580TIP3    H265156   2.324   4.587   0.599  0.4385 -1.1830 -0.4773
14581TIP3   OH265157   2.521   3.721  12.654 -0.1545 -0.0664  0.3265
14581TIP3    H165158   2.595   3.727  12.714 -0.7135 -1.1718  1.1561
14581TIP3    H265159   2.444   3.738  12.710 -0.4773  3.2699 -0.8827
14582TIP3   OH265160   2.352   2.014   0.694  0.0097  0.0846  0.1895
14582TIP3    H165161   2.287   2.080   0.720  0.1681  0.5545 -0.6025
14582TIP3    H265162   2.317   1.931   0.728 -1.0203  0.3301 -0.2463
14583TIP3   OH265163   0.972   2.658   0.293 -0.2947  0.0176 -0.3138
14583TIP3    H165164   0.972   2.711   0.373  0.7507  0.7156 -0.7502
14583TIP3    H265165   1.030   2.705   0.233 -1.1127 -0.4686 -1.5143
14584TIP3   OH265166   4.651   3.894  14.503 -0.1632  0.3873  0.2434
14584TIP3    H165167   4.742   3.886  14.472 -0.2961  0.4799 -0.1776
14584TIP3    H265168   4.639   3.820  14.562 -0.3142 -0.5477 -0.9410
14585TIP3   OH265169   4.544   5.745   1.806  0.4778 -0.1053 -0.0368
14585TIP3    H165170   4.515   5.664   1.763 -0.9182 -0.3722  1.3017
14585TIP3    H265171   4.576   5.717   1.891  2.9492  0.4428 -0.7104
14586TIP3   OH265172   1.107   1.325  11.823 -0.3280  0.0965 -0.5416
14586TIP3    H165173   1.064   1.266  11.761  0.4851  0.0720 -1.1022
14586TIP3    H265174   1.043   1.395  11.837 -1.0983 -0.6395 -0.2698
14587TIP3   OH265175   0.202   6.506  13.530  0.5473 -0.1826  0.6193
14587TIP3    H165176   0.234   6.593  13.552  1.0958 -0.4584  0.9566
14587TIP3    H265177   0.192   6.507  13.435 -0.3052  0.5195  0.7017
14588TIP3   OH265178   0.470   4.418  15.860 -0.1719  0.7869  0.6637
14588TIP3    H165179   0.447   4.492  15.916  1.8901  1.3568  0.8568
14588TIP3    H265180   0.556   4.389  15.892 -0.5350 -1.1541  0.0363
14589TIP3   OH265181   4.432   2.633   1.037 -0.7516  0.0643 -0.1162
14589TIP3    H165182   4.471   2.687   0.967  1.3534  1.9879  2.3288
14589TIP3    H265183   4.482   2.552   1.035  0.0849  0.5632 -0.1759
14590TIP3   OH265184   3.751   5.593   2.423  0.4182  0.2231  0.0552
14590TIP3    H165185   3.719   5.594   2.333  0.4176 -0.6748  0.0390
14590TIP3    H265186   3.824   5.532   2.422  0.9536  0.8458  0.4911
14591TIP3   OH265187   4.477   3.187  11.041 -0.0172  0.2147  0.0901
14591TIP3    H165188   4.452   3.171  10.950  0.3951 -1.3072  0.2129
14591TIP3    H265189   4.399   3.224  11.082 -0.9143 -1.0783 -0.3969
14592TIP3   OH265190   3.072   3.790   2.420  0.2820  0.0612  0.2840
14592TIP3    H165191   3.134   3.722   2.394 -1.3425 -1.0447 -0.8541
14592TIP3    H265192   3.023   3.751   2.493 -1.1924 -0.3351 -0.8886
14593TIP3   OH265193   2.899   2.166   5.351 -0.0302 -0.6092 -0.1220
14593TIP3    H165194   2.946   2.122   5.279 -0.1808  0.6987 -1.0685
14593TIP3    H265195   2.955   2.240   5.373 -1.1651  0.4307 -0.6157
14594TIP3   OH265196   4.280   0.858   3.688 -0.2494 -0.6978 -0.8376
14594TIP3    H165197   4.327   0.932   3.648  0.6440 -0.0804  1.2066
14594TIP3    H265198   4.347   0.790   3.697  0.2823  0.0778  1.8196
14595TIP3   OH265199   0.171   3.669  14.599 -0.0391 -0.2006  0.1356
14595TIP3    H165200   0.256   3.640  14.565  0.0958  2.2606 -1.9110
14595TIP3    H265201   0.108   3.610  14.557  0.4576 -0.0238 -0.8965
14596TIP3   OH265202   1.817   5.845   0.634  0.3420  0.2783 -0.6789
14596TIP3    H165203   1.740   5.864   0.581 -0.4802  0.2203  0.4509
14596TIP3    H265204   1.878   5.917   0.617 -0.2790  0.7302 -1.0028
14597TIP3   OH265205   2.159   1.705   0.448 -0.0464 -0.6172 -0.0498
14597TIP3    H165206   2.146   1.779   0.507 -0.4323  0.2441 -1.1599
14597TIP3    H265207   2.080   1.652   0.459 -0.6934  0.1782 -0.6407
14598TIP3   OH265208   4.752   4.760  16.447 -0.1224 -0.1359 -0.2287
14598TIP3    H165209   4.716   4.741  16.360 -1.7407  0.1882  0.3290
14598TIP3    H265210   4.728   4.851  16.463  1.9963  0.4727 -0.2736
14599TIP3   OH265211   3.740   0.791   3.084  0.4891 -0.4061 -0.6091
14599TIP3    H165212   3.811   0.812   3.144 -0.9856 -1.0205  1.4712
14599TIP3    H265213   3.759   0.843   3.006  1.1452  2.5651  1.3275
14600TIP3   OH265214   3.813   0.889   1.667  0.2509 -0.5708 -0.2161
14600TIP3    H165215   3.898   0.900   1.711  0.2039  1.2259 -0.5001
14600TIP3    H265216   3.749   0.902   1.736  0.1982  0.5667 -0.4611
14601TIP3   OH265217   4.759   3.550  13.195  0.6322  0.9801  0.1270
14601TIP3    H165218   4.797   3.477  13.243  1.6777  1.1531 -0.4045
14601TIP3    H265219   4.834   3.593  13.153 -0.2941  0.2044 -2.5361
14602TIP3   OH265220   5.890   3.092  16.898  0.6075 -0.8083  0.1135
14602TIP3    H165221   5.967   3.090  16.842 -0.4200  0.7653 -1.4967
14602TIP3    H265222   5.921   3.131  16.980  1.5111 -0.0474 -0.5661
14603TIP3   OH265223   5.516   0.666   2.266  0.3274  0.4558 -0.1447
14603TIP3    H165224   5.535   0.575   2.242  0.5942  0.3787  0.3614
14603TIP3    H265225   5.578   0.686   2.335  0.1242  0.9572 -0.1076
14604TIP3   OH265226   0.620   2.270   3.095 -0.2438 -0.1441  0.6332
14604TIP3    H165227   0.622   2.193   3.038 -1.0321 -0.1801  0.6353
14604TIP3    H265228   0.660   2.340   3.043  1.0551 -0.6953  0.8644
14605TIP3   OH265229   5.335   4.345  12.046 -0.0135  0.5297  0.4640
14605TIP3    H165230   5.343   4.437  12.071 -1.0942  1.1982 -1.4469
14605TIP3    H265231   5.425   4.312  12.048  0.5095  1.8863  0.2651
14606TIP3   OH265232   3.596   1.530   5.191 -0.1521  0.1728  0.2182
14606TIP3    H165233   3.547   1.612   5.202 -1.2492 -0.1955 -1.5208
14606TIP3    H265234   3.591   1.511   5.097  2.0781 -0.6949  0.1999
14607TIP3   OH265235   5.620   3.601   3.845  0.2794 -0.0069 -0.0869
14607TIP3    H165236   5.685   3.627   3.780 -0.3058 -0.8343 -1.0342
14607TIP3    H265237   5.561   3.542   3.798  1.3460 -2.8326  1.8444
14608TIP3   OH265238   1.184   3.312   1.520 -0.2555  0.3749  0.4559
14608TIP3    H165239   1.258   3.360   1.485 -0.2789 -0.0719 -0.2290
14608TIP3    H265240   1.122   3.380   1.547  0.9734  0.7953  2.3815
14609TIP3   OH265241   3.243   1.745   3.510 -0.6425 -0.1227 -0.4114
14609TIP3    H165242   3.314   1.796   3.551 -0.3678 -1.7437  1.2595
14609TIP3    H265243   3.163   1.787   3.541 -0.4185 -0.0762  0.1170
14610TIP3   OH265244   1.554   4.474   2.676 -0.1433 -0.2143 -0.1354
14610TIP3    H165245   1.606   4.492   2.754 -0.8206 -3.6323  1.2738
14610TIP3    H265246   1.467   4.511   2.695 -0.0941 -0.3747  0.4018
14611TIP3   OH265247   6.004   0.353  12.540 -0.1293 -0.3008 -0.0101
14611TIP3    H165248   5.962   0.437  12.520 -0.2625 -0.5656 -0.9087
14611TIP3    H265249   6.097   0.369  12.525 -0.1677 -0.3430 -0.2997
14612TIP3   OH265250   4.943   0.901  17.029  0.0749  0.2475 -0.1768
14612TIP3    H165251   4.947   0.868  16.940 -1.0810 -1.8690  0.4920
14612TIP3    H265252   4.887   0.979  17.024 -2.1046 -1.2819 -0.9638
14613TIP3   OH265253   2.036   3.067  12.937  0.4378  0.4382  0.3786
14613TIP3    H165254   2.118   3.094  12.895  0.4820 -0.0794  0.1162
14613TIP3    H265255   1.971   3.130  12.906  1.1109  2.0837  2.1830
14614TIP3   OH265256   4.873   1.543  14.180  0.2484 -0.1877  0.5092
14614TIP3    H165257   4.928   1.522  14.105  0.1426  0.8370  0.1204
14614TIP3    H265258   4.892   1.475  14.245 -0.8723 -2.0598 -1.0449
14615TIP3   OH265259   1.921   3.758   1.319 -0.0794 -0.0142 -0.2123
14615TIP3    H165260   1.873   3.675   1.329  0.1276 -0.1478 -0.3178
14615TIP3    H265261   1.963   3.772   1.404  1.8695 -1.2658 -0.9008
14616TIP3   OH265262   3.579   5.630   4.494 -0.0921 -0.1123 -0.1365
14616TIP3    H165263   3.533   5.547   4.505 -0.5287 -0.1498 -2.0004
14616TIP3    H265264   3.672   5.607   4.493 -0.2257 -0.6119 -0.9346
14617TIP3   OH265265   4.331   6.193   4.793  0.0321 -0.2926 -0.3516
14617TIP3    H165266   4.401   6.248   4.760 -0.7152  0.4863 -0.6676
14617TIP3    H265267   4.328   6.119   4.733  0.2323 -0.0615 -0.6471
14618TIP3   OH265268   6.472   3.259   3.783  0.1347 -0.1510  0.2893
14618TIP3    H165269   6.424   3.339   3.805 -1.9644 -0.9210 -1.2025
14618TIP3    H265270   6.513   3.278   3.699  1.0653 -0.0854  0.7485
14619TIP3   OH265271   4.457   5.127  12.224 -0.1053  0.1584  0.3781
14619TIP3    H165272   4.474   5.068  12.150  0.4299 -1.0634  1.4473
14619TIP3    H265273   4.384   5.181  12.195 -0.0750 -0.4706 -0.9490
14620TIP3   OH265274   4.544   1.821   5.840  0.4429 -0.2553 -0.2696
14620TIP3    H165275   4.530   1.750   5.903  0.6938 -0.6886 -0.6928
14620TIP3    H265276   4.639   1.831   5.837  0.4389 -0.3549 -0.7093
14621TIP3   OH265277   1.270   1.632  14.607  0.0636 -0.2433  0.0361
14621TIP3    H165278   1.312   1.649  14.691  1.3306  1.1295 -0.8041
14621TIP3    H265279   1.199   1.571  14.626  0.7125 -0.4391  1.9805
14622TIP3   OH265280   1.483   4.559  14.309  0.2319 -0.5309  0.5697
14622TIP3    H165281   1.455   4.640  14.265 -0.2715  0.0396  1.8694
14622TIP3    H265282   1.412   4.498  14.295  0.3583 -0.5640  0.0609
14623TIP3   OH265283   0.213   6.296   5.373 -0.1289  0.3085 -0.1109
14623TIP3    H165284   0.179   6.385   5.380 -1.2894 -0.0851 -0.6626
14623TIP3    H265285   0.253   6.280   5.459  0.1539  1.3742 -0.0245
14624TIP3   OH265286   6.604   2.503   5.330 -0.7503  0.3222 -0.1488
14624TIP3    H165287   6.610   2.586   5.376 -1.5846  1.7262 -2.3676
14624TIP3    H265288   6.689   2.461   5.343 -0.0701  1.8346  0.4760
14625TIP3   OH265289   6.607   3.717  12.958 -0.1917 -0.0425 -0.0156
14625TIP3    H165290   6.617   3.810  12.979  0.0905 -0.3174  1.1846
14625TIP3    H265291   6.689   3.692  12.917  0.0641  0.0475  0.4410
14626TIP3   OH265292   0.462   1.642   5.810 -0.1534 -0.0879 -0.8470
14626TIP3    H165293   0.403   1.655   5.736  0.1775 -1.1459 -1.3146
14626TIP3    H265294   0.404   1.624   5.884 -0.4529 -0.5513 -1.1853
14627TIP3   OH265295   0.840   5.906  12.486 -0.5012 -0.3483  1.0354
14627TIP3    H165296   0.798   5.841  12.430 -0.1899  1.0518 -0.9394
14627TIP3    H265297   0.929   5.874  12.498  0.7040  1.1082 -2.6476
14628TIP3   OH265298   1.105   4.408   3.975 -0.2506 -0.7900 -0.9048
14628TIP3    H165299   1.037   4.462   3.935 -0.2815 -0.6169 -0.6205
14628TIP3    H265300   1.181   4.466   3.982 -0.0779 -0.9782 -1.2092
14629TIP3   OH265301   6.576   6.131   2.336 -0.0976  0.0662  0.1346
14629TIP3    H165302   6.555   6.129   2.243 -0.8924  0.9707  0.2789
14629TIP3    H265303   6.622   6.049   2.352 -0.3052 -0.2802 -0.9720
14630TIP3   OH265304   4.102   5.354   0.533  0.3953 -0.2620  0.0600
14630TIP3    H165305   4.060   5.439   0.546  1.1430  0.1894 -0.3426
14630TIP3    H265306   4.042   5.291   0.571 -0.5612  0.3729 -0.3454
14631TIP3   OH265307   4.352   3.921  14.521 -0.1997  0.6577  0.3532
14631TIP3    H165308   4.364   3.977  14.597 -0.3804 -0.0394  0.9090
14631TIP3    H265309   4.434   3.929  14.472 -0.2870  1.5218  0.3353
14632TIP3   OH265310   3.070   0.256   1.687 -0.4334  0.9154  0.0918
14632TIP3    H165311   3.086   0.343   1.724 -0.2978  0.5473  0.9132
14632TIP3    H265312   2.975   0.251   1.678 -0.4631  1.0326  0.3309
14633TIP3   OH265313   5.974   1.887   3.942 -0.1526  0.2502 -0.5321
14633TIP3    H165314   6.057   1.841   3.930 -0.1813  0.6091 -2.5201
14633TIP3    H265315   5.961   1.935   3.860  0.0941  4.1960  1.4886
14634TIP3   OH265316   1.735   2.367  12.365  0.6599 -0.2246  0.4981
14634TIP3    H165317   1.817   2.391  12.321 -0.0484  0.4270 -0.5163
14634TIP3    H265318   1.752   2.280  12.401  1.1563 -1.0178 -1.4938
14635TIP3   OH265319   4.007   6.643   2.461  0.3658 -0.1307 -0.6085
14635TIP3    H165320   4.074   6.579   2.482  1.2406  0.8194 -0.4579
14635TIP3    H265321   3.961   6.606   2.385  0.5779 -1.1217 -0.2598
14636TIP3   OH265322   1.590   0.067  11.224 -0.6389 -0.5548  0.1990
14636TIP3    H165323   1.550  -0.001  11.170 -0.6746  0.6539 -1.3702
14636TIP3    H265324   1.669   0.026  11.260 -1.1554 -1.7094  0.0478
14637TIP3   OH265325   2.059   3.102   2.202 -0.2403  0.3284  0.6580
14637TIP3    H165326   1.972   3.068   2.179 -0.3236 -0.0581  1.5286
14637TIP3    H265327   2.041   3.170   2.267  0.0143  1.2484 -0.2002
14638TIP3   OH265328   3.210   3.729   5.709  0.4012 -0.2495 -0.2607
14638TIP3    H165329   3.284   3.752   5.765  0.1780  0.8129 -0.3912
14638TIP3    H265330   3.205   3.800   5.646 -1.4683  0.2907  0.4589
14639TIP3   OH265331   0.661   2.854  13.878 -0.2566  0.5525 -0.0351
14639TIP3    H165332   0.695   2.880  13.964 -1.1210  0.2232  0.4201
14639TIP3    H265333   0.581   2.906  13.867 -1.3377 -0.9774  0.3440
14640TIP3   OH265334   1.545   2.016   4.884  1.0354  0.6048  0.4917
14640TIP3    H165335   1.472   1.972   4.840  1.6715  1.9047 -2.0647
14640TIP3    H265336   1.540   1.985   4.975 -1.5979 -0.6968  0.0146
14641TIP3   OH265337   3.676   0.940   5.590 -0.3241  0.0282 -0.2141
14641TIP3    H165338   3.760   0.895   5.598 -0.7420 -0.7974 -0.3452
14641TIP3    H265339   3.652   0.930   5.497 -0.8879 -0.3509 -0.0343
14642TIP3   OH265340   6.728   3.649   5.443 -0.4948  0.1883  0.3524
14642TIP3    H165341   6.675   3.677   5.518  0.4182  1.7543  0.4599
14642TIP3    H265342   6.750   3.557   5.462 -1.8335 -0.0063  1.0605
14643TIP3   OH265343   2.194   6.649  17.060 -0.3975  0.6337  0.2808
14643TIP3    H165344   2.227   6.705  17.130 -0.1674 -1.0252  1.5691
14643TIP3    H265345   2.102   6.636  17.083  0.3545 -2.3797  2.1266
14644TIP3   OH265346   1.585   1.511  15.554  0.0669  0.2800  0.5165
14644TIP3    H165347   1.671   1.489  15.589  0.3223  2.2636  1.2737
14644TIP3    H265348   1.526   1.504  15.629 -0.1065  0.6821  0.4168
14645TIP3   OH265349   5.443   0.197  15.815 -0.5914 -0.2961 -0.5422
14645TIP3    H165350   5.441   0.202  15.911  0.8506 -2.7492 -0.2782
14645TIP3    H265351   5.356   0.166  15.790 -0.3188 -1.7940  0.2383
14646TIP3   OH265352   4.253   4.929   3.887  0.4274  0.3573  0.2242
14646TIP3    H165353   4.299   4.971   3.814 -0.9127 -0.2271 -1.0246
14646TIP3    H265354   4.185   4.991   3.911  0.6424  0.3904  0.7533
14647TIP3   OH265355   1.000   1.672   4.052 -0.2774 -0.1142  0.2180
14647TIP3    H165356   1.092   1.660   4.029 -0.2547  0.6863 -0.1361
14647TIP3    H265357   1.001   1.700   4.143 -0.2346 -1.0755  0.5236
14648TIP3   OH265358   1.706   4.543  15.704 -0.6346  0.6973  0.0872
14648TIP3    H165359   1.737   4.456  15.729 -1.0045  0.6995  0.5699
14648TIP3    H265360   1.762   4.603  15.753 -0.0158  0.7453 -0.6716
14649TIP3   OH265361   2.334   4.505   4.679 -0.4007 -0.0719 -0.2392
14649TIP3    H165362   2.407   4.493   4.739  1.6661  1.6112 -2.1939
14649TIP3    H265363   2.319   4.419   4.641  0.4952 -0.4720  0.2944
14650TIP3   OH265364   1.070   5.226  12.077  0.0978  0.1067 -0.2253
14650TIP3    H165365   0.987   5.207  12.121  0.5207  1.3377  1.2099
14650TIP3    H265366   1.130   5.251  12.148  1.3426  0.4395 -1.3373
14651TIP3   OH265367   3.987   1.944   4.567 -0.1896 -0.6496 -0.1607
14651TIP3    H165368   4.062   1.889   4.544  0.4415 -0.5165  1.4271
14651TIP3    H265369   3.915   1.883   4.580  0.0707 -0.9499 -0.1133
14652TIP3   OH265370   4.168   4.394   0.152  0.4642  0.0675  0.2169
14652TIP3    H165371   4.078   4.426   0.151 -0.4628 -2.1681  2.0162
14652TIP3    H265372   4.200   4.413   0.240  0.7874 -1.4463  0.4635
14653TIP3   OH265373   3.977   4.855  14.606 -0.5931 -0.6204 -0.1572
14653TIP3    H165374   3.980   4.950  14.614  0.6971 -0.4994 -1.6993
14653TIP3    H265375   3.902   4.838  14.548 -1.5949 -0.6611  1.0991
14654TIP3   OH265376   0.517   6.286  11.489 -0.0408 -0.1213 -0.5038
14654TIP3    H165377   0.563   6.345  11.430  0.3748 -0.9705 -1.0417
14654TIP3    H265378   0.505   6.337  11.569  2.6779 -0.1454  0.0158
14655TIP3   OH265379   5.660   6.432  14.732 -0.8270 -0.6660 -0.7462
14655TIP3    H165380   5.688   6.359  14.677 -2.4322 -1.3205 -0.7792
14655TIP3    H265381   5.578   6.462  14.691  0.4499  2.0637 -1.5193
14656TIP3   OH265382   2.517   3.771  13.872  0.1777 -0.6993 -0.0890
14656TIP3    H165383   2.544   3.687  13.835 -0.7154 -0.4465 -1.3891
14656TIP3    H265384   2.458   3.808  13.806 -0.7753  0.1857  1.2040
14657TIP3   OH265385   2.148   1.909   5.229 -0.2176  0.1012  0.4045
14657TIP3    H165386   2.081   1.903   5.161 -0.1264  1.0826  0.2089
14657TIP3    H265387   2.223   1.949   5.185  0.7463 -1.5723  0.4489
14658TIP3   OH265388   0.607   4.984  10.830 -0.8200 -0.2499  0.6184
14658TIP3    H165389   0.544   5.027  10.888  0.1253  0.5860  1.0539
14658TIP3    H265390   0.643   4.913  10.883 -1.2573 -0.6129  0.4323
14659TIP3   OH265391   5.595   4.583   3.815  0.3296  0.5443 -0.2159
14659TIP3    H165392   5.625   4.667   3.848  0.2387  0.0725  1.1549
14659TIP3    H265393   5.577   4.532   3.894  0.4340 -0.7755 -1.0134
14660TIP3   OH265394   4.199   5.561   5.809  0.3068  0.3540 -0.0359
14660TIP3    H165395   4.258   5.502   5.762  0.9792 -0.0317  1.2475
14660TIP3    H265396   4.119   5.510   5.822 -0.4718  0.9678 -2.0107
14661TIP3   OH265397   4.317   6.064   6.485 -0.4478 -0.1418 -0.1490
14661TIP3    H165398   4.242   6.006   6.502  0.7957 -1.3050  1.7723
14661TIP3    H265399   4.393   6.011   6.508  0.7517  2.4775  2.5674
14662TIP3   OH265400   1.124   1.808   1.359  0.8967  0.0768 -0.0430
14662TIP3    H165401   1.122   1.723   1.404  2.6761 -0.3999 -0.7882
14662TIP3    H265402   1.115   1.785   1.266  1.9974  0.6372 -0.2989
14663TIP3   OH265403   1.711   3.914  15.394 -0.5070  0.3023  0.2210
14663TIP3    H165404   1.657   3.840  15.423 -0.3165  0.0847  0.0285
14663TIP3    H265405   1.775   3.875  15.335  0.7038  0.3543  1.4610
14664TIP3   OH265406   5.472   5.880   5.767  0.2839 -0.3804  0.1746
14664TIP3    H165407   5.391   5.875   5.818 -1.3387 -3.5407 -2.3427
14664TIP3    H265408   5.445   5.921   5.685  1.6188 -0.0491 -0.1075
14665TIP3   OH265409   1.875   4.778  17.160 -0.2584 -0.3234 -0.3284
14665TIP3    H165410   1.926   4.779  17.079 -1.4678 -0.9565 -1.1253
14665TIP3    H265411   1.881   4.687  17.191 -0.8606 -0.3955 -0.4108
14666TIP3   OH265412   3.921   0.612  12.565 -0.2088  0.3188  0.6253
14666TIP3    H165413   3.841   0.575  12.529 -0.5828  0.9851  0.7619
14666TIP3    H265414   3.972   0.536  12.594  0.0731 -0.2367 -1.1984
14667TIP3   OH265415   1.971   5.076   0.164  0.2801 -0.4360 -0.6681
14667TIP3    H165416   1.992   5.080   0.071 -1.4685  0.2735 -1.0734
14667TIP3    H265417   1.893   5.021   0.169 -0.3289  0.4705  0.2284
14668TIP3   OH265418   6.172   6.543  12.767 -0.3051  0.0084 -0.5721
14668TIP3    H165419   6.117   6.559  12.843 -2.7189  0.8633 -2.3694
14668TIP3    H265420   6.131   6.469  12.723  1.4334 -0.8988 -0.7639
14669TIP3   OH265421   6.293   2.904   2.986  0.2770  0.1380 -0.2969
14669TIP3    H165422   6.207   2.935   2.956 -0.4168  2.1863  3.2563
14669TIP3    H265423   6.281   2.810   3.000 -1.5611  0.4420  0.4521
14670TIP3   OH265424   2.233   3.167   4.499  0.1080  0.0538 -0.4712
14670TIP3    H165425   2.297   3.143   4.432  0.3719 -2.2321  0.5132
14670TIP3    H265426   2.159   3.108   4.484  0.6495 -1.3555  1.9073
14671TIP3   OH265427   4.277   0.298   2.224 -0.1428  0.0497 -0.2886
14671TIP3    H165428   4.285   0.357   2.299 -0.0276  0.3027 -0.4948
14671TIP3    H265429   4.270   0.211   2.262  2.3406 -0.0960  0.0070
14672TIP3   OH265430   2.810   0.733  12.218 -0.1001 -0.0347  0.3980
14672TIP3    H165431   2.846   0.648  12.191  0.2808  0.0200  0.7221
14672TIP3    H265432   2.856   0.753  12.299  0.6136  1.0014 -0.2427
14673TIP3   OH265433   6.551   2.206  14.568  0.4288  0.6132 -0.4370
14673TIP3    H165434   6.565   2.124  14.615  0.1462  0.4647 -0.6065
14673TIP3    H265435   6.510   2.264  14.633  0.9284  0.7331 -0.2208
14674TIP3   OH265436   3.166   6.211  16.252  0.3919  0.2210  0.1332
14674TIP3    H165437   3.176   6.282  16.188 -1.2880 -0.1588 -0.6138
14674TIP3    H265438   3.183   6.252  16.336 -0.2330  1.4584 -0.3125
14675TIP3   OH265439   6.486   3.832  14.731  0.2430  0.2618 -0.3782
14675TIP3    H165440   6.526   3.787  14.657 -0.4408  0.5162 -0.9150
14675TIP3    H265441   6.414   3.882  14.693 -1.2595 -0.9916  0.6692
14676TIP3   OH265442   3.752   6.005   4.174 -0.4176  0.8888 -0.1481
14676TIP3    H165443   3.718   5.916   4.168 -1.3242  1.2961 -1.7785
14676TIP3    H265444   3.687   6.053   4.224 -0.5749  0.9079 -0.3671
14677TIP3   OH265445   2.053   3.225  15.893 -0.1475 -0.5451  0.2808
14677TIP3    H165446   2.021   3.135  15.884 -0.1377 -0.5140 -0.0938
14677TIP3    H265447   2.066   3.254  15.803 -1.6924  0.3835  0.3256
14678TIP3   OH265448   1.254   1.232   4.141 -0.3811 -0.0097  0.3001
14678TIP3    H165449   1.209   1.314   4.121 -0.9879 -0.6883 -1.3388
14678TIP3    H265450   1.199   1.189   4.206 -0.3945  0.5778  0.6885
14679TIP3   OH265451   4.368   5.467  12.310 -0.0393  0.4524 -0.5594
14679TIP3    H165452   4.288   5.514  12.332 -0.4138  0.5926 -2.1012
14679TIP3    H265453   4.384   5.410  12.385 -1.2765  0.8140  0.0069
14680TIP3   OH265454   2.633   3.368  14.710  0.0563 -0.3564  0.1224
14680TIP3    H165455   2.618   3.376  14.804  1.3330 -0.3403  0.3312
14680TIP3    H265456   2.721   3.402  14.696  0.5626 -1.9623 -0.8340
14681TIP3   OH265457   1.425   0.903   0.414 -0.1296  0.7256 -0.1743
14681TIP3    H165458   1.386   0.831   0.465  0.3360 -0.6712 -1.6994
14681TIP3    H265459   1.516   0.877   0.403  0.6295  2.6541  1.0747
14682TIP3   OH265460   6.275   4.098  12.246  0.1238  0.1482 -0.1666
14682TIP3    H165461   6.224   4.067  12.321  0.1989  0.4399  0.0050
14682TIP3    H265462   6.266   4.028  12.181 -1.0309  0.4822 -0.3933
14683TIP3   OH265463   2.396   2.045   4.022 -0.4256 -0.0553  0.0463
14683TIP3    H165464   2.411   1.967   3.968 -0.5522  0.4304 -0.7028
14683TIP3    H265465   2.400   2.118   3.960 -0.3673  0.5298  0.7337
14684TIP3   OH265466   6.494   6.702   4.349 -0.3900 -0.0582 -0.5815
14684TIP3    H165467   6.484   6.755   4.269  0.5023  0.4796 -0.3461
14684TIP3    H265468   6.458   6.617   4.325  0.6083 -0.1595 -1.8294
14685TIP3   OH265469   1.809   4.107   5.107  0.1507  0.1400  0.5829
14685TIP3    H165470   1.849   4.025   5.081 -4.4647 -2.4002  0.5121
14685TIP3    H265471   1.787   4.151   5.025 -1.4535 -0.8236  0.4789
14686TIP3   OH265472   4.591   5.249   4.776  0.3157  0.5839  0.3356
14686TIP3    H165473   4.565   5.294   4.856  2.6358  0.8927  0.9841
14686TIP3    H265474   4.525   5.274   4.711 -1.2463  0.8403  1.9550
14687TIP3   OH265475   5.263   3.422   2.392  0.4851 -0.2945 -0.3284
14687TIP3    H165476   5.214   3.480   2.451  1.2378  0.8607 -0.8076
14687TIP3    H265477   5.305   3.481   2.330 -1.8660 -1.5032 -3.3228
14688TIP3   OH265478   2.877   3.457  12.526  0.0289  0.5178 -0.5809
14688TIP3    H165479   2.904   3.492  12.611 -2.0430 -0.2400  0.4592
14688TIP3    H265480   2.840   3.532  12.480  0.2501  0.7253 -0.4280
14689TIP3   OH265481   5.392   3.400   0.413  0.2158  0.1736 -0.1002
14689TIP3    H165482   5.395   3.464   0.484 -1.0713 -1.0636  1.1178
14689TIP3    H265483   5.453   3.331   0.440 -1.5068 -1.1237  0.7116
14690TIP3   OH265484   6.543   2.829  13.218  0.1954 -0.0953 -0.2586
14690TIP3    H165485   6.545   2.822  13.313 -0.6554 -0.6234 -0.2707
14690TIP3    H265486   6.464   2.781  13.192  0.2973  0.2341 -1.2112
14691TIP3   OH265487   1.880   4.885   1.604  0.0238 -0.7445 -0.0685
14691TIP3    H165488   1.938   4.897   1.529 -1.0776  0.7053 -0.7385
14691TIP3    H265489   1.818   4.818   1.576 -1.8170  1.4093 -1.4269
14692TIP3   OH265490   0.431   5.721   1.729  0.0842  0.3638  0.0039
14692TIP3    H165491   0.376   5.661   1.780  1.1289 -0.2961  0.3998
14692TIP3    H265492   0.419   5.693   1.638 -0.1401  0.1498  0.0981
14693TIP3   OH265493   1.799   2.692  16.989 -0.0420 -0.0156  0.4656
14693TIP3    H165494   1.789   2.621  16.926  2.0239  1.3032 -1.4955
14693TIP3    H265495   1.880   2.671  17.036  1.3005  1.6071 -1.0260
14694TIP3   OH265496   6.675   2.049  13.729  0.0383 -0.1033  0.6158
14694TIP3    H165497   6.695   1.958  13.749 -1.5276 -0.5920  0.1170
14694TIP3    H265498   6.644   2.087  13.812 -1.1722 -0.5932  0.4116
14695TIP3   OH265499   2.701   4.223  10.691  0.2118  0.1329 -0.0646
14695TIP3    H165500   2.659   4.156  10.745 -0.1223  0.8417  0.5691
14695TIP3    H265501   2.652   4.223  10.609  0.9501 -1.2088 -0.5345
14696TIP3   OH265502   1.990   1.002   0.268 -0.3138  0.5349 -0.1159
14696TIP3    H165503   1.963   1.084   0.226 -2.7370 -0.4797 -0.7096
14696TIP3    H265504   2.052   0.963   0.206 -0.5001  1.1055 -0.6778
14697TIP3   OH265505   0.391   5.241  10.543 -0.4623  0.3768 -0.4808
14697TIP3    H165506   0.483   5.261  10.559 -0.6436  1.0229 -0.2251
14697TIP3    H265507   0.345   5.324  10.557 -1.3629 -0.4164  1.5827
14698TIP3   OH265508   2.873   4.226   1.411  1.0343  0.2914 -0.2132
14698TIP3    H165509   2.844   4.304   1.457  0.4368  0.4538 -0.8317
14698TIP3    H265510   2.961   4.208   1.444  0.6427  0.4189  0.9425
14699TIP3   OH265511   5.265   3.731  13.921 -0.1388 -0.1548 -0.3202
14699TIP3    H165512   5.307   3.797  13.865 -0.1150  0.6835  0.6519
14699TIP3    H265513   5.185   3.773  13.951 -0.8654 -1.1388 -0.8460
14700TIP3   OH265514   3.590   3.687  16.126 -0.8926  0.6371  0.0320
14700TIP3    H165515   3.627   3.657  16.043 -0.7442  0.0773  0.2972
14700TIP3    H265516   3.652   3.753  16.157 -1.7914  2.0981 -1.1027
14701TIP3   OH265517   1.273   4.213   5.766  0.5137 -0.1900  0.2172
14701TIP3    H165518   1.313   4.145   5.712  2.0829  1.4029 -0.7269
14701TIP3    H265519   1.182   4.217   5.735  1.1978  0.2273 -1.9165
14702TIP3   OH265520   6.006   1.517   0.994 -0.6562  0.0359 -0.1779
14702TIP3    H165521   6.028   1.602   1.033  2.0978 -1.4631  1.8306
14702TIP3    H265522   6.087   1.487   0.953 -1.4359 -1.8561 -0.4100
14703TIP3   OH265523   6.157   4.048  12.486 -0.3866  0.6220 -0.5416
14703TIP3    H165524   6.068   4.077  12.508 -0.8540 -1.4116  0.4494
14703TIP3    H265525   6.206   4.059  12.567 -1.0367 -2.8626  0.4679
14704TIP3   OH265526   1.646   1.677   1.300  0.2835 -0.2501  0.6933
14704TIP3    H165527   1.703   1.704   1.228  0.6666  0.0210  1.0965
14704TIP3    H265528   1.691   1.706   1.379 -0.0227 -0.7540  1.0571
14705TIP3   OH265529   3.359   4.510   0.587 -0.7246 -0.2604 -0.1543
14705TIP3    H165530   3.416   4.530   0.512 -0.2933  1.1573  0.5087
14705TIP3    H265531   3.419   4.482   0.656 -0.8090  1.0951  0.5017
14706TIP3   OH265532   5.776   6.613  14.987  0.0946  1.0240 -0.0507
14706TIP3    H165533   5.858   6.653  15.013 -0.4278  1.3811  1.1399
14706TIP3    H265534   5.800   6.546  14.923  1.1169  2.2775 -1.0223
14707TIP3   OH265535   1.224   4.908   2.428  0.2516 -0.7726 -0.1632
14707TIP3    H165536   1.282   4.870   2.362 -0.0922  0.4822 -1.2067
14707TIP3    H265537   1.174   4.833   2.461  2.6540 -1.9656  1.0304
14708TIP3   OH265538   3.086   3.336   3.437  0.4797  0.4245  0.0810
14708TIP3    H165539   3.155   3.319   3.501  1.1665  0.8761 -0.5132
14708TIP3    H265540   3.105   3.276   3.365 -1.5601 -1.6428  1.1628
14709TIP3   OH265541   3.657   2.624   3.272  0.6822  0.1960 -0.2803
14709TIP3    H165542   3.686   2.541   3.235  0.2152 -0.4347  0.7142
14709TIP3    H265543   3.619   2.600   3.356  0.6495  1.4410  0.0750
14710TIP3   OH265544   0.005   1.376   5.501  0.1521  0.4376  0.8691
14710TIP3    H165545  -0.010   1.467   5.475 -2.3553  0.3232  1.6431
14710TIP3    H265546  -0.040   1.367   5.585  0.9337 -1.3556  1.1476
14711TIP3   OH265547   1.131   2.313  16.653 -0.2377  0.1576 -0.4682
14711TIP3    H165548   1.064   2.374  16.682  1.4047  0.8530  2.1643
14711TIP3    H265549   1.212   2.365  16.652  0.9990 -1.6378  0.6981
14712TIP3   OH265550   4.883   6.669   0.864 -0.4989 -0.1687  0.4764
14712TIP3    H165551   4.960   6.694   0.812 -0.8646  1.3237  0.6091
14712TIP3    H265552   4.859   6.583   0.831  0.1435  0.1199 -0.8301
14713TIP3   OH265553   1.537   6.371   5.438 -0.3135 -0.1449 -0.1137
14713TIP3    H165554   1.563   6.462   5.423  0.9014 -0.7245 -1.9863
14713TIP3    H265555   1.571   6.350   5.525  0.0500  0.9824  0.0319
14714TIP3   OH265556   0.898   4.520   3.784 -0.3336  0.2782 -0.0144
14714TIP3    H165557   0.952   4.593   3.753  0.2814  0.4898  1.5137
14714TIP3    H265558   0.840   4.558   3.850  2.6578 -1.1689  3.8148
14715TIP3   OH265559   0.399   3.495  15.971 -0.1512 -0.1877  0.3349
14715TIP3    H165560   0.342   3.572  15.977  0.5837  0.7292 -2.3973
14715TIP3    H265561   0.354   3.436  15.911  1.0290 -0.0984 -0.6914
14716TIP3   OH265562   6.188   3.987   5.458  0.2741  0.0121 -0.2217
14716TIP3    H165563   6.239   4.067   5.467  0.2367  0.1421 -1.1016
14716TIP3    H265564   6.116   3.997   5.520 -0.6887  1.4242 -1.5109
14717TIP3   OH265565   6.076   2.058   4.608 -0.1250  0.1880  0.3623
14717TIP3    H165566   6.103   2.140   4.648  0.9150  0.6935 -1.2930
14717TIP3    H265567   6.060   2.079   4.516 -2.8168 -0.8387  0.4783
14718TIP3   OH265568   1.806   0.472   5.819 -0.3454  0.4360  0.1475
14718TIP3    H165569   1.780   0.394   5.868 -0.7564 -1.1977 -2.4596
14718TIP3    H265570   1.749   0.541   5.852  1.6619  0.4306  4.3050
14719TIP3   OH265571   0.924   1.938  14.925 -0.1826  0.0583  0.3269
14719TIP3    H165572   0.848   1.885  14.948 -0.3380  0.2298  0.2037
14719TIP3    H265573   0.980   1.879  14.875 -1.2934  0.5665 -1.6325
14720TIP3   OH265574   3.057   1.958   2.331  0.3070  0.4793 -0.0739
14720TIP3    H165575   2.981   1.903   2.351  0.2708  0.3652 -0.5120
14720TIP3    H265576   3.128   1.921   2.383 -0.1267  1.1082  1.0090
14721TIP3   OH265577   0.915   4.682  11.164  0.1713 -0.9049  0.1617
14721TIP3    H165578   0.972   4.640  11.229  0.8042 -1.0866 -0.4925
14721TIP3    H265579   0.828   4.649  11.184  0.3839 -1.1006  0.8019
14722TIP3   OH265580   6.204   6.488   6.017  0.0635 -0.0431 -0.9326
14722TIP3    H165581   6.254   6.443   5.948 -1.1792 -0.3881 -1.6321
14722TIP3    H265582   6.255   6.474   6.096  1.1462 -0.2778 -1.6489
14723TIP3   OH265583   1.663   1.002   5.408 -0.2067 -0.2861  0.6577
14723TIP3    H165584   1.752   0.989   5.377 -0.9343 -0.4463 -1.5490
14723TIP3    H265585   1.643   1.093   5.388 -1.7031 -1.1505 -2.3996
14724TIP3   OH265586   6.194   5.362   4.370  0.0432  0.4375 -0.3776
14724TIP3    H165587   6.224   5.439   4.321  0.7744 -0.8670 -2.0815
14724TIP3    H265588   6.250   5.291   4.340 -1.2851 -0.9964  0.3831
14725TIP3   OH265589   2.150   5.752  15.791 -0.1020  0.3047  0.1363
14725TIP3    H165590   2.148   5.812  15.716  0.4148  0.5733  0.3308
14725TIP3    H265591   2.092   5.681  15.766 -0.6099  0.8129 -0.1634
14726TIP3   OH265592   5.466   1.431   5.464 -0.1476 -0.2750 -0.1743
14726TIP3    H165593   5.529   1.371   5.423 -0.7990 -0.2710 -1.2142
14726TIP3    H265594   5.499   1.442   5.553  2.8832  1.8356 -1.3675
14727TIP3   OH265595   4.145   4.811   2.600 -0.6322 -0.4673  0.4218
14727TIP3    H165596   4.073   4.776   2.652 -0.1903  0.5564  1.7964
14727TIP3    H265597   4.212   4.743   2.603 -1.1247 -0.9708  0.0619
14728TIP3   OH265598   5.083   3.633  15.044 -0.6400  0.0243  0.0566
14728TIP3    H165599   5.063   3.726  15.052  0.1435  0.2299 -0.2925
14728TIP3    H265600   5.058   3.596  15.129 -0.4270  0.6528  0.3988
14729TIP3   OH265601   1.751   3.782   3.761  0.3672 -0.1871  0.3220
14729TIP3    H165602   1.789   3.706   3.718  1.6288  0.3195  0.4916
14729TIP3    H265603   1.727   3.751   3.849 -0.2279 -0.6729 -0.0025
14730TIP3   OH265604   1.549   1.095  11.655  0.0361  0.1650 -0.7469
14730TIP3    H165605   1.454   1.090  11.645 -0.1508  1.2641  0.2840
14730TIP3    H265606   1.567   1.186  11.677  1.1724 -0.3164  0.4959
14731TIP3   OH265607   3.434   3.216   5.255  0.2594  0.3686 -0.2332
14731TIP3    H165608   3.499   3.147   5.272 -0.5485 -0.3169  0.1688
14731TIP3    H265609   3.398   3.235   5.341 -1.7325 -0.9594 -0.7062
14732TIP3   OH265610   4.728   2.287  10.890 -0.0506  0.6437  0.1362
14732TIP3    H165611   4.684   2.368  10.915  1.3790  1.9892 -1.4803
14732TIP3    H265612   4.664   2.240  10.836 -0.2542  1.5690 -0.4339
14733TIP3   OH265613   4.942   5.494   2.532  0.0864 -0.2562  0.6035
14733TIP3    H165614   4.878   5.479   2.601 -1.6897  0.2788 -0.8505
14733TIP3    H265615   5.023   5.456   2.566 -0.6925 -0.0033  2.9639
14734TIP3   OH265616   1.385   0.951  11.352 -0.0994  0.3617 -0.0550
14734TIP3    H165617   1.445   1.023  11.369  2.1207 -0.9430 -1.7959
14734TIP3    H265618   1.314   0.989  11.300  0.4425  1.4781 -0.0009
14735TIP3   OH265619   3.845   1.139   5.308 -0.3518 -0.3495  0.7951
14735TIP3    H165620   3.865   1.150   5.215 -0.6614  0.2735  0.7994
14735TIP3    H265621   3.750   1.146   5.313 -0.3100 -0.0425  1.2038
14736TIP3   OH265622   5.038   6.691   3.317  0.0117 -0.2400 -0.4379
14736TIP3    H165623   5.039   6.652   3.404  1.5895 -0.1008 -0.3769
14736TIP3    H265624   4.944   6.699   3.296 -0.3892 -2.2712  0.3203
14737TIP3   OH265625   1.583   5.869   0.470 -0.1628 -0.4803 -0.6978
14737TIP3    H165626   1.547   5.782   0.489 -0.7298 -0.2175 -0.5456
14737TIP3    H265627   1.604   5.867   0.377  0.2904 -0.9441 -0.5877
14738TIP3   OH265628   5.957   5.779   1.894 -0.3500 -0.4452  0.3827
14738TIP3    H165629   5.982   5.737   1.975 -1.1092 -1.3404  0.1673
14738TIP3    H265630   5.883   5.836   1.918 -3.2586 -3.6391 -0.2643
14739TIP3   OH265631   4.226   2.364   6.435 -0.2623  0.4362  0.1105
14739TIP3    H165632   4.319   2.382   6.452 -0.6202  1.7799  0.8214
14739TIP3    H265633   4.207   2.284   6.483  0.4200  0.4061  0.3327
14740TIP3   OH265634   2.224   6.364  11.442  0.0537  0.0502  0.9208
14740TIP3    H165635   2.214   6.348  11.536 -2.5132 -3.4116  0.2672
14740TIP3    H265636   2.144   6.411  11.418  1.6769  2.9033  0.6547
14741TIP3   OH265637   5.207   6.298  15.732 -0.4502 -0.4276 -0.5358
14741TIP3    H165638   5.248   6.256  15.808 -1.5389 -0.3054  0.1272
14741TIP3    H265639   5.200   6.228  15.668 -1.2861 -1.0336  0.1863
14742TIP3   OH265640   4.740   4.331  11.101  0.5282  0.2554  0.1483
14742TIP3    H165641   4.704   4.420  11.096 -0.5982 -0.1848  0.0952
14742TIP3    H265642   4.680   4.278  11.048  1.7587 -0.3670 -0.6483
14743TIP3   OH265643   0.309   4.933  15.754 -0.7499 -0.5146  0.1050
14743TIP3    H165644   0.310   4.854  15.700  0.6109 -0.5113  0.0856
14743TIP3    H265645   0.365   4.912  15.828 -1.0396  0.1588  0.5280
14744TIP3   OH265646   5.363   3.470   3.991 -0.1662  0.4125  0.4675
14744TIP3    H165647   5.321   3.530   3.930 -0.5110  0.3308  0.6188
14744TIP3    H265648   5.441   3.438   3.945 -1.4286 -1.1205 -0.7083
14745TIP3   OH265649   2.120   4.394   3.590 -0.3716  0.0933 -0.2992
14745TIP3    H165650   2.051   4.341   3.631 -0.8429 -0.0933 -1.3022
14745TIP3    H265651   2.080   4.428   3.510 -0.3026  2.5298  0.6139
14746TIP3   OH265652   2.057   4.214  16.483  0.0210  0.0117 -0.4169
14746TIP3    H165653   2.060   4.308  16.464 -1.4108  0.0513 -0.5516
14746TIP3    H265654   2.127   4.177  16.429 -0.3863  0.8196 -1.5434
14747TIP3   OH265655   3.465   5.294   0.943 -0.3917  0.2137 -0.1094
14747TIP3    H165656   3.423   5.271   0.860 -0.2005 -0.1593 -0.1080
14747TIP3    H265657   3.445   5.387   0.955 -1.1148  0.0722 -0.1632
14748TIP3   OH265658   4.170   5.780  15.984 -0.5088  1.0632 -0.3581
14748TIP3    H165659   4.260   5.761  16.008 -1.3457 -0.5906  1.8504
14748TIP3    H265660   4.176   5.821  15.898  2.3184  1.0090 -0.2712
14749TIP3   OH265661   0.295   6.561   1.300 -0.2260  0.2528 -0.7173
14749TIP3    H165662   0.220   6.619   1.316 -1.3644 -0.9171 -1.6235
14749TIP3    H265663   0.359   6.617   1.254 -1.5967  0.6580 -2.2425
14750TIP3   OH265664   1.609   3.170  12.511 -0.0124 -0.7385  0.0212
14750TIP3    H165665   1.631   3.138  12.423  1.7357 -0.4575  0.3303
14750TIP3    H265666   1.690   3.162  12.561 -0.6931  0.1135  1.3177
14751TIP3   OH265667   1.731   4.617   2.431  0.3846 -0.0054  0.6427
14751TIP3    H165668   1.805   4.606   2.371 -0.1163 -0.1046  0.0278
14751TIP3    H265669   1.736   4.542   2.490  1.3763  0.5415  1.2713
14752TIP3   OH265670   4.496   5.013  14.361  0.7261  0.4070 -0.2851
14752TIP3    H165671   4.494   5.107  14.379 -1.0150  0.6538 -1.4558
14752TIP3    H265672   4.547   4.976  14.433  0.8729  2.1631  0.5776
14753TIP3   OH265673   1.338   5.938  14.918 -0.7167  0.4209 -0.5681
14753TIP3    H165674   1.281   5.997  14.867 -0.1908  1.2916 -0.1669
14753TIP3    H265675   1.325   5.965  15.009 -1.1992 -0.7363 -0.2745
14754TIP3   OH265676   4.295   2.269   1.432 -0.1253 -0.1271 -0.0605
14754TIP3    H165677   4.324   2.351   1.471  0.3106  0.4150 -1.4360
14754TIP3    H265678   4.315   2.202   1.498  0.5038  0.7424  0.6544
14755TIP3   OH265679   4.130   2.583   4.833 -0.2971 -0.0914 -0.1944
14755TIP3    H165680   4.138   2.515   4.900 -0.6465  0.8982  0.8776
14755TIP3    H265681   4.042   2.618   4.844  0.9692  2.8814  1.6190
14756TIP3   OH265682   4.010   2.302   0.749 -0.2416 -0.2171  0.0228
14756TIP3    H165683   4.079   2.282   0.687  0.3859  0.1415  0.5943
14756TIP3    H265684   3.999   2.397   0.743 -0.6791 -0.2679 -0.0521
14757TIP3   OH265685   0.664   4.254  12.437 -0.0591  0.5440  0.8522
14757TIP3    H165686   0.682   4.313  12.510  0.6769  1.3244  0.0627
14757TIP3    H265687   0.747   4.207  12.423 -0.8070 -1.2121  1.8935
14758TIP3   OH265688   1.706   0.935  17.040  0.3460  0.0325 -0.3488
14758TIP3    H165689   1.693   0.845  17.070 -0.2157  0.5733  1.1511
14758TIP3    H265690   1.780   0.967  17.092 -0.0826  0.7216 -0.1447
14759TIP3   OH265691   3.475   4.915   5.515 -0.2126  0.1098 -0.0666
14759TIP3    H165692   3.530   4.950   5.585 -0.4164  0.7254 -0.2144
14759TIP3    H265693   3.408   4.864   5.562 -0.3148  0.4724  0.1837
14760TIP3   OH265694   4.397   3.358  10.689 -0.1158 -0.0219 -0.0103
14760TIP3    H165695   4.322   3.374  10.747 -0.2385 -2.5312  0.6114
14760TIP3    H265696   4.388   3.425  10.621 -1.9428  0.8241  0.9778
14761TIP3   OH265697   4.412   6.402   4.472  0.3720 -0.5745 -0.5141
14761TIP3    H165698   4.389   6.484   4.517 -3.2398 -0.7659 -1.7096
14761TIP3    H265699   4.474   6.429   4.403  1.2372  0.6669  0.6897
14762TIP3   OH265700   2.203   4.281  13.835 -0.1755 -0.0325  0.1712
14762TIP3    H165701   2.125   4.225  13.841 -0.6558  0.5241 -0.7014
14762TIP3    H265702   2.254   4.242  13.764 -0.0269  0.0593  0.2281
14763TIP3   OH265703   2.678   5.954  12.398  0.2112  0.0084 -0.2957
14763TIP3    H165704   2.707   5.878  12.449 -1.3459 -1.2725 -1.2354
14763TIP3    H265705   2.654   5.918  12.312 -1.0108  1.4940 -0.6182
14764TIP3   OH265706   1.299   1.901   4.794 -0.5406 -0.4158  0.3616
14764TIP3    H165707   1.233   1.969   4.813 -2.2644 -1.5213 -1.2669
14764TIP3    H265708   1.288   1.837   4.864  0.1566  0.3100  1.1527
14765TIP3   OH265709   5.247   2.224  11.461 -0.4851  0.0543 -0.1444
14765TIP3    H165710   5.315   2.198  11.398 -1.2664  2.5235 -2.2035
14765TIP3    H265711   5.290   2.219  11.546  1.9208  0.4123 -1.2491
14766TIP3   OH265712   5.973   6.126  11.370  0.2438 -0.1640 -0.3011
14766TIP3    H165713   5.985   6.216  11.341  2.8365 -0.5313 -0.5965
14766TIP3    H265714   6.061   6.096  11.392 -0.7464 -2.1461  1.2898
14767TIP3   OH265715   4.739   1.220  16.742  0.3132  0.1667 -0.6219
14767TIP3    H165716   4.742   1.265  16.658 -0.1522 -0.3584 -0.9254
14767TIP3    H265717   4.668   1.156  16.733 -3.3750  3.4721  1.8714
14768TIP3   OH265718   4.076   3.090  14.853  0.1563 -0.2733  0.0016
14768TIP3    H165719   4.090   3.162  14.914  1.8770  0.3995 -1.1312
14768TIP3    H265720   3.984   3.066  14.867 -0.0467  1.1293  1.4648
14769TIP3   OH265721   5.600   1.309  17.043 -0.0815  0.1922 -0.3146
14769TIP3    H165722   5.589   1.234  16.984 -1.1692 -1.3922  1.7507
14769TIP3    H265723   5.688   1.298  17.080 -0.0400  0.2277 -0.4041
14770TIP3   OH265724   1.897   1.713  12.537  0.2836 -0.3442 -0.1116
14770TIP3    H165725   1.987   1.738  12.556 -0.0801 -0.0032  1.2872
14770TIP3    H265726   1.901   1.619  12.520  0.9975 -0.1990 -0.7639
14771TIP3   OH265727   3.370   5.683  14.864 -0.0538  0.2843 -0.2596
14771TIP3    H165728   3.325   5.623  14.804  0.6594 -0.0858 -0.4350
14771TIP3    H265729   3.355   5.769  14.826 -1.0419  0.2289 -0.0352
14772TIP3   OH265730   5.361   6.641   2.194 -0.1431 -0.6083 -0.6373
14772TIP3    H165731   5.428   6.659   2.127 -1.2772  2.8605 -0.9878
14772TIP3    H265732   5.288   6.697   2.170 -1.4712 -0.9552  2.2790
14773TIP3   OH265733   2.342   5.599  15.999 -0.1373  0.2384 -0.3755
14773TIP3    H165734   2.379   5.653  15.930 -1.2625  0.9736 -0.4296
14773TIP3    H265735   2.309   5.662  16.063 -0.2178 -0.4173  0.2378
14774TIP3   OH265736   4.984   1.738   0.276  0.1194  0.2691 -0.1959
14774TIP3    H165737   4.915   1.800   0.254 -1.1121 -0.9084  0.2266
14774TIP3    H265738   5.050   1.792   0.320 -1.3174  1.1623  0.9752
14775TIP3   OH265739   1.155   3.760  11.096 -0.2060  0.3237 -0.1226
14775TIP3    H165740   1.081   3.717  11.053 -0.0650 -0.4302  0.3620
14775TIP3    H265741   1.195   3.814  11.028  1.8209 -3.0744 -1.9074
14776TIP3   OH265742   3.370   1.489  16.146 -0.0511  0.1623  0.2295
14776TIP3    H165743   3.337   1.493  16.236  0.3907 -0.1464  0.4039
14776TIP3    H265744   3.464   1.478  16.155 -0.1794 -1.5457 -0.2577
14777TIP3   OH265745   4.462   4.096   1.869 -0.3130 -0.2323  0.3829
14777TIP3    H165746   4.487   4.158   1.800  2.2320 -1.8512 -0.3028
14777TIP3    H265747   4.532   4.030   1.868 -2.1877 -2.4049  1.9482
14778TIP3   OH265748   0.475   6.358   1.272 -0.0141 -0.0097 -0.0229
14778TIP3    H165749   0.422   6.433   1.301  0.4442 -0.5200  2.4103
14778TIP3    H265750   0.420   6.282   1.290  1.3267 -0.5318  2.3821
14779TIP3   OH265751   0.053   3.240   0.836  0.2936  0.6083 -0.1137
14779TIP3    H165752  -0.009   3.184   0.789  2.5658  0.4691 -3.2250
14779TIP3    H265753   0.112   3.178   0.880  1.8867  0.4527 -2.3121
14780TIP3   OH265754   6.266   4.556   6.383  0.0308  0.4888  0.4224
14780TIP3    H165755   6.184   4.594   6.350  0.3485  0.0703 -0.9392
14780TIP3    H265756   6.280   4.479   6.329  0.2878 -0.6195  2.0170
14781TIP3   OH265757   1.291   5.254   3.690 -0.5189  0.3825  0.1455
14781TIP3    H165758   1.213   5.263   3.745  1.5616  0.5862  3.2734
14781TIP3    H265759   1.318   5.163   3.702  1.1503  0.9849  1.2582
14782TIP3   OH265760   1.688   3.901   5.838 -0.4367 -0.5819  0.1134
14782TIP3    H165761   1.679   3.968   5.906 -0.3632  0.5751 -0.9874
14782TIP3    H265762   1.767   3.853   5.863  1.6894  2.0741 -0.9701
14783TIP3   OH265763   2.811   2.013  13.864  0.3085 -0.0425 -0.5909
14783TIP3    H165764   2.838   2.045  13.778 -0.5255  0.2695 -0.7458
14783TIP3    H265765   2.873   1.943  13.885  1.2507  0.6788 -0.9076
14784TIP3   OH265766   5.133   2.729  17.083  0.5532  0.0817 -0.3275
14784TIP3    H165767   5.200   2.738  17.151  0.8585 -0.3856 -0.5629
14784TIP3    H265768   5.170   2.774  17.007 -0.0006  1.0409 -0.0415
14785TIP3   OH265769   3.166   1.389   0.843  0.1029  0.5630 -0.5449
14785TIP3    H165770   3.233   1.327   0.871 -1.5534 -0.5187  1.2641
14785TIP3    H265771   3.117   1.343   0.775 -1.8219 -0.6805  1.5609
14786TIP3   OH265772   4.038   0.387  10.993 -0.0997 -0.4768  0.2320
14786TIP3    H165773   4.115   0.443  10.984  1.9545 -2.8714  1.4741
14786TIP3    H265774   3.979   0.414  10.923  1.3971  2.1309 -0.1444
14787TIP3   OH265775   1.404   6.590   4.236  0.1201  0.0189 -0.1282
14787TIP3    H165776   1.401   6.611   4.329 -0.4205  2.8579 -0.7004
14787TIP3    H265777   1.320   6.619   4.201 -0.4544 -2.6826 -1.2698
14788TIP3   OH265778   0.591   0.964  12.656 -0.3694  0.2820 -0.3866
14788TIP3    H165779   0.503   1.001  12.665 -0.6645 -0.5955  0.5545
14788TIP3    H265780   0.649   1.028  12.697 -0.4195  1.3651 -1.9506
14789TIP3   OH265781   5.618   6.136   5.537 -0.5395  0.0688  0.2874
14789TIP3    H165782   5.589   6.156   5.626  0.1860 -1.1069  0.8067
14789TIP3    H265783   5.670   6.057   5.546 -0.7706 -0.2859 -1.2463
14790TIP3   OH265784   4.931   3.576   5.382  0.2616  0.0997 -0.0534
14790TIP3    H165785   5.015   3.618   5.403  0.5453  0.5891 -1.9463
14790TIP3    H265786   4.898   3.545   5.466  1.0914  2.1913  1.1200
14791TIP3   OH265787   6.658   2.137   4.180  0.2839  0.1543 -0.6840
14791TIP3    H165788   6.565   2.115   4.190  0.2896 -0.0950 -1.1747
14791TIP3    H265789   6.678   2.117   4.089  1.1120 -0.8694 -0.2988
14792TIP3   OH265790   6.138   1.583   5.800  0.1319 -0.2511 -0.2980
14792TIP3    H165791   6.200   1.550   5.864  0.4272 -1.2550 -1.0590
14792TIP3    H265792   6.105   1.665   5.837  0.5095 -0.6566  0.9728
14793TIP3   OH265793   6.423   1.703   1.672 -0.3871  0.8614  0.4361
14793TIP3    H165794   6.394   1.765   1.606 -1.0687  0.4006  0.2884
14793TIP3    H265795   6.393   1.618   1.640  0.5242  0.4482  0.6324
14794TIP3   OH265796   4.672   5.165   2.000  0.6139  0.1395 -0.0877
14794TIP3    H165797   4.647   5.080   1.966  2.1244 -0.1025 -0.6864
14794TIP3    H265798   4.759   5.181   1.963  0.0774  2.2831 -0.6245
14795TIP3   OH265799   3.110   5.191  14.161  0.1187  0.0548  0.2265
14795TIP3    H165800   3.124   5.100  14.136 -0.7985 -0.5098  1.6318
14795TIP3    H265801   3.074   5.186  14.250 -0.3383  1.7731  0.1703
14796TIP3   OH265802   2.968   0.874   1.548  0.7234  0.4151 -0.2355
14796TIP3    H165803   3.011   0.803   1.501  0.3381 -0.2630  0.4085
14796TIP3    H265804   2.924   0.831   1.621  0.4477  1.3163  0.1448
14797TIP3   OH265805   0.228   3.522   5.229  0.0996 -0.5161 -0.4726
14797TIP3    H165806   0.226   3.613   5.261  2.0036 -1.0876  1.5098
14797TIP3    H265807   0.320   3.507   5.207 -0.2600 -1.8516 -1.1282
14798TIP3   OH265808   3.813   6.369  14.578 -0.2748  0.2384  0.4622
14798TIP3    H165809   3.909   6.372  14.581 -0.1122  3.2231 -2.4933
14798TIP3    H265810   3.786   6.414  14.658  0.8598  1.2571  0.3029
14799TIP3   OH265811   6.132   2.861  13.527 -0.4966 -0.2100 -0.2606
14799TIP3    H165812   6.135   2.817  13.612 -1.0784  0.2469  0.0066
14799TIP3    H265813   6.120   2.954  13.548 -0.1048 -0.0247 -0.8308
14800TIP3   OH265814   4.899   1.629   2.881 -0.1807 -0.1556  0.5940
14800TIP3    H165815   4.984   1.586   2.882 -0.4946 -0.7844  0.9621
14800TIP3    H265816   4.918   1.721   2.897  0.4633 -0.2197  0.2285
14801TIP3   OH265817   2.702   2.318  11.534 -0.1437 -0.4979 -0.6378
14801TIP3    H165818   2.690   2.377  11.608  2.9205 -0.7872  0.2603
14801TIP3    H265819   2.641   2.348  11.468 -0.4709  2.0596  0.7174
14802TIP3   OH265820   1.283   6.011   3.183 -0.0702 -0.1068 -0.2613
14802TIP3    H165821   1.276   5.992   3.089 -0.1501  0.9571 -0.4840
14802TIP3    H265822   1.239   5.938   3.226 -0.3863 -0.4013 -1.0704
14803TIP3   OH265823   2.918   6.653   3.017  0.2171  0.4159 -0.3343
14803TIP3    H165824   2.906   6.585   2.951  0.4412 -0.6773  0.7078
14803TIP3    H265825   2.950   6.729   2.968 -2.0438  0.4977 -1.8486
14804TIP3   OH265826   4.619   4.777   5.858  0.3249  0.3654  0.0144
14804TIP3    H165827   4.669   4.738   5.786  0.3269 -1.0973  0.7515
14804TIP3    H265828   4.533   4.735   5.853  0.0889  0.7884  0.4361
14805TIP3   OH265829   3.534   4.374  15.610 -0.4442 -0.1691 -0.5786
14805TIP3    H165830   3.449   4.336  15.631  0.2527 -1.8247 -0.5583
14805TIP3    H265831   3.595   4.332  15.671  0.4092  0.9259 -0.6393
14806TIP3   OH265832   1.814   0.553   1.273  0.3933 -0.2915 -0.1561
14806TIP3    H165833   1.796   0.459   1.276  1.2402 -0.4477  0.5338
14806TIP3    H265834   1.760   0.589   1.344 -1.2644  0.0094 -1.5159
14807TIP3   OH265835   0.785   2.515  12.662  0.2056 -0.0653 -0.3197
14807TIP3    H165836   0.824   2.580  12.604 -0.9268  0.7354 -0.2312
14807TIP3    H265837   0.717   2.473  12.609 -0.7382  0.5678  0.3665
14808TIP3   OH265838   2.533   6.588   3.707 -0.0519 -0.3456 -0.1953
14808TIP3    H165839   2.489   6.660   3.663  0.6624 -0.2159 -0.7081
14808TIP3    H265840   2.539   6.518   3.642  0.9237 -0.1875 -0.2916
14809TIP3   OH265841   5.284   4.468  14.087  0.7109 -0.4738 -0.4283
14809TIP3    H165842   5.349   4.455  14.157  1.7243  1.9431 -0.8231
14809TIP3    H265843   5.333   4.457  14.006  1.3263  3.4241 -0.7796
14810TIP3   OH265844   2.808   0.740  14.105  0.1816  0.2423 -0.4879
14810TIP3    H165845   2.840   0.785  14.183 -2.2115  0.3720  0.4916
14810TIP3    H265846   2.799   0.649  14.132  0.1395  0.1187 -0.9017
14811TIP3   OH265847   3.198   0.507   3.311 -0.2569  0.1785 -0.7446
14811TIP3    H165848   3.149   0.590   3.312  2.2041  1.7496  0.8744
14811TIP3    H265849   3.167   0.460   3.388 -3.0331 -1.4513 -2.6522
14812TIP3   OH265850   6.755   1.088   3.871  0.2089 -0.0116 -0.1352
14812TIP3    H165851   6.836   1.050   3.905 -0.2073  0.1869  1.1677
14812TIP3    H265852   6.777   1.180   3.853  1.1670 -0.7413 -3.1166
14813TIP3   OH265853   3.421   2.390   0.747 -0.5447 -0.0439  0.0928
14813TIP3    H165854   3.435   2.330   0.820  0.1815 -0.2145 -0.1755
14813TIP3    H265855   3.503   2.438   0.739 -0.8825  0.5056 -0.1336
14814TIP3   OH265856   4.794   5.370   4.098  0.4682  0.5815  0.2376
14814TIP3    H165857   4.870   5.314   4.116  1.4216  0.9747 -2.2922
14814TIP3    H265858   4.721   5.308   4.088  1.4317 -0.2944 -2.1267
14815TIP3   OH265859   0.674   1.432   1.924 -0.0679 -0.0496 -0.6962
14815TIP3    H165860   0.599   1.385   1.961  0.0758  0.7420  0.6630
14815TIP3    H265861   0.748   1.374   1.940  0.2109  0.8110  1.5350
14816TIP3   OH265862   0.429   6.043  10.817  0.1564 -0.0816 -0.5514
14816TIP3    H165863   0.346   6.010  10.782 -1.0925  2.7727 -0.5636
14816TIP3    H265864   0.425   6.025  10.911 -1.1743  1.2244 -0.3201
14817TIP3   OH265865   2.348   6.404  13.027 -0.0098  0.1439 -0.1964
14817TIP3    H165866   2.442   6.418  13.018 -0.1189  0.3479 -1.1147
14817TIP3    H265867   2.332   6.318  12.989 -0.3486  0.5966 -1.1068
14818TIP3   OH265868   2.612   4.952  13.220  0.3353 -0.0276 -0.2530
14818TIP3    H165869   2.537   4.954  13.280  0.3648 -0.9293 -0.1729
14818TIP3    H265870   2.587   5.010  13.148 -0.0787  0.3525  0.1930
14819TIP3   OH265871   0.857   5.031   6.179  0.0154  0.2757  0.6812
14819TIP3    H165872   0.875   5.118   6.215  1.4075  0.8774 -1.3235
14819TIP3    H265873   0.919   4.974   6.225  0.4289  0.6810  0.6382
14820TIP3   OH265874   1.588   1.212  15.952 -0.3749 -0.5158  0.2775
14820TIP3    H165875   1.597   1.204  15.857  0.2008  0.7752  0.1959
14820TIP3    H265876   1.495   1.202  15.969 -0.6413  0.3776 -0.5683
14821TIP3   OH265877   4.935   2.989   5.029 -0.0455  0.0278 -0.8688
14821TIP3    H165878   4.875   3.061   5.049  0.5883  0.4658 -0.5001
14821TIP3    H265879   5.001   2.993   5.098  0.0354 -0.8715 -0.8797
14822TIP3   OH265880   2.523   3.599  13.554  0.1067 -0.0882 -0.4373
14822TIP3    H165881   2.522   3.519  13.608 -1.8311 -1.0776 -1.7925
14822TIP3    H265882   2.485   3.571  13.470 -1.3946  2.4306 -0.6847
14823TIP3   OH265883   1.565   2.359   2.471 -0.3747 -0.2751 -0.6831
14823TIP3    H165884   1.587   2.269   2.495 -0.8772  0.3002  2.2341
14823TIP3    H265885   1.597   2.412   2.543 -1.6343  1.7316 -1.5097
14824TIP3   OH265886   2.443   4.244   3.196 -0.8269 -0.1850  0.2724
14824TIP3    H165887   2.425   4.200   3.113  0.8890 -0.1569 -0.1612
14824TIP3    H265888   2.485   4.177   3.249  0.0820  0.3832  0.2953
14825TIP3   OH265889   4.156   2.691  14.123 -0.6829 -0.2428 -0.0519
14825TIP3    H165890   4.224   2.626  14.137  0.5233  1.0771  0.4858
14825TIP3    H265891   4.115   2.666  14.040  0.9232 -0.6824 -0.7458
14826TIP3   OH265892   0.814   3.865  11.019  0.6104  0.3986 -0.6365
14826TIP3    H165893   0.868   3.800  10.974  1.3957  1.1557 -0.8233
14826TIP3    H265894   0.858   3.949  11.002  0.4483  0.8096  0.8221
14827TIP3   OH265895   2.799   1.551  16.872  0.3221  0.1044 -0.4526
14827TIP3    H165896   2.828   1.493  16.802  1.4467 -0.7646  0.6804
14827TIP3    H265897   2.855   1.529  16.946 -2.2059 -0.5566  1.4222
14828TIP3   OH265898   2.020   3.867  12.824 -0.1684  0.4776  0.4336
14828TIP3    H165899   2.012   3.944  12.768 -1.6157 -0.4089 -0.6755
14828TIP3    H265900   1.936   3.822  12.814 -0.0192 -0.3459  2.4244
14829TIP3   OH265901   6.766   3.398  12.404  0.0917 -0.0680 -0.1530
14829TIP3    H165902   6.791   3.332  12.340 -0.2503 -1.9200  1.5523
14829TIP3    H265903   6.736   3.349  12.480 -0.5201  2.0553  1.0694
14830TIP3   OH265904   2.392   6.161  14.379 -0.1801  0.1121 -0.0110
14830TIP3    H165905   2.470   6.211  14.355 -1.4424  1.2152 -2.0302
14830TIP3    H265906   2.333   6.170  14.304 -3.1104  1.0479  2.2152
14831TIP3   OH265907   0.667   2.336   4.550 -0.0625 -0.4453 -0.1371
14831TIP3    H165908   0.670   2.255   4.499  1.8364 -0.1487 -0.5731
14831TIP3    H265909   0.759   2.363   4.558 -0.6505  1.7867 -0.2130
14832TIP3   OH265910   3.011   0.054   2.817  0.2839 -0.3804  0.5710
14832TIP3    H165911   3.073   0.120   2.785  0.3543 -0.7127 -0.0080
14832TIP3    H265912   2.925   0.090   2.798  0.3252 -0.7313 -0.3703
14833TIP3   OH265913   2.161   4.856  11.667  0.0464 -0.4780  0.3599
14833TIP3    H165914   2.222   4.833  11.597 -0.3634 -1.8572  0.4175
14833TIP3    H265915   2.075   4.848  11.627 -0.1855 -1.1649  0.9698
14834TIP3   OH265916   3.542   2.078  12.482 -0.2930 -0.3991  0.1401
14834TIP3    H165917   3.612   2.116  12.430  0.3442 -0.5805  0.8630
14834TIP3    H265918   3.527   1.992  12.442 -0.5922 -0.0883 -0.4416
14835TIP3   OH265919   6.213   3.327  11.131  0.2276  0.6962  0.4395
14835TIP3    H165920   6.241   3.299  11.044 -0.0848  0.2283  0.4850
14835TIP3    H265921   6.133   3.377  11.116 -0.6480 -0.6157  0.5677
14836TIP3   OH265922   3.997   4.285  14.202  0.2527 -0.2679  0.4705
14836TIP3    H165923   4.005   4.204  14.153 -0.1179 -0.3872  0.6090
14836TIP3    H265924   3.993   4.354  14.135  0.6624 -0.3532  0.3569
14837TIP3   OH265925   3.097   4.326  16.221  0.6692 -0.2177  0.0310
14837TIP3    H165926   3.116   4.291  16.308  1.1189 -1.4537 -0.5357
14837TIP3    H265927   3.148   4.406  16.216  0.9866 -0.3647  0.7524
14838TIP3   OH265928   3.955   2.963   1.214  0.1722 -0.0402 -0.5157
14838TIP3    H165929   3.966   2.941   1.306 -1.5678  0.7022 -0.0859
14838TIP3    H265930   4.041   2.993   1.185  0.9370 -1.0635  0.6290
14839TIP3   OH265931   3.356   1.234   4.710 -0.6279 -0.4184  0.0726
14839TIP3    H165932   3.311   1.273   4.784 -1.9185 -0.5804 -0.5885
14839TIP3    H265933   3.401   1.308   4.667 -2.7584  0.3712 -0.9703
14840TIP3   OH265934   1.045   3.319  11.828 -0.6859 -0.2351  0.8266
14840TIP3    H165935   1.056   3.281  11.741  1.0711 -2.3508  1.8939
14840TIP3    H265936   0.956   3.355  11.827 -0.9616 -0.8115 -1.5920
14841TIP3   OH265937   4.858   3.561  14.411  0.3621  0.0892  0.3057
14841TIP3    H165938   4.937   3.596  14.453 -1.0931  1.3203  2.1655
14841TIP3    H265939   4.836   3.483  14.463 -1.1683  1.3388  1.6244
14842TIP3   OH265940   5.904   0.001   3.737 -0.1815  0.2279  0.3085
14842TIP3    H165941   5.976   0.029   3.681  0.6641  0.2866  1.3982
14842TIP3    H265942   5.898   0.069   3.805 -0.2921 -0.5231  1.0665
14843TIP3   OH265943   5.840   6.055  14.058  0.1932  0.2835 -0.2285
14843TIP3    H165944   5.745   6.051  14.068  0.2675  0.7564  0.8318
14843TIP3    H265945   5.870   6.103  14.135  1.3398 -0.3338 -0.2638
14844TIP3   OH265946   0.548   5.225  15.975 -0.1157 -0.2810  0.1546
14844TIP3    H165947   0.458   5.242  16.002  0.1660 -0.3979  1.2317
14844TIP3    H265948   0.585   5.312  15.957 -0.7897 -0.3122 -1.5343
14845TIP3   OH265949   0.804   3.410  16.841 -0.2027  0.0350 -0.0713
14845TIP3    H165950   0.852   3.481  16.882  0.7955 -0.6485  0.0029
14845TIP3    H265951   0.786   3.349  16.912  0.1604 -0.4199 -0.3591
14846TIP3   OH265952   3.586   5.810  13.413 -0.3169 -0.4404 -0.5498
14846TIP3    H165953   3.557   5.845  13.497  0.3700 -0.7432 -0.1780
14846TIP3    H265954   3.551   5.871  13.348 -0.7066 -0.1070 -0.0362
14847TIP3   OH265955   0.263   3.610   0.955 -0.1268 -0.5315  0.1762
14847TIP3    H165956   0.175   3.605   0.919 -0.1322  1.2111 -0.1045
14847TIP3    H265957   0.303   3.686   0.913  0.9585 -0.3296  1.4906
14848TIP3   OH265958   4.029   0.032  15.066  0.8252  0.3589 -0.7478
14848TIP3    H165959   3.949  -0.017  15.084  0.0399  2.0052  0.5966
14848TIP3    H265960   4.079   0.026  15.148  1.1144  1.0455 -0.8645
14849TIP3   OH265961   3.409   0.600  14.319  0.3810  0.1464 -0.6201
14849TIP3    H165962   3.383   0.669  14.259 -2.1496 -0.5070 -0.3906
14849TIP3    H265963   3.330   0.547  14.331  2.1548 -2.7787 -0.7421
14850TIP3   OH265964   5.315   2.547   1.225  0.0508  0.6875  0.2505
14850TIP3    H165965   5.286   2.558   1.316  0.4528 -0.5691  0.5521
14850TIP3    H265966   5.261   2.607   1.175 -0.7955  0.7564  1.2139
14851TIP3   OH265967   5.428   4.920  14.897  0.1280  0.5006 -1.1026
14851TIP3    H165968   5.380   4.837  14.890 -0.2019  0.7190 -1.4761
14851TIP3    H265969   5.390   4.975  14.829 -2.0368  2.1428  1.2337
14852TIP3   OH265970   1.188   6.763  12.169 -0.5352 -0.1402 -0.2619
14852TIP3    H165971   1.162   6.705  12.241  2.2289 -1.2135 -0.0085
14852TIP3    H265972   1.115   6.824  12.161 -2.3070 -1.8616  1.3978
14853TIP3   OH265973   2.200   6.228  12.270  0.0430  0.5837  0.0810
14853TIP3    H165974   2.145   6.230  12.191 -0.2093 -0.0891  0.2366
14853TIP3    H265975   2.147   6.269  12.338 -0.8118 -1.2287  0.5601
14854TIP3   OH265976   5.995   2.912   2.879 -0.3236  0.1980  0.5518
14854TIP3    H165977   5.956   2.992   2.843 -0.2598 -0.7109 -1.6559
14854TIP3    H265978   5.971   2.914   2.972 -1.8344  1.8867  0.1827
14855TIP3   OH265979   0.515   2.490   1.891  0.4724  0.4700 -0.1147
14855TIP3    H165980   0.504   2.557   1.824 -0.2909  1.2379  0.7523
14855TIP3    H265981   0.431   2.489   1.938 -0.3838 -2.5767 -1.4079
14856TIP3   OH265982   0.156   1.239  14.401  0.6425 -0.2085 -0.0196
14856TIP3    H165983   0.130   1.175  14.334  0.3530 -0.9990  0.8416
14856TIP3    H265984   0.251   1.230  14.407  0.6772 -0.0910 -0.3645
14857TIP3   OH265985   5.563   2.121   4.037  0.1963  0.1196 -0.2514
14857TIP3    H165986   5.649   2.144   4.002  0.0975  1.5839  0.3834
14857TIP3    H265987   5.512   2.094   3.960  0.8847  0.3216 -0.7869
14858TIP3   OH265988   0.475   6.457  15.012  0.3311  0.3975 -0.7608
14858TIP3    H165989   0.386   6.430  14.991  0.6379 -0.7929 -0.5897
14858TIP3    H265990   0.477   6.551  14.992 -1.0258  0.4977 -0.4968
14859TIP3   OH265991   0.693   2.030  16.665  0.0481 -0.0060  0.8974
14859TIP3    H165992   0.738   1.953  16.699  0.9581 -0.1904 -0.6183
14859TIP3    H265993   0.645   2.065  16.740 -1.5167 -2.7978  1.3376
14860TIP3   OH265994   3.693   6.588  15.952  0.0045 -0.1299  0.2680
14860TIP3    H165995   3.780   6.559  15.925  0.3807  2.1276 -1.1831
14860TIP3    H265996   3.634   6.523  15.914  0.8840 -0.1190 -1.1822
14861TIP3   OH265997   2.907   3.053   5.261 -0.0144 -0.1307 -0.5867
14861TIP3    H165998   2.905   2.971   5.211 -0.7037 -1.2093  1.0986
14861TIP3    H265999   2.985   3.099   5.229  2.2519 -2.8683  0.4990
14862TIP3   OH266000   3.706   3.132   3.426  0.2241 -0.3491 -0.3293
14862TIP3    H166001   3.657   3.050   3.435  0.7812 -0.9700 -2.4994
14862TIP3    H266002   3.725   3.158   3.516 -1.6814 -1.5398  0.4765
14863TIP3   OH266003   6.531   4.982  16.829 -0.0968  0.5657 -0.4627
14863TIP3    H166004   6.600   5.043  16.856 -0.4967  1.0902 -0.6081
14863TIP3    H266005   6.566   4.896  16.850 -0.4423  0.9450  1.8541
14864TIP3   OH266006   6.657   1.490   6.568 -0.3829  0.0521  0.2903
14864TIP3    H166007   6.709   1.415   6.596  0.3106  0.3303 -0.2187
14864TIP3    H266008   6.709   1.531   6.499 -0.2948  1.5805  1.2301
14865TIP3   OH266009   5.754   2.964  12.186  0.4538  0.1187 -0.5124
14865TIP3    H166010   5.684   2.994  12.245 -0.3134 -1.2170 -0.7103
14865TIP3    H266011   5.747   3.022  12.110 -0.1081  0.3251 -0.3097
14866TIP3   OH266012   1.303   3.093  13.624 -0.3471  0.1306  0.0691
14866TIP3    H166013   1.369   3.148  13.581 -0.3804  0.5536  0.5436
14866TIP3    H266014   1.228   3.151  13.636 -1.2145 -0.6179 -1.3875
14867TIP3   OH266015   5.326   3.749   2.741 -0.1987 -0.6259  0.8656
14867TIP3    H166016   5.300   3.735   2.833  0.8986 -2.9189  0.9055
14867TIP3    H266017   5.292   3.673   2.695 -0.3376  0.2787 -0.5793
14868TIP3   OH266018   2.854   0.500  15.923  0.1470 -0.2801  0.4686
14868TIP3    H166019   2.864   0.405  15.921 -0.8716 -0.4187  1.0768
14868TIP3    H266020   2.835   0.524  15.832  1.1160 -0.5571  0.1829
14869TIP3   OH266021   2.986   0.427   4.766 -0.2064  0.3684 -0.8366
14869TIP3    H166022   2.996   0.493   4.697  0.0253  1.9316  0.6110
14869TIP3    H266023   2.903   0.384   4.746 -1.2493  2.2851 -0.9325
14870TIP3   OH266024   0.565   4.413  12.831 -0.2844 -0.5644 -0.4964
14870TIP3    H166025   0.490   4.472  12.826  0.7524  0.8107 -0.0716
14870TIP3    H266026   0.630   4.450  12.771  0.5851 -0.9703  0.1705
14871TIP3   OH266027   2.831   0.836   3.133 -0.4744  0.4167 -0.0257
14871TIP3    H166028   2.860   0.923   3.104 -1.2980  0.9399  0.6611
14871TIP3    H266029   2.911   0.794   3.166  0.0752  0.6083 -1.0589
14872TIP3   OH266030   2.904   3.791   3.753  0.3841  0.1561  0.4390
14872TIP3    H166031   2.996   3.772   3.772 -0.2760 -4.1014  0.1638
14872TIP3    H266032   2.854   3.738   3.815 -1.8183 -1.0602 -2.1670
14873TIP3   OH266033   2.877   6.406   4.886 -0.3242  0.6021  0.1041
14873TIP3    H166034   2.962   6.406   4.930 -1.4967 -0.9369  2.5483
14873TIP3    H266035   2.898   6.425   4.794  2.6363  0.2585  0.6071
14874TIP3   OH266036   6.197   3.819   2.672  0.0897 -0.7151 -0.8024
14874TIP3    H166037   6.228   3.885   2.610  0.2010 -0.0565 -0.0674
14874TIP3    H266038   6.117   3.784   2.633 -0.7783  0.8976 -0.5363
14875TIP3   OH266039   5.152   6.390   4.533 -0.2007  0.4055 -0.2968
14875TIP3    H166040   5.206   6.345   4.599  0.1517  1.1857 -0.0463
14875TIP3    H266041   5.215   6.434   4.477 -0.5630  1.0424 -0.2104
14876TIP3   OH266042   3.955   0.251  16.334  0.7508  0.1601  0.0930
14876TIP3    H166043   3.991   0.339  16.345  0.0530  0.1900  2.7519
14876TIP3    H266044   4.031   0.193  16.336  0.9974  0.4954  1.8238
14877TIP3   OH266045   4.084   4.012  14.161 -0.1282  0.8956 -0.1448
14877TIP3    H166046   4.098   4.066  14.083  2.7985  0.2935 -0.1534
14877TIP3    H266047   4.080   3.922  14.128  0.3757  0.6967  0.3213
14878TIP3   OH266048   3.053   3.406   1.041  0.6806 -0.4510  0.4546
14878TIP3    H166049   2.985   3.386   0.977  0.5823  2.3912 -0.4972
14878TIP3    H266050   3.085   3.321   1.070 -2.3538 -1.8933 -0.0151
14879TIP3   OH266051   0.005   0.781   4.063  0.5278  0.4383 -0.3775
14879TIP3    H166052   0.013   0.700   4.013  2.0434 -0.0321  0.5563
14879TIP3    H266053  -0.086   0.807   4.053  0.2717 -0.8326 -1.5348
14880TIP3   OH266054   4.330   5.022   0.981 -0.7544 -0.0899  0.0884
14880TIP3    H166055   4.260   5.054   0.924 -0.6364 -0.7911 -0.4738
14880TIP3    H266056   4.304   4.933   1.003 -0.5535  0.0128  0.7397
14881TIP3   OH266057   4.640   5.993  13.800 -0.6041 -0.0859  0.0996
14881TIP3    H166058   4.618   6.006  13.892  0.2462  2.0142  0.0451
14881TIP3    H266059   4.568   6.036  13.752 -0.4274 -0.1234 -0.2006
14882TIP3   OH266060   4.978   4.373  16.696  0.3532  0.3127 -0.1705
14882TIP3    H166061   4.965   4.347  16.605  2.5902  1.2167 -0.8195
14882TIP3    H266062   4.959   4.467  16.698  3.0590  0.9520 -0.4454
14883TIP3   OH266063   2.275   0.499  12.554 -0.1474 -0.1068 -0.2078
14883TIP3    H166064   2.237   0.432  12.611 -1.0536 -1.4562 -2.2600
14883TIP3    H266065   2.295   0.453  12.473  0.1235  1.9260 -1.3756
14884TIP3   OH266066   5.199   2.502  15.843 -0.4956 -0.1745  0.2573
14884TIP3    H166067   5.251   2.450  15.781 -0.0650  0.4669  0.0748
14884TIP3    H266068   5.108   2.482  15.820 -0.3568 -1.8268  1.0179
14885TIP3   OH266069   1.151   5.395  13.949 -0.5641  0.0122 -0.1429
14885TIP3    H166070   1.202   5.447  13.887  1.4674 -0.5257  0.9818
14885TIP3    H266071   1.115   5.460  14.010 -1.5684  0.4320 -1.1638
14886TIP3   OH266072   4.856   2.469  13.320  0.2992  0.0961  0.4753
14886TIP3    H166073   4.835   2.480  13.227 -2.2701  0.4555  1.0330
14886TIP3    H266074   4.926   2.403  13.321 -0.0608 -0.3909 -1.6692
14887TIP3   OH266075   3.127   4.070   3.338  0.0224  0.2616 -0.0100
14887TIP3    H166076   3.033   4.075   3.319 -0.3463  2.1162  1.9240
14887TIP3    H266077   3.170   4.098   3.257 -1.2088  1.7961 -0.1762
14888TIP3   OH266078   2.152   5.225   2.784  0.0359  0.2793  0.0458
14888TIP3    H166079   2.215   5.241   2.854  0.6732 -0.5904 -0.3236
14888TIP3    H266080   2.105   5.146   2.812  0.1697  0.0345 -0.4218
14889TIP3   OH266081   4.549   2.171   4.441 -0.0871 -0.1424  0.4015
14889TIP3    H166082   4.522   2.083   4.465 -0.3467 -1.6655 -4.4630
14889TIP3    H266083   4.630   2.186   4.491  0.8307 -3.8114  0.2731
14890TIP3   OH266084   4.480   6.305  12.430 -0.9594  0.9171 -0.2496
14890TIP3    H166085   4.478   6.257  12.347  0.3316 -0.0615  0.2502
14890TIP3    H266086   4.556   6.363  12.423 -1.1911  1.2556  0.0177
14891TIP3   OH266087   6.760   4.132   1.430 -0.2328  0.3739  0.4432
14891TIP3    H166088   6.799   4.056   1.388 -1.2175 -1.1754  2.1657
14891TIP3    H266089   6.805   4.207   1.392 -0.5658 -0.9149 -2.7508
14892TIP3   OH266090   0.747   4.618   4.834  0.0348  0.5399  0.0475
14892TIP3    H166091   0.656   4.646   4.826 -0.3020 -0.6892 -0.6667
14892TIP3    H266092   0.792   4.693   4.873 -1.8999  0.0388  3.7466
14893TIP3   OH266093   2.458   3.267  13.105  0.2797 -0.2044  0.3380
14893TIP3    H166094   2.526   3.301  13.164 -0.4137  0.2794  0.8666
14893TIP3    H266095   2.503   3.258  13.021  1.1130 -0.2892  0.7741
14894TIP3   OH266096   3.835   0.565   2.100 -0.2578  0.5962  0.3906
14894TIP3    H166097   3.917   0.526   2.128 -1.5900 -0.7383  2.8496
14894TIP3    H266098   3.768   0.500   2.124 -1.9888  1.2255 -2.3277
14895TIP3   OH266099   5.237   5.604   6.085 -0.0040  0.2561 -0.7296
14895TIP3    H166100   5.247   5.547   6.009 -0.9697 -0.2307 -0.5145
14895TIP3    H266101   5.215   5.544   6.157 -1.8742  0.9528 -0.6782
14896TIP3   OH266102   5.741   1.080   1.543 -0.2568 -0.0048 -0.6310
14896TIP3    H166103   5.744   1.015   1.614  2.6857  1.9083  1.2230
14896TIP3    H266104   5.822   1.067   1.495 -0.2013  1.4447 -0.9751
14897TIP3   OH266105   4.448   1.800  14.313 -0.1635  0.0764  0.2314
14897TIP3    H166106   4.448   1.870  14.248 -1.0434  0.8690  1.0456
14897TIP3    H266107   4.524   1.746  14.292  0.7420  1.4878 -0.1998
14898TIP3   OH266108   2.914   1.419   0.946 -0.5186 -0.0496  0.7963
14898TIP3    H166109   2.890   1.334   0.985  0.6378 -0.8825 -0.2239
14898TIP3    H266110   2.997   1.402   0.902 -2.2450  0.4599 -3.0549
14899TIP3   OH266111   2.170   5.348   1.124 -0.0107  0.6015 -0.0918
14899TIP3    H166112   2.167   5.303   1.039  2.9027 -1.1410  0.5890
14899TIP3    H266113   2.110   5.297   1.179  1.2649 -0.9089 -0.0387
14900TIP3   OH266114   0.843   3.081   0.419 -0.8377 -0.3411 -0.4689
14900TIP3    H166115   0.891   3.025   0.481 -1.4575 -0.2832  0.0657
14900TIP3    H266116   0.887   3.066   0.335 -0.3876 -0.9012 -0.1407
14901TIP3   OH266117   2.228   2.592   2.385  0.7058  0.2411 -0.0934
14901TIP3    H166118   2.270   2.676   2.401  1.6636 -0.0500 -0.9999
14901TIP3    H266119   2.283   2.529   2.432 -1.1871  0.2839  2.4390
14902TIP3   OH266120   2.630   5.841   1.593  0.4203  0.0161  0.0179
14902TIP3    H166121   2.636   5.785   1.671 -1.6883 -0.3993 -0.0791
14902TIP3    H266122   2.563   5.800   1.539 -0.0747  1.7932 -0.7737
14903TIP3   OH266123   0.057   0.521  14.375  0.0955 -0.3194  0.2171
14903TIP3    H166124   0.015   0.594  14.329 -0.8410 -1.1740 -0.3164
14903TIP3    H266125   0.078   0.458  14.307 -0.4478 -1.1957  0.8363
14904TIP3   OH266126   3.274   4.825  13.376 -0.2381 -0.2614  0.1187
14904TIP3    H166127   3.307   4.847  13.289 -3.3850 -1.3243 -1.5046
14904TIP3    H266128   3.242   4.908  13.412  4.6590  1.0826  2.2788
14905TIP3   OH266129   0.094   6.015  17.122  0.2072 -0.0236  0.5682
14905TIP3    H166130   0.016   6.070  17.128 -0.3619 -0.9449  2.1253
14905TIP3    H266131   0.062   5.926  17.137  1.7368 -0.2678  2.7529
14906TIP3   OH266132   4.498   4.883   2.803 -0.0683 -0.3640 -0.1548
14906TIP3    H166133   4.461   4.971   2.802  0.7249 -0.0154  0.2664
14906TIP3    H266134   4.494   4.854   2.712  2.6472  1.3916 -0.9663
14907TIP3   OH266135   0.149   0.308  12.460 -0.3869  0.4026  0.0096
14907TIP3    H166136   0.160   0.345  12.372  1.4827  0.4852  0.2431
14907TIP3    H266137   0.238   0.286  12.488 -0.9038  0.7040  2.0216
14908TIP3   OH266138   1.030   1.354  16.984 -0.1942  0.0415 -0.0947
14908TIP3    H166139   0.984   1.271  16.997  2.8495 -1.7652  0.1907
14908TIP3    H266140   0.994   1.413  17.051 -0.7766 -1.8276  1.3228
14909TIP3   OH266141   0.352   2.628  13.649  0.3146  0.5883 -0.1009
14909TIP3    H166142   0.393   2.607  13.566  0.7051  0.8458  0.0230
14909TIP3    H266143   0.410   2.592  13.716 -0.2105  0.0170  0.0543
14910TIP3   OH266144   6.522   4.710  15.833 -0.0042  0.2935 -0.0333
14910TIP3    H166145   6.485   4.799  15.836  0.1152  0.3083  1.3763
14910TIP3    H266146   6.555   4.702  15.743  3.5060  3.1747  0.7294
14911TIP3   OH266147   6.685   2.450  13.933 -0.2631 -0.1027 -0.8710
14911TIP3    H166148   6.620   2.489  13.992 -1.3556  1.1788 -2.8042
14911TIP3    H266149   6.760   2.509  13.939 -0.6041  0.3727 -1.2069
14912TIP3   OH266150   5.651   3.783  13.943 -0.1646  0.1064 -0.0842
14912TIP3    H166151   5.695   3.855  13.987 -0.8650  1.3630 -1.3603
14912TIP3    H266152   5.589   3.750  14.008  1.1773 -0.3539  1.0143
14913TIP3   OH266153   6.144   4.256  14.414 -0.1912  0.3561  0.8640
14913TIP3    H166154   6.139   4.164  14.386  1.6743 -0.0531  1.7454
14913TIP3    H266155   6.129   4.306  14.334 -0.0774 -0.7250  0.1364
14914TIP3   OH266156   6.209   2.082   5.251  0.3405  0.3662  0.1976
14914TIP3    H166157   6.214   2.176   5.269 -0.0931  0.6917 -1.2398
14914TIP3    H266158   6.146   2.049   5.315  0.1422  1.1464  0.4210
14915TIP3   OH266159   2.496   4.737  12.887  0.4042  0.2814 -0.3808
14915TIP3    H166160   2.580   4.723  12.844  0.2425 -0.8832 -0.3415
14915TIP3    H266161   2.512   4.715  12.979 -0.6561 -3.1052 -0.8819
14916TIP3   OH266162   1.917   5.968  15.961 -0.0133 -0.3795 -0.1992
14916TIP3    H166163   1.844   6.000  16.013  0.2041 -1.6030  0.9055
14916TIP3    H266164   1.884   5.887  15.921  0.4046 -0.3984 -0.5103
14917TIP3   OH266165   0.156   3.811  10.488  0.2031 -0.0322 -0.1657
14917TIP3    H166166   0.200   3.892  10.515 -0.6633  0.0068  1.2280
14917TIP3    H266167   0.117   3.832  10.403 -0.5148  1.2449  0.4428
14918TIP3   OH266168   3.609   5.349   2.214 -0.3467  0.1942  0.1124
14918TIP3    H166169   3.619   5.443   2.198 -1.4245  0.8240  2.6130
14918TIP3    H266170   3.696   5.313   2.197  0.1440  1.6709 -0.7110
14919TIP3   OH266171   5.286   3.365  14.601  0.2366  0.2432  0.1283
14919TIP3    H166172   5.243   3.427  14.660 -0.2429  0.8333 -0.8205
14919TIP3    H266173   5.281   3.406  14.515 -0.6105 -1.3504 -0.6346
14920TIP3   OH266174   3.086   6.208   1.735 -0.1546 -0.6110  0.6597
14920TIP3    H166175   3.177   6.180   1.748  0.1981 -0.1960 -0.7029
14920TIP3    H266176   3.055   6.230   1.822  1.4299  0.3199  1.0342
14921TIP3   OH266177   2.770   1.078   5.844  0.0560 -0.1007 -0.2016
14921TIP3    H166178   2.851   1.105   5.886  0.4714 -0.5412 -0.6996
14921TIP3    H266179   2.737   1.006   5.899 -0.4737  0.6696  0.5024
14922TIP3   OH266180   0.735   4.764   2.506 -0.0284 -0.2492 -0.3495
14922TIP3    H166181   0.826   4.770   2.536 -0.3915 -0.2029  0.7631
14922TIP3    H266182   0.740   4.709   2.428  0.8668 -0.8546  0.1085
14923TIP3   OH266183   4.954   4.767  17.158 -0.1526  0.2753  0.5886
14923TIP3    H166184   4.873   4.718  17.174 -0.3628 -0.0447 -1.2296
14923TIP3    H266185   5.018   4.700  17.135  0.0069  0.7143 -0.2596
14924TIP3   OH266186   5.524   5.977   5.081 -0.2609 -0.9707  0.7246
14924TIP3    H166187   5.466   6.000   5.009  0.0366  0.3105  0.8594
14924TIP3    H266188   5.524   5.881   5.083 -0.9075 -1.0140 -0.4464
14925TIP3   OH266189   4.548   5.375  11.483 -0.3015 -0.5596  0.2639
14925TIP3    H166190   4.491   5.422  11.422 -2.4097 -1.8653  1.1174
14925TIP3    H266191   4.576   5.298  11.435  0.2614 -0.2304  0.0553
14926TIP3   OH266192   1.422   0.163  13.766 -0.5660 -0.0557 -0.0980
14926TIP3    H166193   1.488   0.232  13.769  0.3944 -0.8170 -2.1227
14926TIP3    H266194   1.356   0.191  13.830  0.5720  1.8882  0.3188
14927TIP3   OH266195   5.589   5.187  12.381  0.1254 -0.0799  0.3123
14927TIP3    H166196   5.627   5.270  12.354 -0.7143  1.2085  2.7832
14927TIP3    H266197   5.660   5.124  12.374  0.2120  0.2249 -3.8077
14928TIP3   OH266198   0.451   2.121   3.575  0.9376 -0.1359 -0.5041
14928TIP3    H166199   0.516   2.129   3.505  1.9750  1.3263  0.5712
14928TIP3    H266200   0.368   2.146   3.535  1.2841 -0.5756 -1.5148
14929TIP3   OH266201   1.549   3.934   3.610  0.1999 -0.0966 -0.2275
14929TIP3    H166202   1.516   4.004   3.666  1.2748 -0.0783  0.4076
14929TIP3    H266203   1.597   3.876   3.669 -0.7818 -1.4654 -0.7226
14930TIP3   OH266204   6.291   2.302   3.446  0.0022  0.1575 -0.3095
14930TIP3    H166205   6.305   2.208   3.460 -1.0085 -0.1183 -0.9933
14930TIP3    H266206   6.324   2.344   3.525 -0.9275 -0.8977  0.6649
14931TIP3   OH266207   0.783   1.444   2.308 -0.1376  0.4675 -0.5278
14931TIP3    H166208   0.838   1.498   2.251  2.7161  0.2180  1.7814
14931TIP3    H266209   0.801   1.354   2.280  0.7614  0.3819  0.2784
14932TIP3   OH266210   0.594   4.997   2.454 -0.4027  0.1532  0.3064
14932TIP3    H166211   0.638   4.914   2.475 -0.7616  0.4595  2.5412
14932TIP3    H266212   0.614   5.012   2.362  0.7967 -1.7368  0.1977
14933TIP3   OH266213   4.498   3.428   4.473  0.0415 -1.1228  0.7033
14933TIP3    H166214   4.512   3.465   4.560  3.0850  1.3896 -0.6500
14933TIP3    H266215   4.436   3.488   4.431  1.6594  0.1009 -0.0675
14934TIP3   OH266216   5.109   6.626   1.320  0.3389 -0.4940 -0.5336
14934TIP3    H166217   5.189   6.580   1.296  0.0485 -1.4276  0.2297
14934TIP3    H266218   5.075   6.577   1.396  0.6222  1.6259  1.0572
14935TIP3   OH266219   4.521   5.415   4.976 -0.0504  0.0879 -0.0308
14935TIP3    H166220   4.477   5.411   5.060 -0.3913 -1.7688 -0.2571
14935TIP3    H266221   4.540   5.508   4.963 -1.5132  0.6036  1.2858
14936TIP3   OH266222   4.667   5.195   1.611  0.4287  0.2454  0.1181
14936TIP3    H166223   4.614   5.258   1.563  0.3546  0.4187  0.4303
14936TIP3    H266224   4.669   5.117   1.554  0.6014  0.5568 -0.3109
14937TIP3   OH266225   2.907   4.649   5.256  0.1912 -0.1678  0.1816
14937TIP3    H166226   2.973   4.714   5.279 -0.8083  0.2841  1.9516
14937TIP3    H266227   2.924   4.630   5.163  2.9801 -0.3228  0.6223
14938TIP3   OH266228   4.873   4.480  15.055 -0.5872  0.0997  0.1988
14938TIP3    H166229   4.956   4.469  15.103  0.3434 -0.5711 -1.4844
14938TIP3    H266230   4.858   4.574  15.054 -0.3728  0.1598  1.3730
14939TIP3   OH266231   3.287   4.393   2.359 -0.1688 -0.4853  0.4928
14939TIP3    H166232   3.228   4.375   2.285  0.6878  1.3000 -0.7129
14939TIP3    H266233   3.371   4.355   2.332  0.5515  1.4777 -0.2184
14940TIP3   OH266234   0.780   2.950   0.899  0.3885  0.1451 -0.4011
14940TIP3    H166235   0.748   2.883   0.839  0.6952 -1.1406  0.8480
14940TIP3    H266236   0.748   2.924   0.985  2.4828  0.2780  0.4779
14941TIP3   OH266237   5.525   2.443   3.818 -0.2644  0.0009 -0.7001
14941TIP3    H166238   5.618   2.431   3.834  0.2886  3.4763 -0.5240
14941TIP3    H266239   5.485   2.442   3.905 -0.4680 -1.7244 -0.7925
14942TIP3   OH266240   1.824   1.965  15.632  0.2731  0.2279 -0.1880
14942TIP3    H166241   1.745   1.974  15.578  0.1434 -1.4329 -0.3293
14942TIP3    H266242   1.794   1.983  15.721 -0.1311  0.2282 -0.3199
14943TIP3   OH266243   2.268   0.973  13.412  0.6550  0.2542 -0.3393
14943TIP3    H166244   2.262   0.963  13.507  0.4557  1.4712 -0.2076
14943TIP3    H266245   2.343   1.031  13.399 -0.0309  1.0376 -0.8496
14944TIP3   OH266246   3.072   2.901   5.489 -0.1578 -0.1149 -0.1429
14944TIP3    H166247   2.996   2.940   5.447 -0.4508 -0.3457  0.1714
14944TIP3    H266248   3.138   2.970   5.487 -0.3956  0.1096 -0.3501
14945TIP3   OH266249   3.578   1.545  12.437 -0.2786 -0.2788  0.0545
14945TIP3    H166250   3.593   1.463  12.484  1.4523 -0.0533 -0.0557
14945TIP3    H266251   3.581   1.521  12.345  1.0408  0.0236  0.0103
14946TIP3   OH266252   1.761   4.612  14.331  0.6227 -0.1977  0.1158
14946TIP3    H166253   1.780   4.632  14.240  0.3432 -0.5579 -0.0242
14946TIP3    H266254   1.672   4.577  14.330  1.2660 -1.9562  0.2589
14947TIP3   OH266255   3.547   2.650   0.660 -0.1024 -0.4186 -0.4610
14947TIP3    H166256   3.587   2.736   0.662  0.8796 -0.8723  1.3825
14947TIP3    H266257   3.461   2.662   0.701 -0.1649 -0.2349 -0.6442
14948TIP3   OH266258   6.387   3.021   0.596  0.7026  0.1536 -0.0828
14948TIP3    H166259   6.419   3.110   0.590 -0.1511  0.3912 -2.9770
14948TIP3    H266260   6.306   3.027   0.646 -0.3465  1.3816 -1.8446
14949TIP3   OH266261   3.054   4.959   4.171 -0.2193 -0.3547  0.2267
14949TIP3    H166262   3.116   4.898   4.210  0.1396 -0.3488 -0.3193
14949TIP3    H266263   3.048   4.932   4.079  0.8792  1.1418 -0.3322
14950TIP3   OH266264   2.642   5.529  16.795 -0.2814 -0.5128  0.1198
14950TIP3    H166265   2.673   5.509  16.884  0.3212 -1.2188 -0.2428
14950TIP3    H266266   2.703   5.484  16.737 -0.2336  0.5555 -0.6877
14951TIP3   OH266267   4.251   1.393  12.467  0.4396  0.4271  0.1412
14951TIP3    H166268   4.289   1.465  12.517  1.4195  1.3387 -1.8455
14951TIP3    H266269   4.240   1.427  12.379 -2.0513 -0.8720 -0.1301
14952TIP3   OH266270   5.486   2.059  16.864  0.2038  0.8754  0.4974
14952TIP3    H166271   5.507   2.067  16.957 -2.9271  0.8701  1.3360
14952TIP3    H266272   5.484   1.965  16.847  0.6494  0.8735  0.4432
14953TIP3   OH266273   2.732   6.240  16.128 -0.1346  0.2606  0.0076
14953TIP3    H166274   2.783   6.193  16.195 -1.7716 -0.9839  0.4349
14953TIP3    H266275   2.674   6.297  16.177  0.3187  1.1386 -0.4549
14954TIP3   OH266276   5.114   1.722   2.059 -0.3343  0.2723  0.2760
14954TIP3    H166277   5.110   1.652   2.123 -1.1582  0.3160  0.2807
14954TIP3    H266278   5.039   1.708   2.002 -1.1052  1.7216  0.8774
14955TIP3   OH266279   3.686   1.962   1.904 -0.2549  0.0276  0.0598
14955TIP3    H166280   3.609   1.905   1.910 -0.9477  0.6609 -1.8173
14955TIP3    H266281   3.650   2.051   1.909  0.4189  0.3201 -0.1887
14956TIP3   OH266282   5.856   4.382   4.714  0.2323 -0.1113 -0.6268
14956TIP3    H166283   5.794   4.349   4.649 -0.9082  0.4873  0.1294
14956TIP3    H266284   5.816   4.461   4.749  1.3108  0.1609  0.0660
14957TIP3   OH266285   0.850   0.508   2.977 -0.3992  0.0605 -0.0829
14957TIP3    H166286   0.772   0.533   2.928 -0.7782 -1.9326 -0.6203
14957TIP3    H266287   0.921   0.556   2.935 -0.9633 -0.2689 -1.4938
14958TIP3   OH266288   4.406   5.538   2.152  0.8038  0.5840  0.6539
14958TIP3    H166289   4.372   5.457   2.190  0.2122  1.3047  1.7072
14958TIP3    H266290   4.461   5.509   2.079 -1.9486 -0.6934 -1.1150
14959TIP3   OH266291   1.624   1.210  13.527 -0.3029 -0.1976  0.2537
14959TIP3    H166292   1.683   1.143  13.561 -1.2106 -0.7597  0.7284
14959TIP3    H266293   1.574   1.239  13.603 -0.5188  0.4044 -0.1152
14960TIP3   OH266294   5.643   6.147   1.339  0.2440 -0.1161 -0.2408
14960TIP3    H166295   5.676   6.058   1.324 -0.5728 -0.6370  0.8992
14960TIP3    H266296   5.608   6.174   1.254 -2.0642 -2.0082 -0.0034
14961TIP3   OH266297   0.350   1.136  12.461  0.6360  0.2121 -0.0160
14961TIP3    H166298   0.348   1.041  12.454 -0.2399  0.2855 -1.0277
14961TIP3    H266299   0.324   1.154  12.551  0.9986 -0.4946  0.2419
14962TIP3   OH266300   1.532   0.271   1.890 -0.2485 -0.0612 -0.3149
14962TIP3    H166301   1.531   0.175   1.900  0.7361 -0.1340 -0.8211
14962TIP3    H266302   1.484   0.303   1.966  1.2398 -0.8669  1.0342
14963TIP3   OH266303   3.356   2.554   4.221 -0.1365 -0.0062  0.3041
14963TIP3    H166304   3.442   2.515   4.237 -1.1308 -2.0221  1.1161
14963TIP3    H266305   3.322   2.507   4.144 -0.8431  0.1520  0.5061
14964TIP3   OH266306   5.212   5.574  12.092 -0.1595  0.2291  0.0086
14964TIP3    H166307   5.301   5.607  12.084 -0.1115  1.9505  4.4674
14964TIP3    H266308   5.166   5.610  12.016  2.2499  2.0170 -0.7440
14965TIP3   OH266309   2.190   0.940  10.436  0.6329 -0.5730  0.0051
14965TIP3    H166310   2.181   0.948  10.531  1.0002 -0.0866  0.0034
14965TIP3    H266311   2.256   1.006  10.413 -0.5552  0.3971 -0.7666
14966TIP3   OH266312   1.586   4.652   3.338 -0.6589  0.2911  0.3049
14966TIP3    H166313   1.658   4.597   3.370 -0.4006  0.0752 -0.6087
14966TIP3    H266314   1.629   4.716   3.281 -1.3088 -0.6567 -1.3124
14967TIP3   OH266315   4.471   4.001  12.155 -0.4294 -0.3952 -0.6500
14967TIP3    H166316   4.441   4.092  12.152 -1.6697 -0.6303  1.8947
14967TIP3    H266317   4.402   3.954  12.202  0.4660 -2.5697 -1.3377
14968TIP3   OH266318   5.873   4.900  16.344  0.1916 -0.2917 -0.5267
14968TIP3    H166319   5.831   4.961  16.284  2.5106  1.0953 -0.8793
14968TIP3    H266320   5.911   4.956  16.412  1.8583 -1.3541 -0.5138
14969TIP3   OH266321   6.267   0.876   4.566  0.6080 -0.4826 -0.3568
14969TIP3    H166322   6.280   0.848   4.475  1.4283  1.6366 -0.9706
14969TIP3    H266323   6.188   0.930   4.563  0.8178 -0.1398  0.1105
14970TIP3   OH266324   2.556   3.460  16.863  0.9656  0.1392 -0.6659
14970TIP3    H166325   2.466   3.452  16.832  1.4697  0.8870 -2.4221
14970TIP3    H266326   2.548   3.500  16.950 -0.3845  0.2449 -0.8218
14971TIP3   OH266327   0.128   1.969  16.474 -0.2135  0.3527  0.1888
14971TIP3    H166328   0.181   1.894  16.446  0.2777  0.3709  1.0409
14971TIP3    H266329   0.193   2.034  16.501 -0.6374  1.0926 -0.5509
14972TIP3   OH266330   5.014   3.590  13.604 -0.9629 -0.3536 -0.5256
14972TIP3    H166331   5.005   3.495  13.596  1.7244 -0.6151 -1.4529
14972TIP3    H266332   5.050   3.604  13.692 -0.1087 -0.3303 -0.8716
14973TIP3   OH266333   4.087   6.312  14.579  0.1292  0.4435  0.8136
14973TIP3    H166334   4.137   6.356  14.648 -2.3023 -0.3059  3.2446
14973TIP3    H266335   4.081   6.221  14.608 -0.1232 -0.1366 -0.9476
14974TIP3   OH266336   0.230   4.208  12.275 -0.1422  0.0888  0.4836
14974TIP3    H166337   0.279   4.148  12.218  1.7664  0.3094  1.8425
14974TIP3    H266338   0.263   4.295  12.254  0.0480  0.2477  1.4043
14975TIP3   OH266339   6.166   5.546   3.863 -0.5625  0.1413 -0.8163
14975TIP3    H166340   6.170   5.631   3.907  1.0301 -0.5569  0.4849
14975TIP3    H266341   6.109   5.561   3.787  1.6894  3.0432 -2.1098
14976TIP3   OH266342   3.636   5.306  11.617  0.1005 -0.0078 -0.1143
14976TIP3    H166343   3.608   5.336  11.530  0.6449 -0.6191 -0.5113
14976TIP3    H266344   3.663   5.215  11.603 -2.6388 -1.1434  1.2694
14977TIP3   OH266345   6.274   4.520  12.785 -0.2324 -0.3147  0.1050
14977TIP3    H166346   6.197   4.499  12.731 -0.2290  1.4502 -0.6298
14977TIP3    H266347   6.237   4.543  12.870 -0.3982 -0.8180  0.1770
14978TIP3   OH266348   3.154   2.218   2.432 -0.0736 -0.2872  0.7575
14978TIP3    H166349   3.115   2.270   2.362  0.3504 -0.2711  0.5315
14978TIP3    H266350   3.127   2.128   2.413 -0.7521 -0.1648  1.1117
14979TIP3   OH266351   5.083   2.228   1.251  0.0533 -0.6157  0.4558
14979TIP3    H166352   5.039   2.257   1.331  0.3954  0.0392  0.4119
14979TIP3    H266353   5.019   2.246   1.181  1.2974  2.9786 -0.0049
14980TIP3   OH266354   3.995   6.193   2.467 -0.5906  0.2164  0.0179
14980TIP3    H166355   3.993   6.103   2.433  0.1990 -0.2041  1.0381
14980TIP3    H266356   3.920   6.198   2.526 -1.2081  0.5426 -0.7850
14981TIP3   OH266357   1.712   6.249  12.215  0.0308 -0.5830  0.4365
14981TIP3    H166358   1.757   6.323  12.173 -0.3233 -0.8752 -0.4862
14981TIP3    H266359   1.621   6.278  12.225 -0.3103 -1.1880 -0.7208
14982TIP3   OH266360   2.420   2.785  15.169 -0.4103  0.3909  0.0777
14982TIP3    H166361   2.328   2.812  15.170 -1.2111 -2.0278 -1.4115
14982TIP3    H266362   2.420   2.701  15.214  1.0019  0.1007 -0.4439
14983TIP3   OH266363   2.235   0.797   2.846  0.3293  0.1449  0.4522
14983TIP3    H166364   2.217   0.835   2.932 -1.5093 -0.8507  0.5532
14983TIP3    H266365   2.168   0.833   2.789 -1.0541 -2.2478  0.3955
14984TIP3   OH266366   4.102   6.230   2.847 -0.0531 -0.4693  0.4556
14984TIP3    H166367   4.034   6.190   2.793  0.4614 -2.7152  1.3780
14984TIP3    H266368   4.065   6.231   2.935  0.8466 -1.1158  0.8533
14985TIP3   OH266369   5.072   2.329  13.658  0.1096 -0.8678  0.7858
14985TIP3    H166370   5.071   2.373  13.742  0.6213  0.6852  0.0163
14985TIP3    H266371   5.164   2.333  13.630 -0.3103  0.0908 -0.5445
14986TIP3   OH266372   2.946   3.061   2.559 -0.4510 -0.5885 -0.1897
14986TIP3    H166373   3.038   3.078   2.579 -0.4254 -1.3345  0.3818
14986TIP3    H266374   2.938   3.077   2.465  0.5764 -1.8518 -0.5079
14987TIP3   OH266375   5.588   6.039   3.065  0.0775  0.1946 -0.4618
14987TIP3    H166376   5.642   6.025   3.143  0.8125 -0.5112 -1.0814
14987TIP3    H266377   5.510   6.085   3.097  0.7457  0.6398  0.5533
14988TIP3   OH266378   4.748   5.590   0.369 -0.0202  0.3756 -0.1935
14988TIP3    H166379   4.789   5.612   0.452  4.4417  0.7170 -2.2119
14988TIP3    H266380   4.767   5.497   0.356  0.1520  0.5469 -1.2297
14989TIP3   OH266381   0.612   5.238   3.687  0.0036  0.4185 -0.1256
14989TIP3    H166382   0.536   5.180   3.695 -0.8214  1.3262 -1.0787
14989TIP3    H266383   0.634   5.236   3.594  1.7804 -0.5747  0.2682
14990TIP3   OH266384   3.833   3.968   2.771 -0.1102  0.4514 -0.0187
14990TIP3    H166385   3.786   4.004   2.846 -1.8987  0.2327 -0.9667
14990TIP3    H266386   3.816   4.030   2.700  1.6798  0.7387 -0.2264
14991TIP3   OH266387   0.153   3.109  12.443  0.2471 -0.3246 -0.3169
14991TIP3    H166388   0.112   3.104  12.357 -1.0173  1.6685  0.1087
14991TIP3    H266389   0.091   3.160  12.496  0.4313 -2.4557  2.1264
14992TIP3   OH266390   2.264   2.657   6.204  0.2828  0.1807 -0.5365
14992TIP3    H166391   2.293   2.748   6.202  0.3710  0.2896  2.2826
14992TIP3    H266392   2.176   2.660   6.242 -0.0148 -0.8840 -1.0722
14993TIP3   OH266393   0.807   0.928  14.175  0.3936 -0.7705  0.4507
14993TIP3    H166394   0.872   0.989  14.209 -0.9148  0.7191  0.4151
14993TIP3    H266395   0.749   0.982  14.121  0.4521 -2.4693 -1.4222
14994TIP3   OH266396   0.133   6.161   4.669 -0.0406  0.4167  0.2272
14994TIP3    H166397   0.134   6.123   4.581 -1.9843  0.1677  0.2736
14994TIP3    H266398   0.099   6.250   4.656  1.7910  1.1971  0.4831
14995TIP3   OH266399   5.202   4.526   2.003  0.3048 -0.4538 -0.0879
14995TIP3    H166400   5.247   4.467   2.064 -0.2272  0.3712  1.1275
14995TIP3    H266401   5.178   4.602   2.055 -1.3369 -0.2873 -1.0136
14996TIP3   OH266402   5.775   1.942   2.361  0.3283 -0.5855  0.1928
14996TIP3    H166403   5.688   1.965   2.329  0.2099 -0.7241  0.4136
14996TIP3    H266404   5.787   1.997   2.439  0.4456 -0.5518  0.1511
14997TIP3   OH266405   0.467   2.788   0.621 -0.5190 -0.6196  0.5722
14997TIP3    H166406   0.520   2.825   0.550 -0.6423 -0.3315  0.6277
14997TIP3    H266407   0.520   2.801   0.700 -0.0873 -1.5448  0.4471
14998TIP3   OH266408   5.398   3.934  11.836  0.1646 -0.2517  0.4246
14998TIP3    H166409   5.419   3.925  11.929  1.2186  0.1930  0.2325
14998TIP3    H266410   5.407   4.027  11.817  3.4644 -0.7281 -0.9120
14999TIP3   OH266411   3.076   6.616  17.174  0.1766  0.2982  0.3427
14999TIP3    H166412   3.146   6.597  17.112 -0.0915  2.3381 -0.6535
14999TIP3    H266413   3.052   6.707  17.157 -2.1602 -0.0745  1.2061
15000TIP3   OH266414   1.145   4.229  14.956  0.6735  0.2811  0.4097
15000TIP3    H166415   1.186   4.273  15.031  1.1405  0.7215 -0.0955
15000TIP3    H266416   1.061   4.274  14.945  1.1735  1.1168 -0.1423
15001TIP3   OH266417   1.287   4.406  14.194  0.0311  0.1342  0.1812
15001TIP3    H166418   1.223   4.476  14.183  1.6665  1.7670  0.4835
15001TIP3    H266419   1.326   4.394  14.107 -1.0122 -1.2446 -0.1308
15002TIP3   OH266420   0.526   1.719   4.171  0.3279  0.3018  0.3923
15002TIP3    H166421   0.474   1.694   4.095  0.4952  0.2545  0.2947
15002TIP3    H266422   0.548   1.811   4.156  0.3003  0.3127  0.4183
15003TIP3   OH266423   4.714   4.040  14.221 -0.1591 -0.0411  0.5009
15003TIP3    H166424   4.746   4.130  14.222 -1.8141  0.6002  2.2574
15003TIP3    H266425   4.643   4.040  14.157  0.2771 -0.3057  0.0014
15004TIP3   OH266426   1.619   4.392  14.504 -0.1877 -0.5452  0.1858
15004TIP3    H166427   1.567   4.431  14.435  0.6062  0.8824  0.3430
15004TIP3    H266428   1.585   4.431  14.585  0.3564 -0.4692  0.3863
15005TIP3   OH266429   6.791   5.032   2.933  0.2319 -0.0493 -0.1891
15005TIP3    H166430   6.813   5.104   2.873 -0.0217  1.3977  1.3790
15005TIP3    H266431   6.864   5.030   2.994  0.1253 -0.9996 -0.0920
15006TIP3   OH266432   0.121   1.376   1.037 -0.0804  0.4618  0.1363
15006TIP3    H166433   0.171   1.383   0.956  1.2818  0.9987  0.9881
15006TIP3    H266434   0.187   1.370   1.106 -1.2042  0.1229  1.2274
15007TIP3   OH266435   4.928   1.306  11.502  0.0178 -0.1949 -0.3836
15007TIP3    H166436   4.986   1.232  11.481 -1.0823 -1.1702 -0.1177
15007TIP3    H266437   4.950   1.328  11.593  0.5876  0.0453 -0.5715
15008TIP3   OH266438   2.570   2.062  16.219 -0.3148 -0.0293 -0.3568
15008TIP3    H166439   2.475   2.063  16.218 -0.3164 -0.3409 -0.7235
15008TIP3    H266440   2.593   1.989  16.276 -0.3084 -1.1634 -1.7683
15009TIP3   OH266441   1.665   4.747   1.246  0.4184  0.9102 -0.0917
15009TIP3    H166442   1.740   4.755   1.187 -0.0418 -0.2289 -0.8574
15009TIP3    H266443   1.591   4.784   1.197  0.3650  1.5898  0.4765
15010TIP3   OH266444   0.341   2.211  13.915  0.6120 -0.2687 -0.5469
15010TIP3    H166445   0.378   2.173  13.995  0.4080 -0.7682 -0.6867
15010TIP3    H266446   0.269   2.266  13.945  1.2359  0.4237 -0.3008
15011TIP3   OH266447   5.611   3.734   3.545 -0.5301 -0.3012 -0.3179
15011TIP3    H166448   5.608   3.827   3.571  0.9694 -0.4074  0.3425
15011TIP3    H266449   5.561   3.689   3.614  1.1318 -0.2648  0.9867
15012TIP3   OH266450   1.007   2.483  16.398 -0.0665  0.7472 -0.2892
15012TIP3    H166451   1.066   2.540  16.449  0.2501 -1.4135  1.9101
15012TIP3    H266452   1.066   2.426  16.349 -0.3548  0.0773  0.1460
15013TIP3   OH266453   1.853   2.871   5.483  0.4135  0.0900 -0.2796
15013TIP3    H166454   1.793   2.798   5.498  1.3285 -0.6325 -0.0748
15013TIP3    H266455   1.798   2.949   5.492 -0.4154 -0.5437  0.3163
15014TIP3   OH266456   6.086   5.011   5.574  0.2845 -0.0605  0.1958
15014TIP3    H166457   6.114   4.924   5.546  2.2027  0.5311  0.1079
15014TIP3    H266458   6.068   5.058   5.493  1.9691  0.4406  0.0790
15015TIP3   OH266459   0.726   1.211  12.161  0.1627  0.5847  0.8007
15015TIP3    H166460   0.658   1.243  12.102  0.3270 -0.0459  0.2585
15015TIP3    H266461   0.697   1.237  12.248 -0.3180  1.1136  0.4845
15016TIP3   OH266462   2.004   3.741   2.831  0.6844 -0.1597  0.8407
15016TIP3    H166463   1.975   3.669   2.774  2.1310 -0.8531  0.9223
15016TIP3    H266464   2.087   3.710   2.868  0.1308  0.5492  2.8162
15017TIP3   OH266465   3.240   2.597  14.904  0.2256  0.4365 -0.1567
15017TIP3    H166466   3.222   2.503  14.900  2.0735  0.1006 -2.0821
15017TIP3    H266467   3.286   2.609  14.988  0.5022 -0.4862 -0.1679
15018TIP3   OH266468   6.043   1.897   3.521  0.5964  0.4569  0.0303
15018TIP3    H166469   5.988   1.845   3.463 -0.5883  2.1427 -0.4068
15018TIP3    H266470   6.003   1.888   3.607  0.6998  0.2417  0.0571
15019TIP3   OH266471   2.042   0.965  14.879  0.6876 -0.3727  0.3853
15019TIP3    H166472   2.102   0.891  14.886 -0.9088 -1.6348  1.2213
15019TIP3    H266473   1.966   0.940  14.930 -0.8333  0.9206 -1.1117
15020TIP3   OH266474   1.498   6.329  16.292  0.2241 -0.8196  0.3080
15020TIP3    H166475   1.457   6.356  16.211 -0.8664 -0.8540  0.8314
15020TIP3    H266476   1.473   6.396  16.356 -0.8533 -1.9841  1.1452
15021TIP3   OH266477   2.754   5.001   0.713  0.4078  0.3662  0.5134
15021TIP3    H166478   2.837   4.953   0.710  0.3706  0.3353 -0.1498
15021TIP3    H266479   2.776   5.084   0.754  1.1373  1.0512 -1.1566
15022TIP3   OH266480   3.344   4.110  13.433  0.2496  0.4643 -0.5133
15022TIP3    H166481   3.249   4.117  13.444  0.0559  1.8583 -2.5271
15022TIP3    H266482   3.360   4.016  13.426 -0.9079  0.1784  0.2759
15023TIP3   OH266483   2.067   4.819  16.613  0.0241  0.1577  0.1741
15023TIP3    H166484   2.111   4.757  16.671  1.9650 -0.5960 -1.9486
15023TIP3    H266485   2.136   4.847  16.552 -1.9287  0.7108 -1.9032
15024TIP3   OH266486   1.657   3.884  13.835 -0.2044  0.1847  0.1625
15024TIP3    H166487   1.571   3.877  13.878 -0.6944  0.9864 -0.6599
15024TIP3    H266488   1.645   3.840  13.751  1.3087 -3.1796  1.5270
15025TIP3   OH266489   6.324   2.674  13.160  0.1493 -0.2776 -0.0769
15025TIP3    H166490   6.298   2.595  13.113  0.7872 -1.0735  0.8615
15025TIP3    H266491   6.251   2.735  13.146  0.3663 -0.4469 -2.1207
15026TIP3   OH266492   6.390   2.181  10.916 -0.1484 -0.0197 -0.2300
15026TIP3    H166493   6.361   2.090  10.912  0.4114 -0.2433  0.5746
15026TIP3    H266494   6.378   2.214  10.826  2.1582 -1.6786 -1.2502
15027TIP3   OH266495   5.932   2.453  13.731 -0.0083 -0.0003 -0.4767
15027TIP3    H166496   5.982   2.445  13.650  0.5937  0.5443 -0.1625
15027TIP3    H266497   5.876   2.530  13.717 -0.6232 -0.4846 -0.7461
15028TIP3   OH266498   5.088   0.908  12.687  1.1173  0.8951 -0.3993
15028TIP3    H166499   5.110   0.824  12.646 -0.7406 -0.8853  1.9240
15028TIP3    H266500   5.006   0.934  12.646  2.2317  2.1972 -1.8754
15029TIP3   OH266501   3.605   0.182   4.242  0.1994 -0.1694 -0.2585
15029TIP3    H166502   3.642   0.140   4.320 -0.8184 -0.2727  0.1768
15029TIP3    H266503   3.526   0.226   4.273 -0.4087 -0.4883 -1.2900
15030TIP3   OH266504   1.769   6.731  14.857 -0.1331  0.5486 -0.1253
15030TIP3    H166505   1.678   6.719  14.831  0.0444 -1.2979  0.0198
15030TIP3    H266506   1.817   6.662  14.812  1.3357  1.8911 -0.7328
15031TIP3   OH266507   6.107   1.640  15.358 -0.3628 -0.2399  0.3186
15031TIP3    H166508   6.169   1.708  15.331 -0.3909 -0.5185 -0.5007
15031TIP3    H266509   6.144   1.604  15.438  0.8019 -0.7131 -0.3985
15032TIP3   OH266510   6.374   0.461   1.474 -0.6035 -0.0808 -0.1690
15032TIP3    H166511   6.384   0.369   1.500 -0.5740 -0.8362 -2.6023
15032TIP3    H266512   6.415   0.466   1.388 -3.5687  1.3784 -1.6608
15033TIP3   OH266513   6.512   3.077  15.246  0.6538  0.6019 -0.1780
15033TIP3    H166514   6.591   3.096  15.298  0.4263  0.0865  0.3603
15033TIP3    H266515   6.545   3.061  15.158  1.0154  1.8597 -0.3044
15034TIP3   OH266516   5.411   3.698  15.701 -0.1978  0.8150 -0.4603
15034TIP3    H166517   5.449   3.742  15.625 -0.4966  0.4091 -0.8566
15034TIP3    H266518   5.481   3.642  15.734 -0.1453  0.7981 -0.5993
15035TIP3   OH266519   2.189   1.677   0.094 -0.0841 -0.4248  0.0391
15035TIP3    H166520   2.219   1.711   0.010 -0.3782  0.3383  0.2334
15035TIP3    H266521   2.108   1.726   0.112  0.3036 -0.1401  1.0584
15036TIP3   OH266522   5.412   1.328  16.700  0.4007 -0.1015 -0.1049
15036TIP3    H166523   5.473   1.264  16.737 -1.9523 -2.4220  0.0149
15036TIP3    H266524   5.372   1.370  16.777  1.0549  0.6889 -0.1783
15037TIP3   OH266525   5.444   4.131  13.901 -0.2621  0.5880 -0.1738
15037TIP3    H166526   5.402   4.048  13.878  0.3436  0.5191 -1.1106
15037TIP3    H266527   5.536   4.118  13.879 -0.2631  1.7082 -0.9338
15038TIP3   OH266528   1.500   2.284  15.145 -0.3670  0.1668 -0.4066
15038TIP3    H166529   1.502   2.302  15.051 -0.8828 -1.0487 -0.6630
15038TIP3    H266530   1.581   2.322  15.178 -0.3863  0.9879 -1.2661
15039TIP3   OH266531   3.114   0.239   5.683  0.1278 -0.3782  0.4705
15039TIP3    H166532   3.165   0.227   5.763  0.8349 -2.9215 -0.2866
15039TIP3    H266533   3.179   0.248   5.614 -0.4746  2.1860  0.1333
15040TIP3   OH266534   1.134   5.000   5.632  0.7919 -0.2216 -0.1451
15040TIP3    H166535   1.091   4.968   5.553  1.2190  1.2079 -0.9764
15040TIP3    H266536   1.226   4.977   5.620  0.6568 -1.2681  0.6161
15041TIP3   OH266537   2.212   5.993  16.536 -0.2484 -0.2440  0.5082
15041TIP3    H166538   2.161   5.921  16.573  1.3812 -1.2112  1.0108
15041TIP3    H266539   2.241   5.959  16.451 -0.8153  0.4691  0.0264
15042TIP3   OH266540   5.912   6.352   1.468  0.2356  0.1120  0.5944
15042TIP3    H166541   5.891   6.265   1.502 -0.4187  0.9563  2.5252
15042TIP3    H266542   5.828   6.387   1.438  0.1762  0.7011  1.4154
15043TIP3   OH266543   3.883   1.067   2.190 -0.1496 -0.2816  0.5055
15043TIP3    H166544   3.811   1.096   2.246  2.0218  0.6116  3.0591
15043TIP3    H266545   3.884   1.130   2.118 -1.1392  0.4945  1.1379
15044TIP3   OH266546   2.501   1.473  11.251 -0.0732  0.3760 -0.2547
15044TIP3    H166547   2.555   1.445  11.177  0.7284 -0.7701  0.7306
15044TIP3    H266548   2.423   1.418  11.246 -0.9524  1.6475 -1.3511
15045TIP3   OH266549   1.303   2.219   3.855  0.4788  0.3419 -0.1780
15045TIP3    H166550   1.321   2.234   3.948  0.8145  0.7185 -0.2996
15045TIP3    H266551   1.216   2.179   3.853 -0.3347  2.0060  0.1928
15046TIP3   OH266552   1.057   1.605   3.138  0.0445 -0.0112  0.1327
15046TIP3    H166553   1.090   1.539   3.200  2.7793 -1.6839 -2.7688
15046TIP3    H266554   1.127   1.670   3.133 -1.8399  2.3254  1.5487
15047TIP3   OH266555   5.496   0.606  15.095 -0.8498  0.0498 -0.0854
15047TIP3    H166556   5.429   0.674  15.088  0.3698  1.2899 -0.0850
15047TIP3    H266557   5.544   0.627  15.176  0.0211 -0.3451 -0.4819
15048TIP3   OH266558   3.947   5.830  11.257  0.5536 -0.1480 -0.5347
15048TIP3    H166559   3.917   5.753  11.209  0.3079 -0.3037 -0.1353
15048TIP3    H266560   3.880   5.843  11.325  0.8678  0.1013 -0.2732
15049TIP3   OH266561   4.091   5.863   5.499  0.2358  0.1215 -0.4755
15049TIP3    H166562   4.006   5.882   5.539  1.2339  0.5042  1.5487
15049TIP3    H266563   4.099   5.767   5.504  1.0324  0.2642  1.7926
15050TIP3   OH266564   1.395   5.386  17.014  0.3037 -0.4641 -0.5090
15050TIP3    H166565   1.482   5.405  16.979  0.2570  1.2586  0.2267
15050TIP3    H266566   1.335   5.412  16.945  0.3053  0.2801 -0.2300
15051TIP3   OH266567   5.549   6.057  14.038 -0.2939 -0.4852 -0.7658
15051TIP3    H166568   5.477   6.023  13.985 -1.1854  0.1414  0.0146
15051TIP3    H266569   5.527   6.149  14.051 -0.5166 -0.7918  1.3416
15052TIP3   OH266570   3.434   6.132  14.204  0.4745 -0.1733  0.4501
15052TIP3    H166571   3.488   6.170  14.273  0.9973  0.9693 -0.5609
15052TIP3    H266572   3.345   6.154  14.229  0.6149 -0.2485  1.0402
15053TIP3   OH266573   5.088   0.432   6.879  0.0419  0.2069  0.6411
15053TIP3    H166574   5.176   0.451   6.910  0.0504  1.3719 -0.0238
15053TIP3    H266575   5.099   0.416   6.785 -0.5423  1.1837  0.3936
15054TIP3   OH266576   6.117   5.666  17.010 -0.0532  0.1245  0.3334
15054TIP3    H166577   6.099   5.589  16.956  0.5282  0.3140 -0.1350
15054TIP3    H266578   6.149   5.732  16.949 -1.0073  0.9107  0.6643
15055TIP3   OH266579   1.481   5.768  12.506 -0.5730 -0.0446  0.5306
15055TIP3    H166580   1.412   5.718  12.463 -1.3093 -0.1255  1.7926
15055TIP3    H266581   1.534   5.802  12.433 -2.0509  0.2138 -0.4646
15056TIP3   OH266582   1.189   2.477  14.450  0.0721 -0.0773 -0.9174
15056TIP3    H166583   1.217   2.387  14.433  0.0643 -0.0757 -0.9396
15056TIP3    H266584   1.181   2.482  14.545  0.0146 -0.1175 -0.9198
15057TIP3   OH266585   1.043   6.327   1.909  0.8324  0.5999  0.0898
15057TIP3    H166586   1.045   6.281   1.825 -0.3462 -0.1945  0.4819
15057TIP3    H266587   1.132   6.363   1.918  0.8204  1.2230 -1.7647
15058TIP3   OH266588   2.326   5.451   2.321 -0.0241  0.4137  0.4188
15058TIP3    H166589   2.389   5.505   2.275  1.8902 -1.0091  1.2638
15058TIP3    H266590   2.273   5.411   2.252  1.1917  0.2071 -0.4180
15059TIP3   OH266591   5.853   1.249  11.410  0.5229  0.0961 -0.2359
15059TIP3    H166592   5.923   1.190  11.438  0.3171  0.3622  0.8875
15059TIP3    H266593   5.897   1.330  11.387  0.6220  0.1203  0.0416
15060TIP3   OH266594   4.069   4.478   1.899 -0.1903 -0.5275 -0.5610
15060TIP3    H166595   4.016   4.420   1.954  1.3294 -0.3107  1.2705
15060TIP3    H266596   4.130   4.420   1.855 -0.0539 -0.5258 -0.3777
15061TIP3   OH266597   1.645   5.311   4.929  0.2874 -0.4962 -0.7709
15061TIP3    H166598   1.657   5.394   4.884  1.3676 -0.3693 -0.2731
15061TIP3    H266599   1.586   5.331   5.002 -0.4531 -0.4411 -1.3718
15062TIP3   OH266600   3.898   2.702   4.891  0.3174 -0.5089  0.1291
15062TIP3    H166601   3.910   2.725   4.983  2.6071 -0.8301 -0.0472
15062TIP3    H266602   3.821   2.645   4.891 -0.5353  0.5692  1.6348
15063TIP3   OH266603   5.064   4.027  13.011 -0.1724  0.7182 -0.2441
15063TIP3    H166604   5.109   3.953  13.051  0.5615 -0.0142 -2.2646
15063TIP3    H266605   5.002   3.986  12.950  1.6470  1.6582 -2.9057
15064TIP3   OH266606   4.015   5.065   3.919 -0.3277  0.3058  0.2271
15064TIP3    H166607   3.978   5.062   4.007 -1.5004  0.1633 -0.2489
15064TIP3    H266608   3.982   4.986   3.876  1.4676 -0.4156  0.1121
15065TIP3   OH266609   4.151   5.522   4.536 -0.3175 -0.1160  0.1252
15065TIP3    H166610   4.181   5.493   4.622 -0.5005  0.9262  0.5601
15065TIP3    H266611   4.229   5.520   4.481 -0.6119 -2.9473 -0.3372
15066TIP3   OH266612   0.787   5.298  13.269  0.2330  0.4367 -0.6614
15066TIP3    H166613   0.800   5.381  13.315 -0.4317  0.0786  0.2070
15066TIP3    H266614   0.718   5.254  13.319 -2.4312  1.1209 -3.4528
15067TIP3   OH266615   3.161   5.947   3.470 -0.0025 -0.2256  0.1977
15067TIP3    H166616   3.110   5.870   3.445 -0.8641 -0.2252  1.8402
15067TIP3    H266617   3.248   5.931   3.432 -0.6135 -1.2261 -0.8494
15068TIP3   OH266618   0.792   2.983   2.089 -0.0770 -0.6776  0.1551
15068TIP3    H166619   0.749   3.068   2.101 -1.9811 -1.5338 -0.1517
15068TIP3    H266620   0.818   2.982   1.997  0.7204 -0.1053  0.3679
15069TIP3   OH266621   4.475   4.152  16.795 -0.4022 -0.2336  0.3096
15069TIP3    H166622   4.525   4.190  16.868 -0.5314  0.4384  0.0562
15069TIP3    H266623   4.397   4.207  16.789 -1.2478 -1.3514  0.7856
15070TIP3   OH266624   0.862   5.475  14.177 -0.3829  0.4154 -0.1881
15070TIP3    H166625   0.803   5.441  14.109  1.0868  2.0369 -2.4076
15070TIP3    H266626   0.892   5.397  14.223 -2.3329 -0.6482 -0.6048
15071TIP3   OH266627   2.082   4.396   0.154 -0.3292 -0.6359 -0.1942
15071TIP3    H166628   2.058   4.455   0.226  1.0127 -0.6117  0.2727
15071TIP3    H266629   2.012   4.406   0.090 -1.3205 -0.2893  0.8916
15072TIP3   OH266630   0.053   0.578  10.951  0.2015 -0.0699 -0.1770
15072TIP3    H166631   0.023   0.508  10.893  1.1725 -0.7561  0.1275
15072TIP3    H266632   0.133   0.610  10.910  0.0657  0.4824 -0.0162
15073TIP3   OH266633   0.144   5.981   3.195  0.2712 -0.2966  0.5480
15073TIP3    H166634   0.178   5.905   3.242  0.7345 -1.0862 -1.0021
15073TIP3    H266635   0.198   6.054   3.225  1.5391 -1.0548  0.1798
15074TIP3   OH266636   4.790   3.540   1.690 -0.3774 -0.7524  0.0888
15074TIP3    H166637   4.882   3.560   1.674 -0.6263 -0.2312 -0.8008
15074TIP3    H266638   4.784   3.445   1.680 -0.2027 -0.6267 -1.4438
15075TIP3   OH266639   0.409   1.535  13.245  0.8409 -0.6827  0.2499
15075TIP3    H166640   0.449   1.593  13.181  0.5244  1.8411  2.1839
15075TIP3    H266641   0.317   1.529  13.217  0.8496 -0.1542  0.0981
15076TIP3   OH266642   0.160   3.490  13.444 -0.0724 -0.3701 -0.0848
15076TIP3    H166643   0.130   3.413  13.395  2.5098 -1.3579 -0.2836
15076TIP3    H266644   0.232   3.458  13.497  1.9100  2.1244 -1.0681
15077TIP3   OH266645   2.186   1.608  11.660 -0.0924 -0.3870  0.3297
15077TIP3    H166646   2.266   1.605  11.713  0.8698 -0.7179 -1.0776
15077TIP3    H266647   2.181   1.520  11.621 -0.5473 -0.0254 -0.4401
15078TIP3   OH266648   6.758   5.087  13.221  0.8594  0.3183 -0.2847
15078TIP3    H166649   6.725   5.167  13.182 -0.1564  0.1359  0.1659
15078TIP3    H266650   6.853   5.093  13.213  0.7255  0.7237 -1.8792
15079TIP3   OH266651   6.521   4.173   2.686 -0.0252 -0.3957 -0.4395
15079TIP3    H166652   6.481   4.093   2.653 -1.5911 -0.5079  1.5513
15079TIP3    H266653   6.463   4.243   2.656 -0.0272 -0.2527 -0.1012
15080TIP3   OH266654   5.465   3.259  14.776 -0.3023  0.1102  0.6706
15080TIP3    H166655   5.391   3.280  14.719 -2.5061 -2.7019  2.1800
15080TIP3    H266656   5.481   3.165  14.760  0.3835 -0.2530  3.1073
15081TIP3   OH266657   0.328   6.370  14.040 -0.5839 -0.0889  0.5329
15081TIP3    H166658   0.395   6.346  13.977 -1.4417  1.2293 -0.9760
15081TIP3    H266659   0.371   6.431  14.100  0.0621 -0.8139  0.8191
15082TIP3   OH266660   1.485   4.573  12.753  0.3032 -0.0583 -0.2229
15082TIP3    H166661   1.503   4.541  12.842 -1.4749 -1.8722 -0.4600
15082TIP3    H266662   1.432   4.651  12.766  0.7038  0.1371  0.3006
15083TIP3   OH266663   4.235   2.011   2.439  0.3245  0.2893  0.1548
15083TIP3    H166664   4.169   1.953   2.476  0.1145  0.6700  0.3851
15083TIP3    H266665   4.214   2.015   2.346  0.4767 -0.1789  0.1002
15084TIP3   OH266666   4.961   4.214   2.960 -0.3642  0.1070 -0.1999
15084TIP3    H166667   4.971   4.182   3.050  0.0266 -3.0709 -1.2544
15084TIP3    H266668   5.047   4.246   2.936 -0.3698  0.5961  0.3891
15085TIP3   OH266669   1.015   4.007   4.225 -0.1397  0.4621 -0.4946
15085TIP3    H166670   1.076   3.968   4.288 -0.6685  0.0806 -0.2096
15085TIP3    H266671   1.071   4.042   4.156  0.4791  1.1808  0.3437
15086TIP3   OH266672   1.296   4.345   0.630 -0.2400  0.2519 -0.2058
15086TIP3    H166673   1.310   4.429   0.588 -0.7100  1.1333  1.3148
15086TIP3    H266674   1.382   4.322   0.667  0.1747 -0.5264 -1.5780
15087TIP3   OH266675   1.807   4.187   4.248  0.7250  0.3247 -0.2840
15087TIP3    H166676   1.836   4.168   4.159  0.0739  0.8013 -0.6073
15087TIP3    H266677   1.882   4.164   4.303  0.9189 -0.5619 -0.8945
15088TIP3   OH266678   2.121   6.394  14.640  0.1067 -0.0035  0.2122
15088TIP3    H166679   2.111   6.388  14.735  0.6835  0.4393  0.3039
15088TIP3    H266680   2.138   6.304  14.612  0.1566 -0.1032  0.5562
15089TIP3   OH266681   0.259   5.396  15.606 -0.0122 -0.7377 -0.1044
15089TIP3    H166682   0.349   5.386  15.573  1.5607  0.4744  3.3779
15089TIP3    H266683   0.221   5.463  15.550  1.4551 -0.8131 -1.2639
15090TIP3   OH266684   2.100   6.061   4.585 -0.3211 -0.0118  0.5622
15090TIP3    H166685   2.054   6.063   4.501  1.2524  4.0270 -0.4539
15090TIP3    H266686   2.040   6.104   4.647  0.5531  2.1507  0.0286
15091TIP3   OH266687   3.565   2.661  13.518  0.0597  0.0166  0.1402
15091TIP3    H166688   3.594   2.710  13.595  0.5586 -0.6293  0.3635
15091TIP3    H266689   3.556   2.571  13.548  1.2564 -0.4323 -0.7998
15092TIP3   OH266690   2.193   2.911  11.278 -0.0383  0.0123  0.5882
15092TIP3    H166691   2.217   3.003  11.270 -0.7571  0.0692 -1.9265
15092TIP3    H266692   2.205   2.890  11.370 -1.7055  3.1508  1.6637
15093TIP3   OH266693   5.719   1.255  16.130  0.0601  0.2594  0.2604
15093TIP3    H166694   5.733   1.172  16.085 -0.4680 -1.2367  2.6597
15093TIP3    H266695   5.802   1.271  16.177  0.0508  0.9367  0.0515
15094TIP3   OH266696   5.717   2.692   4.867  0.1881 -0.2498 -0.1825
15094TIP3    H166697   5.644   2.753   4.862  0.6831  0.2860 -1.0446
15094TIP3    H266698   5.749   2.700   4.958 -1.0050 -0.7308  0.2982
15095TIP3   OH266699   0.785   0.344  14.398 -0.1533  0.0516 -0.3796
15095TIP3    H166700   0.783   0.249  14.415  0.2096  0.3246  1.2706
15095TIP3    H266701   0.861   0.376  14.446 -3.0013  1.9259  3.4427
15096TIP3   OH266702   5.616   0.713   1.522 -0.0293  0.7295  0.5758
15096TIP3    H166703   5.563   0.788   1.548 -3.2239 -1.1140 -0.0536
15096TIP3    H266704   5.618   0.717   1.426 -0.9077 -0.3279  0.4872
15097TIP3   OH266705   4.877   1.814   3.422 -0.7861 -0.1895 -0.0806
15097TIP3    H166706   4.844   1.754   3.356 -0.9929 -0.4962  0.3005
15097TIP3    H266707   4.954   1.854   3.382 -1.1321 -0.0887 -0.6537
15098TIP3   OH266708   2.654   0.400  17.136  0.3027  0.2420 -0.1093
15098TIP3    H166709   2.614   0.472  17.089 -0.6622 -0.3953 -0.3039
15098TIP3    H266710   2.746   0.402  17.111 -0.0714  0.2928 -1.5375
15099TIP3   OH266711   1.367   6.020  10.864 -0.2320 -0.0507 -0.3198
15099TIP3    H166712   1.369   5.924  10.858  3.8377 -0.0991 -1.2509
15099TIP3    H266713   1.410   6.039  10.948  0.2808  0.9351 -0.7900
15100TIP3   OH266714   6.131   1.708   0.712 -0.0440  0.3402 -0.4793
15100TIP3    H166715   6.220   1.739   0.728 -0.4998  0.5360  2.0386
15100TIP3    H266716   6.113   1.647   0.784 -1.9908  0.4380 -0.8226
15101TIP3   OH266717   5.124   1.630   4.410 -0.2979 -0.3182  0.1807
15101TIP3    H166718   5.135   1.685   4.332 -2.1610  0.3091  0.3084
15101TIP3    H266719   5.043   1.662   4.450  1.5752  0.7610  3.5242
15102TIP3   OH266720   6.691   6.730   2.132  1.1429  0.3602  0.0732
15102TIP3    H166721   6.619   6.691   2.183  2.5426 -0.8035  1.2492
15102TIP3    H266722   6.753   6.761   2.197  2.8488 -0.8898 -0.8716
15103TIP3   OH266723   3.073   4.118  17.130 -0.0203 -0.4916  0.4583
15103TIP3    H166724   3.011   4.095  17.061 -1.7026 -0.7354  1.9902
15103TIP3    H266725   3.139   4.172  17.086 -0.7188 -1.1113 -1.4359
15104TIP3   OH266726   4.672   3.177   5.895 -0.2187  0.0148 -0.1039
15104TIP3    H166727   4.708   3.264   5.912  1.0135 -0.5762  0.4777
15104TIP3    H266728   4.624   3.155   5.975  0.7343 -0.4244  0.3696
15105TIP3   OH266729   3.115   5.693  15.815 -0.2598 -0.0330 -0.5234
15105TIP3    H166730   3.123   5.599  15.802  1.7610 -0.2570  1.5889
15105TIP3    H266731   3.090   5.702  15.907  3.4060  1.4393  0.5019
15106TIP3   OH266732   1.193   5.230  12.333 -0.7516 -0.0482  0.0001
15106TIP3    H166733   1.189   5.148  12.381  1.0078 -0.4930 -0.5366
15106TIP3    H266734   1.283   5.260  12.344 -0.9156  0.9594 -1.1821
15107TIP3   OH266735   3.670   2.028  11.389 -0.8266  0.4640 -0.3617
15107TIP3    H166736   3.678   1.939  11.354  0.7773  0.7358 -0.7493
15107TIP3    H266737   3.739   2.033  11.456 -2.3050  0.7316  1.2313
15108TIP3   OH266738   1.927   1.581   1.333  0.0743 -0.5714 -0.1524
15108TIP3    H166739   2.001   1.642   1.335  0.1432 -0.5656 -1.6184
15108TIP3    H266740   1.864   1.617   1.395  0.4887  0.5234 -0.3493
15109TIP3   OH266741   1.048   4.476   5.817  0.0256  0.3220 -0.1504
15109TIP3    H166742   1.014   4.394   5.781 -1.1001  1.2113 -1.1719
15109TIP3    H266743   0.975   4.515   5.865  0.5162  0.8045  0.2332
15110TIP3   OH266744   3.223   2.729   3.938 -0.8411  0.3305 -0.3009
15110TIP3    H166745   3.143   2.748   3.987 -0.4880  1.5550 -0.1916
15110TIP3    H266746   3.291   2.779   3.981  0.0573 -0.8656 -0.2734
15111TIP3   OH266747   5.992   6.228   2.577  0.3016 -0.0771 -0.2142
15111TIP3    H166748   5.963   6.153   2.628  1.4574 -1.2141 -1.1622
15111TIP3    H266749   6.078   6.250   2.613 -0.5272  1.6216  0.8671
15112TIP3   OH266750   2.103   2.131   0.756 -0.2154  0.4359  0.8381
15112TIP3    H166751   2.104   2.226   0.755 -0.3763  0.4294 -0.5527
15112TIP3    H266752   2.022   2.108   0.801 -0.5541  0.9483  0.4823
15113TIP3   OH266753   6.566   0.841   4.385 -0.3468 -0.2139 -0.1161
15113TIP3    H166754   6.634   0.903   4.361 -0.2242 -0.3622 -0.1483
15113TIP3    H266755   6.570   0.836   4.481  0.6609 -1.3337 -0.2059
15114TIP3   OH266756   4.790   3.848  14.940  0.0609  0.0221 -0.1705
15114TIP3    H166757   4.870   3.885  14.976 -1.1411 -1.4673  4.8340
15114TIP3    H266758   4.813   3.759  14.914  0.4742  0.4007 -1.1577
15115TIP3   OH266759   2.308   1.313   1.357  0.5048 -0.0527 -0.1156
15115TIP3    H166760   2.251   1.352   1.424  0.5355 -0.3564  0.0831
15115TIP3    H266761   2.281   1.222   1.352 -1.2876  0.4906 -2.3177
15116TIP3   OH266762   5.801   0.362   4.738 -0.3038  0.5059 -0.2191
15116TIP3    H166763   5.715   0.327   4.715  0.1737 -1.0483  0.2589
15116TIP3    H266764   5.861   0.319   4.678  0.4166 -0.2920  1.0298
15117TIP3   OH266765   4.073   2.377  12.720  0.8262  0.5624  0.6306
15117TIP3    H166766   4.003   2.394  12.657  1.6076 -0.0596 -0.4337
15117TIP3    H266767   4.134   2.320  12.673  0.7564 -1.0508  2.4185
15118TIP3   OH266768   1.828   5.244   2.361 -0.4356  0.4232 -0.1604
15118TIP3    H166769   1.818   5.176   2.429  1.6803  0.3792  0.1578
15118TIP3    H266770   1.838   5.195   2.280 -0.5301  0.4118 -0.1659
15119TIP3   OH266771   2.202   1.693  12.588 -0.3933 -0.5963 -0.3954
15119TIP3    H166772   2.293   1.693  12.560 -0.7088 -0.8139 -1.4827
15119TIP3    H266773   2.186   1.603  12.617 -0.1568 -0.4517  0.2067
15120TIP3   OH266774   0.208   0.977   3.616  0.4832  0.1785 -0.2190
15120TIP3    H166775   0.293   1.010   3.644  0.6495  0.1228 -0.6501
15120TIP3    H266776   0.216   0.882   3.621  0.4432  0.1731 -0.2487
15121TIP3   OH266777   1.615   0.822   0.974  0.4927  0.3511  0.4215
15121TIP3    H166778   1.709   0.838   0.964  0.8275 -0.7993  1.4989
15121TIP3    H266779   1.583   0.815   0.884  1.6038 -0.0814  0.0337
15122TIP3   OH266780   1.387   3.936   4.620 -0.0323 -0.0164 -0.2641
15122TIP3    H166781   1.340   4.018   4.605 -2.2594 -1.1287  0.1531
15122TIP3    H266782   1.353   3.877   4.553  1.0940 -0.7856 -0.1890
15123TIP3   OH266783   1.502   5.140   0.037 -0.0457 -0.3219  0.2601
15123TIP3    H166784   1.576   5.201   0.041  0.2836 -0.7617  1.5724
15123TIP3    H266785   1.532   5.063   0.085 -0.8097 -1.1349 -0.5238
15124TIP3   OH266786   1.786   0.008  15.127  0.4588 -0.0623  0.9245
15124TIP3    H166787   1.772   0.099  15.152 -1.1674 -0.3967  1.3524
15124TIP3    H266788   1.770   0.006  15.032  2.1232  0.3669  0.6019
15125TIP3   OH266789   4.073   5.078   3.273 -0.1162  0.5520  0.0004
15125TIP3    H166790   3.988   5.062   3.314 -1.0366  0.2124 -1.9194
15125TIP3    H266791   4.085   5.173   3.279  0.4825  0.3869  2.2749
15126TIP3   OH266792   3.490   0.228  13.675  0.0239 -0.3551  0.1852
15126TIP3    H166793   3.555   0.161  13.655 -0.2528  0.2108 -3.2489
15126TIP3    H266794   3.407   0.181  13.675  0.1858 -0.7512  2.6767
15127TIP3   OH266795   1.731   3.581  13.921  0.1176 -0.4205 -0.0279
15127TIP3    H166796   1.637   3.596  13.918  0.1353 -0.1763  0.5608
15127TIP3    H266797   1.761   3.631  13.996  0.9607  0.8466 -1.1591
15128TIP3   OH266798   5.636   5.895  13.368 -0.4865 -0.0480  0.0830
15128TIP3    H166799   5.624   5.915  13.461 -0.1747  0.3402  0.0436
15128TIP3    H266800   5.604   5.805  13.358  0.5909 -0.5265  0.8015
15129TIP3   OH266801   2.155   5.747  12.723 -0.4725 -0.0300 -0.8696
15129TIP3    H166802   2.126   5.690  12.794 -0.6435  1.1716  0.0469
15129TIP3    H266803   2.120   5.706  12.644 -1.3623 -0.6974 -0.1487
15130TIP3   OH266804   1.871   5.880   1.961 -0.2212 -0.4109 -0.0883
15130TIP3    H166805   1.878   5.793   2.001  1.4255  0.7236  2.2881
15130TIP3    H266806   1.924   5.937   2.017 -0.0282  1.8667 -2.4094
15131TIP3   OH266807   0.697   2.315   5.315 -0.1090 -0.2330 -0.1462
15131TIP3    H166808   0.737   2.296   5.400 -1.1339  0.6614  0.5568
15131TIP3    H266809   0.703   2.410   5.306 -1.8094 -0.0982 -0.1382
15132TIP3   OH266810   5.275   5.965   5.280  0.4117  0.2846 -0.4180
15132TIP3    H166811   5.297   6.014   5.201  0.1146 -0.5159 -1.0102
15132TIP3    H266812   5.295   5.874   5.258  0.7687  0.1045  0.5922
15133TIP3   OH266813   0.955   1.626  10.967  0.8655 -0.4785 -0.7777
15133TIP3    H166814   0.976   1.649  10.877 -1.4137  0.5383 -1.1295
15133TIP3    H266815   1.026   1.664  11.019  1.7418 -0.2999 -2.0712
15134TIP3   OH266816   0.772   3.218   0.853 -0.3047  0.2787  0.0238
15134TIP3    H166817   0.832   3.248   0.921 -3.6082 -0.3678  3.5998
15134TIP3    H266818   0.792   3.124   0.844  0.7909  0.5651 -0.6670
15135TIP3   OH266819   3.614   0.300   1.911 -0.3433 -0.1522 -0.2637
15135TIP3    H166820   3.564   0.246   1.851  2.2395 -1.7044 -1.1896
15135TIP3    H266821   3.644   0.374   1.858  0.3021 -0.4899 -0.3811
15136TIP3   OH266822   5.662   5.547  12.624  0.0976 -0.0910  0.0215
15136TIP3    H166823   5.733   5.566  12.562  0.1595  0.2587  0.2009
15136TIP3    H266824   5.707   5.513  12.701  0.2786  2.2640  1.0241
15137TIP3   OH266825   2.758   0.478  14.135  0.1042 -0.4755 -0.1717
15137TIP3    H166826   2.721   0.399  14.174 -0.1147 -1.4548 -2.2332
15137TIP3    H266827   2.734   0.474  14.042  2.5471  0.5141 -0.9545
15138TIP3   OH266828   4.152   1.768   3.878  0.6958  0.0486  0.4236
15138TIP3    H166829   4.149   1.856   3.840  1.7734  0.3826  1.0713
15138TIP3    H266830   4.245   1.749   3.887  0.5780 -2.2607 -2.1140
15139TIP3   OH266831   4.719   1.219   3.820  0.1618  0.0621  0.0483
15139TIP3    H166832   4.681   1.278   3.755 -1.7221 -0.1877  0.8578
15139TIP3    H266833   4.774   1.275   3.874 -0.3347  0.7879 -0.1780
15140TIP3   OH266834   2.711   1.936   5.395  0.2464  0.1930  0.3096
15140TIP3    H166835   2.756   1.857   5.426  0.0887 -0.1068 -0.2169
15140TIP3    H266836   2.782   1.998   5.376  0.4254 -0.1541 -0.1803
15141TIP3   OH266837   5.772   4.539  11.502  0.6368  0.4190 -0.0365
15141TIP3    H166838   5.827   4.559  11.578  0.1184 -0.4693  0.5848
15141TIP3    H266839   5.807   4.594  11.432  1.8100  0.4430  0.5547
15142TIP3   OH266840   2.283   2.075  10.597  0.1783 -0.2694  0.2174
15142TIP3    H166841   2.329   1.992  10.583  0.7197 -0.2905  1.8439
15142TIP3    H266842   2.350   2.142  10.585  0.2357 -0.2002  0.8697
15143TIP3   OH266843   5.247   6.743  12.869  0.3056 -0.4906  0.0641
15143TIP3    H166844   5.230   6.651  12.849  0.9790 -0.7942  0.8321
15143TIP3    H266845   5.248   6.747  12.964 -0.5848  0.4876  0.0542
15144TIP3   OH266846   4.664   2.108   3.311 -0.2469 -0.1306  0.1723
15144TIP3    H166847   4.670   2.058   3.392  0.5501 -0.3354 -0.0020
15144TIP3    H266848   4.718   2.185   3.326  0.1702 -0.3287 -0.2686
15145TIP3   OH266849   2.051   1.576  14.184 -0.6811  0.1372  0.3627
15145TIP3    H166850   2.002   1.658  14.177 -0.3413  0.2077 -1.8606
15145TIP3    H266851   2.142   1.600  14.169 -0.2506 -0.3417  2.0538
15146TIP3   OH266852   0.343   4.814   3.562 -0.3307 -0.0002 -0.5700
15146TIP3    H166853   0.285   4.761   3.616 -0.6241 -1.6717 -2.4140
15146TIP3    H266854   0.408   4.752   3.529  1.6081  1.5249  0.1423
15147TIP3   OH266855   2.064   2.675  12.303  0.3225  0.2109 -0.5565
15147TIP3    H166856   2.001   2.723  12.248  0.2190  1.3681  0.5321
15147TIP3    H266857   2.149   2.713  12.280  0.2781  0.6985  0.0844
15148TIP3   OH266858   3.949   2.200   4.418 -0.1520 -0.0072  0.5584
15148TIP3    H166859   4.005   2.124   4.406  0.1837  0.2672  0.3691
15148TIP3    H266860   3.860   2.167   4.407  0.0527 -0.0619 -1.1677
15149TIP3   OH266861   4.499   3.009  10.789 -0.1780 -0.1508  0.5908
15149TIP3    H166862   4.579   2.998  10.738  0.9568  2.1647  1.7194
15149TIP3    H266863   4.428   3.001  10.724  1.1885  2.5606 -1.4408
15150TIP3   OH266864   4.701   6.175   1.013 -0.1948  0.4608 -0.3781
15150TIP3    H166865   4.658   6.260   1.020  1.3000  1.3282 -1.2017
15150TIP3    H266866   4.760   6.184   0.938 -0.3106 -1.4510 -0.7490
15151TIP3   OH266867   5.314   5.942  11.989 -1.0391 -0.3381  0.1577
15151TIP3    H166868   5.394   5.892  11.975  0.8280  2.7617 -1.1517
15151TIP3    H266869   5.271   5.898  12.063  1.3480 -2.6448  0.3228
15152TIP3   OH266870   6.774   0.999  13.248  0.5626  0.5624  0.3037
15152TIP3    H166871   6.773   0.985  13.343  0.6698  1.7123  0.4811
15152TIP3    H266872   6.863   1.028  13.229  0.2440  1.3760  0.0145
15153TIP3   OH266873   2.987   1.900   0.546  0.0065  0.1616  0.0606
15153TIP3    H166874   3.032   1.828   0.502 -0.2842  0.4021 -0.6385
15153TIP3    H266875   3.027   1.904   0.633  1.7855  0.7879 -0.7371
15154TIP3   OH266876   1.097   3.013   2.090 -0.2697 -0.5704  0.0154
15154TIP3    H166877   1.188   2.988   2.104  1.0786  2.1364 -2.6975
15154TIP3    H266878   1.059   2.942   2.038  1.4300 -0.1917 -1.8631
15155TIP3   OH266879   2.267   1.326  11.985  0.3957  0.3851 -0.0876
15155TIP3    H166880   2.330   1.256  11.966  0.9969  0.3133  1.9317
15155TIP3    H266881   2.291   1.396  11.924 -0.8919 -1.4612 -2.8791
15156TIP3   OH266882   1.170   0.530   0.990 -0.4637  0.1939  0.5142
15156TIP3    H166883   1.199   0.596   1.053  1.5447 -0.9194  0.8339
15156TIP3    H266884   1.124   0.465   1.042  0.4708 -0.3042  0.7436
15157TIP3   OH266885   5.983   4.149   3.160 -0.2234 -0.2668 -0.7149
15157TIP3    H166886   5.969   4.163   3.253 -0.6258 -0.3858 -0.7554
15157TIP3    H266887   5.919   4.082   3.135 -1.6143  1.2777 -1.5112
15158TIP3   OH266888   1.468   0.058  10.931  0.0511  0.8786 -0.3193
15158TIP3    H166889   1.519   0.131  10.897  1.3590  0.2242  0.1952
15158TIP3    H266890   1.394   0.099  10.976  0.3060  1.8452 -0.7607
15159TIP3   OH266891   0.200   0.304  13.605  0.5152 -0.3132  0.3417
15159TIP3    H166892   0.280   0.285  13.557 -0.4108 -1.4688 -0.8113
15159TIP3    H266893   0.185   0.227  13.659  0.6372  0.2695  1.2238
15160TIP3   OH266894   6.453   5.098   5.076  0.5137  0.2144  0.6281
15160TIP3    H166895   6.358   5.085   5.075  0.5516 -0.1923 -0.8070
15160TIP3    H266896   6.464   5.193   5.086 -0.1081  0.4721 -0.8661
15161TIP3   OH266897   5.325   1.326  11.841 -0.5677 -0.1783 -0.2845
15161TIP3    H166898   5.340   1.233  11.854  0.6531  0.0709  0.2898
15161TIP3    H266899   5.275   1.331  11.759 -2.4033 -1.4129  0.6908
15162TIP3   OH266900   1.517   4.177   0.053 -0.4817 -0.7586  0.1319
15162TIP3    H166901   1.583   4.140   0.113 -1.3244 -0.3608  1.3508
15162TIP3    H266902   1.484   4.101   0.004  1.5492 -0.8331 -1.2274
15163TIP3   OH266903   1.466   4.293  12.720  0.5042  0.1125 -0.1360
15163TIP3    H166904   1.457   4.338  12.636  0.5782 -1.3438 -0.9416
15163TIP3    H266905   1.512   4.357  12.776  0.4611  1.0979 -1.1814
15164TIP3   OH266906   5.453   1.398   4.188  0.4746 -0.2933 -0.2023
15164TIP3    H166907   5.494   1.312   4.202  2.5815  0.8209  0.9765
15164TIP3    H266908   5.373   1.394   4.240 -0.1389 -1.9479 -1.1819
15165TIP3   OH266909   5.239   3.481   6.407  0.1438 -0.8652  0.2114
15165TIP3    H166910   5.301   3.554   6.402 -0.9439  0.0091 -1.0073
15165TIP3    H266911   5.163   3.517   6.453 -0.5644 -1.0852 -0.7602
15166TIP3   OH266912   4.717   6.444   5.026 -0.0995  0.0699  0.1000
15166TIP3    H166913   4.805   6.443   4.987  0.6246  0.4189  1.6234
15166TIP3    H266914   4.732   6.425   5.119 -1.5344  1.0687  0.5720
15167TIP3   OH266915   5.716   2.061   1.865 -0.2242  0.0295  0.0638
15167TIP3    H166916   5.764   2.120   1.924 -0.3147 -0.0183  0.1875
15167TIP3    H266917   5.783   2.003   1.829 -0.3596 -0.9629  1.3190
15168TIP3   OH266918   0.824   4.081   0.694  0.2673 -0.4422  0.8115
15168TIP3    H166919   0.893   4.054   0.634 -0.0454  2.7555 -1.2357
15168TIP3    H266920   0.745   4.037   0.663  0.1749  0.9220 -1.0451
15169TIP3   OH266921   4.515   1.340  17.072 -0.2645  0.1354  0.8606
15169TIP3    H166922   4.457   1.376  17.006 -0.2887  0.9881  1.3344
15169TIP3    H266923   4.604   1.355  17.038 -0.2795  0.4667  0.9676
15170TIP3   OH266924   4.583   4.839  10.552 -0.1691 -0.4123  0.0651
15170TIP3    H166925   4.552   4.858  10.463 -0.5479 -0.6623  0.1402
15170TIP3    H266926   4.532   4.898  10.608  0.1703 -0.1539  0.1075
15171TIP3   OH266927   3.395   2.639  14.658 -0.1279 -0.1127  0.6414
15171TIP3    H166928   3.381   2.610  14.748 -1.1519  0.2422  0.6055
15171TIP3    H266929   3.459   2.710  14.666 -0.4046  0.0939  1.1259
15172TIP3   OH266930   2.998   3.139  12.026 -0.4959 -0.7128  0.2791
15172TIP3    H166931   2.991   3.219  11.975 -0.2828 -1.7592 -1.4681
15172TIP3    H266932   2.908   3.106  12.033 -0.5293 -0.5550  0.6299
15173TIP3   OH266933   5.552   1.154  16.341 -0.3745  0.2335  0.1440
15173TIP3    H166934   5.621   1.124  16.282  0.5054 -1.6784  2.0264
15173TIP3    H266935   5.599   1.203  16.409 -1.2857  1.7657 -0.2831
15174TIP3   OH266936   0.401   2.438   4.418  0.3732 -0.7821 -0.2671
15174TIP3    H166937   0.492   2.414   4.432  0.0304 -0.8921  2.1849
15174TIP3    H266938   0.381   2.500   4.488 -0.6779  1.5148 -2.4236
15175TIP3   OH266939   0.496   2.770   3.312  0.5828 -0.1874 -0.7994
15175TIP3    H166940   0.581   2.792   3.274  0.1675  0.0577 -1.5920
15175TIP3    H266941   0.506   2.680   3.343  1.3859  0.1187 -0.1442
15176TIP3   OH266942   4.579   5.477   0.056  0.8052  0.0383  0.3071
15176TIP3    H166943   4.595   5.507   0.146  0.0043  0.9405  0.1639
15176TIP3    H266944   4.544   5.554   0.012  1.3322 -0.3592 -0.8253
15177TIP3   OH266945   5.729   6.197  14.610  0.5407 -0.9835 -0.1597
15177TIP3    H166946   5.710   6.184  14.517  0.2896 -0.5859 -0.1646
15177TIP3    H266947   5.747   6.109  14.644 -1.4712 -1.4054 -0.1101
15178TIP3   OH266948   4.478   6.097   2.284 -0.7048 -0.4117  0.1477
15178TIP3    H166949   4.473   6.174   2.228 -2.4118 -0.2026  0.5270
15178TIP3    H266950   4.531   6.125   2.359 -0.6693  0.1405 -0.0817
15179TIP3   OH266951   3.085   3.456  16.942 -0.2015  0.4405  0.7770
15179TIP3    H166952   2.996   3.490  16.934 -0.5772 -0.7374 -0.4331
15179TIP3    H266953   3.077   3.380  17.000 -0.4155 -0.9794 -1.0271
15180TIP3   OH266954   1.273   5.058  14.290 -0.5095 -0.1271 -0.0261
15180TIP3    H166955   1.178   5.051  14.276 -0.3418 -0.9176 -0.8368
15180TIP3    H266956   1.306   5.102  14.212 -0.3533  1.3324  0.8386
15181TIP3   OH266957   3.700   2.787   2.613 -0.0150 -0.3233 -0.3630
15181TIP3    H166958   3.730   2.701   2.584 -0.4243 -0.5795 -0.0273
15181TIP3    H266959   3.781   2.834   2.634  0.2070 -0.6610 -0.4467
15182TIP3   OH266960   1.146   3.828   4.421  0.9734  0.5472 -0.2109
15182TIP3    H166961   1.103   3.873   4.494 -1.3920  1.0003 -1.7557
15182TIP3    H266962   1.161   3.739   4.453  0.3466  0.8409  0.9643
15183TIP3   OH266963   2.475   5.368   1.946  0.3747  0.2191 -0.0017
15183TIP3    H166964   2.552   5.383   1.891  0.3723  0.6788  0.1113
15183TIP3    H266965   2.482   5.434   2.015  1.2481 -1.3646  1.5086
15184TIP3   OH266966   3.003   1.081   1.788  0.4057  0.0563  0.0719
15184TIP3    H166967   2.997   1.008   1.726 -1.2283 -2.2428  2.6824
15184TIP3    H266968   3.088   1.120   1.771  0.9232 -1.8048 -2.1451
15185TIP3   OH266969   6.676   3.993  10.755  0.7847  0.1819 -0.2476
15185TIP3    H166970   6.591   3.999  10.710  0.3623  0.1638  0.5311
15185TIP3    H266971   6.654   4.000  10.848  1.5557 -0.6476  0.0098
15186TIP3   OH266972   0.199   2.182   3.867 -0.2288 -0.2681 -0.0927
15186TIP3    H166973   0.242   2.163   3.784  1.0757 -0.1389  0.5144
15186TIP3    H266974   0.130   2.245   3.845  0.6047  0.3679 -0.9784
15187TIP3   OH266975   1.438   4.302  15.767 -0.1339  0.8118  0.4077
15187TIP3    H166976   1.355   4.275  15.728 -0.1937  2.7945 -0.9927
15187TIP3    H266977   1.475   4.221  15.802 -1.1724 -0.7342 -1.8013
15188TIP3   OH266978   2.490   6.247  17.219 -0.7852  0.5560  0.1809
15188TIP3    H166979   2.480   6.338  17.248 -0.2318  0.6450  0.1076
15188TIP3    H266980   2.530   6.202  17.293  1.7221  1.0385 -0.7728
15189TIP3   OH266981   1.729   6.087   5.726 -0.2039 -0.5031  0.1018
15189TIP3    H166982   1.711   6.181   5.733  0.7807 -0.3629  1.1224
15189TIP3    H266983   1.691   6.061   5.642 -1.0767  0.6626  0.1091
15190TIP3   OH266984   4.381   5.984   4.114  0.1828  0.1819  0.7018
15190TIP3    H166985   4.332   6.058   4.151 -1.4870 -0.6770  0.3057
15190TIP3    H266986   4.342   5.971   4.027 -0.7826 -2.2302  1.4117
15191TIP3   OH266987   6.033   1.426  11.288 -0.3082 -0.0098 -0.1682
15191TIP3    H166988   6.101   1.404  11.225  0.0533 -0.2126  0.2850
15191TIP3    H266989   5.977   1.489  11.243  1.5986  2.1362  0.2689
15192TIP3   OH266990   0.887   2.226  15.442 -0.3068  0.0835 -0.3593
15192TIP3    H166991   0.843   2.141  15.451 -1.0927  0.0887 -3.2783
15192TIP3    H266992   0.965   2.207  15.391 -0.2019  1.0584 -0.5690
15193TIP3   OH266993   2.601   6.352  10.959  0.0691  0.6267  0.5906
15193TIP3    H166994   2.599   6.274  11.015  1.0693 -0.1956 -0.4692
15193TIP3    H266995   2.644   6.323  10.879 -1.9448  1.5784 -0.9283
15194TIP3   OH266996   2.506   0.117  10.809  0.2244 -0.3480  0.0738
15194TIP3    H166997   2.519   0.193  10.752 -1.6482  0.2134  0.3066
15194TIP3    H266998   2.550   0.140  10.891  0.9738 -0.1818 -0.3709
15195TIP3   OH266999   5.910   2.443   5.894  0.0161 -0.1449 -0.3786
15195TIP3    H167000   5.999   2.467   5.871  0.5511 -0.3088  1.3658
15195TIP3    H267001   5.903   2.460   5.988 -1.5611 -0.8169 -0.3253
15196TIP3   OH267002   4.053   5.059  10.671 -0.0898  0.4925 -0.3027
15196TIP3    H167003   4.041   5.047  10.765 -0.1600 -2.6573 -0.6100
15196TIP3    H267004   3.968   5.037  10.633 -0.2828  2.4475 -1.1353
15197TIP3   OH267005   0.145   2.865   2.801  0.1661 -0.4876  0.3004
15197TIP3    H167006   0.238   2.881   2.782 -0.2180  0.9213 -0.4442
15197TIP3    H267007   0.127   2.919   2.878 -0.7027  1.4583 -1.1978
15198TIP3   OH267008   6.055   2.649   3.225 -0.2661 -0.0390  0.3194
15198TIP3    H167009   6.009   2.723   3.185 -0.7273 -0.2299  0.4984
15198TIP3    H267010   6.124   2.627   3.162  1.1527  1.7929  1.1252
15199TIP3   OH267011   1.866   0.556  14.669  0.1270  0.4953 -0.6881
15199TIP3    H167012   1.939   0.516  14.718 -1.3676 -0.1453  1.1518
15199TIP3    H267013   1.873   0.650  14.689 -0.3041  0.2722  0.5746
15200TIP3   OH267014   4.613   5.440  11.024  0.2161  0.0784 -0.0225
15200TIP3    H167015   4.659   5.479  10.949 -2.2580  3.7912  0.1167
15200TIP3    H267016   4.657   5.477  11.100 -0.5095  0.5275  0.1889
15201TIP3   OH267017   4.946   4.159   2.442 -0.5980 -0.2221 -0.1356
15201TIP3    H167018   4.865   4.116   2.469 -0.2338 -0.7271  0.1761
15201TIP3    H267019   4.952   4.142   2.348  0.1505 -1.9295  0.1863
15202TIP3   OH267020   6.118   1.607   5.286  0.2385 -0.4813 -0.5565
15202TIP3    H167021   6.162   1.641   5.208  1.0617 -0.7725 -0.2271
15202TIP3    H267022   6.061   1.678   5.314  0.0210 -0.3271 -1.3488
15203TIP3   OH267023   2.816   5.914  12.695 -0.1502 -0.3412 -0.2396
15203TIP3    H167024   2.874   5.959  12.757  0.6053 -0.4788 -0.8337
15203TIP3    H267025   2.728   5.929  12.729  0.0488  1.7967 -0.5568
15204TIP3   OH267026   2.459   2.289  13.221  0.2878 -0.3054  0.4935
15204TIP3    H167027   2.462   2.217  13.158 -1.7747  0.7198 -0.9152
15204TIP3    H267028   2.515   2.357  13.183 -1.5404  0.5986 -0.7199
15205TIP3   OH267029   5.092   0.703   0.563  0.4001 -0.0919  0.5273
15205TIP3    H167030   5.048   0.624   0.593 -1.3060  0.1991 -1.0222
15205TIP3    H267031   5.029   0.773   0.580  2.1170  1.1055  2.4512
15206TIP3   OH267032   4.256   5.767  15.055 -0.1428  0.0595  0.4379
15206TIP3    H167033   4.312   5.698  15.090  1.2009  0.7924 -0.2220
15206TIP3    H267034   4.289   5.783  14.967 -1.3463  0.5772  0.0575
15207TIP3   OH267035   5.257   5.303  16.001  0.0810  0.2188  0.2501
15207TIP3    H167036   5.307   5.353  15.936  2.0157 -0.2275  1.3191
15207TIP3    H267037   5.173   5.349  16.006  0.3094  0.9528 -1.6866
15208TIP3   OH267038   3.620   5.695  15.001 -0.0659  0.0570 -0.1814
15208TIP3    H167039   3.563   5.619  14.996  0.8377 -0.5552 -2.3816
15208TIP3    H267040   3.705   5.660  15.026  0.7948 -0.0152 -2.8920
15209TIP3   OH267041   3.669   4.963   5.211 -0.4801  0.1336  0.3780
15209TIP3    H167042   3.733   4.927   5.273 -0.3859  1.7704  1.2796
15209TIP3    H267043   3.586   4.921   5.235 -0.2566  0.0214  0.9639
15210TIP3   OH267044   4.170   4.115  12.996  1.0110 -0.5027  0.4825
15210TIP3    H167045   4.209   4.039  12.952  0.3791 -0.6484  0.1600
15210TIP3    H267046   4.236   4.184  12.987  0.9473 -0.5561 -0.6230
15211TIP3   OH267047   1.279   1.102   2.203 -0.1488 -0.3675  0.0551
15211TIP3    H167048   1.324   1.018   2.209 -0.7736 -0.7140  0.0570
15211TIP3    H267049   1.241   1.114   2.290  0.7833  0.4141  0.3685
15212TIP3   OH267050   0.569   5.904  11.598  0.0812 -0.0663 -0.1118
15212TIP3    H167051   0.655   5.946  11.602 -0.2159  0.5948 -0.5340
15212TIP3    H267052   0.578   5.825  11.651  0.6813  0.4712  0.6036
15213TIP3   OH267053   1.530   1.142   0.310  0.3216  0.3986 -0.1441
15213TIP3    H167054   1.585   1.123   0.234  2.8272  0.7464  1.4674
15213TIP3    H267055   1.507   1.057   0.346 -0.8785  0.2313 -1.2263
15214TIP3   OH267056   0.661   5.008   1.387  0.7436 -0.0632 -0.5498
15214TIP3    H167057   0.668   4.957   1.306 -0.3856 -0.0533 -0.6681
15214TIP3    H267058   0.706   4.956   1.453  1.5489 -0.1414 -1.1411
15215TIP3   OH267059   3.323   1.081   2.077 -0.1069 -0.0082 -0.2120
15215TIP3    H167060   3.393   1.034   2.123 -1.3149 -0.4412  1.3080
15215TIP3    H267061   3.288   1.017   2.015  0.1364 -0.1651 -0.1882
15216TIP3   OH267062   5.566   2.820  11.042  0.4690  0.1475  0.4425
15216TIP3    H167063   5.569   2.781  10.954  0.5447  0.2390  0.4056
15216TIP3    H267064   5.472   2.826  11.062  0.3949 -3.2395  1.8545
15217TIP3   OH267065   5.185   3.788  11.718 -0.0590 -0.5927 -0.0892
15217TIP3    H167066   5.141   3.764  11.799 -1.4056  2.5137  0.2324
15217TIP3    H267067   5.268   3.828  11.745 -0.7919  1.0263 -0.1487
15218TIP3   OH267068   2.951   1.534  16.458 -0.5617  0.1599  0.5699
15218TIP3    H167069   2.978   1.551  16.548 -0.5484 -1.6938  0.9469
15218TIP3    H267070   3.008   1.462  16.429 -0.2303  1.0371 -1.1046
15219TIP3   OH267071   3.311   3.907  17.014 -0.8650 -0.3336 -0.1726
15219TIP3    H167072   3.298   3.999  17.038 -0.7905 -0.3801  0.0450
15219TIP3    H267073   3.316   3.908  16.918  0.7939  0.1134 -0.1081
15220TIP3   OH267074   4.563   3.067  13.015  0.5866  0.1202  0.3373
15220TIP3    H167075   4.469   3.054  13.026  0.3378  0.7401 -0.8669
15220TIP3    H267076   4.603   2.988  13.051 -0.3637  0.0534  1.2869
15221TIP3   OH267077   4.439   2.749  12.913 -0.5418 -0.2462  0.3448
15221TIP3    H167078   4.402   2.835  12.932  0.5426 -0.1640  2.4744
15221TIP3    H267079   4.364   2.694  12.891 -1.4612  0.7994  0.7918
15222TIP3   OH267080   0.480   3.307  14.920 -0.1646 -0.1910  0.1169
15222TIP3    H167081   0.504   3.397  14.902 -1.6503  0.2387  0.1190
15222TIP3    H267082   0.553   3.272  14.971  0.2066  1.1553  0.5453
15223TIP3   OH267083   4.702   4.462   5.682 -1.0587 -0.2906 -0.2474
15223TIP3    H167084   4.726   4.369   5.672 -1.0985 -0.2952 -0.2973
15223TIP3    H267085   4.782   4.509   5.658 -1.1975 -0.2970 -0.7230
15224TIP3   OH267086   0.383   0.761   1.137  0.0689  0.1728  0.3582
15224TIP3    H167087   0.308   0.715   1.175 -0.0186  0.0104 -0.0088
15224TIP3    H267088   0.371   0.852   1.163  1.5690 -0.3144  3.2901
15225TIP3   OH267089   0.702   6.407   0.173 -0.3616 -0.0488  0.4143
15225TIP3    H167090   0.687   6.314   0.153  0.1241  0.0257 -0.3067
15225TIP3    H267091   0.671   6.454   0.096 -1.6421  0.4828  1.2153
15226TIP3   OH267092   3.638   5.738  12.887 -0.3827 -0.3490  0.1092
15226TIP3    H167093   3.608   5.760  12.975  0.4677  2.8797 -0.3094
15226TIP3    H267094   3.560   5.702  12.844 -1.1990 -0.5936  1.7048
15227TIP3   OH267095   1.211   3.467  15.684  0.1886  0.1024 -0.3178
15227TIP3    H167096   1.216   3.542  15.625 -0.5916 -0.3085 -0.9232
15227TIP3    H267097   1.281   3.408  15.654  0.8728  0.6156  0.2257
15228TIP3   OH267098   3.654   1.994   2.230 -0.3487  0.5492  0.0760
15228TIP3    H167099   3.666   2.089   2.226  0.9396  0.3616 -1.2039
15228TIP3    H267100   3.739   1.958   2.207 -0.6283 -0.9358  1.2725
15229TIP3   OH267101   3.969   6.455   5.479  0.6845 -0.2920  0.2001
15229TIP3    H167102   4.025   6.388   5.516  1.0973 -1.0843 -1.7187
15229TIP3    H267103   3.898   6.407   5.437  1.4764  0.3507 -2.0103
15230TIP3   OH267104   0.422   6.057   3.136 -0.2956 -0.2396  0.2860
15230TIP3    H167105   0.507   6.097   3.118  0.3585 -0.3943  2.7212
15230TIP3    H267106   0.414   6.058   3.231 -1.9784 -2.3661  0.2462
15231TIP3   OH267107   6.550   1.566  12.140  0.2017  0.0388 -0.3850
15231TIP3    H167108   6.499   1.607  12.209 -0.5085  0.6869 -1.2721
15231TIP3    H267109   6.514   1.477  12.134  0.0458  0.0841 -0.1352
15232TIP3   OH267110   2.938   5.143   3.627  0.3778 -0.3851 -0.2105
15232TIP3    H167111   3.027   5.175   3.613  0.2070  0.8907  1.3924
15232TIP3    H267112   2.910   5.113   3.540  1.2524  2.1201 -1.4641
15233TIP3   OH267113   0.712   0.085  13.120 -0.6718 -0.0720 -0.0252
15233TIP3    H167114   0.757   0.168  13.134 -0.3994 -0.3363  0.7363
15233TIP3    H267115   0.620   0.108  13.112 -0.7501  0.2078  1.4066
15234TIP3   OH267116   3.262   1.613  13.248  0.0068  0.4485 -0.3254
15234TIP3    H167117   3.227   1.567  13.172 -0.9712  0.5608  0.0301
15234TIP3    H267118   3.327   1.553  13.285  0.8550  0.6058 -1.5108
15235TIP3   OH267119   2.324   3.020   0.201 -0.1283 -0.6422 -0.0342
15235TIP3    H167120   2.305   3.030   0.294 -0.9658 -0.0159 -0.2490
15235TIP3    H267121   2.237   3.023   0.159  0.3530  1.7416 -1.0426
15236TIP3   OH267122   5.237   5.042  16.136 -0.0962 -0.0576 -0.3774
15236TIP3    H167123   5.267   5.119  16.087  0.9433 -0.5316 -0.5228
15236TIP3    H267124   5.170   5.003  16.079 -0.9165  0.9362 -0.1237
15237TIP3   OH267125   5.866   4.485   4.296 -0.3089  0.1411 -0.2365
15237TIP3    H167126   5.880   4.562   4.351  0.9569 -1.2393  1.4831
15237TIP3    H267127   5.905   4.413   4.345 -2.5480 -1.8531 -1.1612
15238TIP3   OH267128   2.938   5.276  16.931 -0.4123 -0.0967  0.3369
15238TIP3    H167129   2.892   5.239  16.856 -0.0183  0.8155 -0.3839
15238TIP3    H267130   2.971   5.200  16.979  0.8264 -0.7186 -1.3675
15239TIP3   OH267131   1.023   5.940  16.019 -0.1898 -0.3123  0.1450
15239TIP3    H167132   0.941   5.910  16.059 -0.2073 -0.4246  0.0257
15239TIP3    H267133   1.065   5.859  15.989 -0.4664 -0.1810 -0.6164
15240TIP3   OH267134   0.717   2.552  17.069  0.4743 -0.6351  0.4493
15240TIP3    H167135   0.641   2.509  17.030 -0.4650  2.1670 -1.1268
15240TIP3    H267136   0.782   2.555  16.998 -0.2710  2.1975 -0.2468
15241TIP3   OH267137   6.451   4.781   4.670 -0.2161  0.4394 -0.3656
15241TIP3    H167138   6.404   4.701   4.691  3.4453 -2.7585 -2.8332
15241TIP3    H267139   6.489   4.809   4.754 -1.2359 -0.6311  0.4862
15242TIP3   OH267140   5.301   1.397  11.527  0.4652  0.3374  0.8831
15242TIP3    H167141   5.353   1.418  11.449  0.8815  0.0678  1.0822
15242TIP3    H267142   5.255   1.478  11.548 -0.4908  0.1272 -0.2656
15243TIP3   OH267143   4.427   0.048   5.237  0.0120 -0.1781 -0.1186
15243TIP3    H167144   4.490   0.088   5.177 -2.5533  2.0594 -1.5293
15243TIP3    H267145   4.410  -0.038   5.201  2.5956 -1.0982  0.6378
15244TIP3   OH267146   4.102   2.985  13.545  0.1021  0.1284 -0.8832
15244TIP3    H167147   4.172   2.932  13.505  1.4354  0.4702  0.8655
15244TIP3    H267148   4.034   2.922  13.566  0.4887 -0.4540 -1.3255
15245TIP3   OH267149   1.722   3.492   4.379  0.4431 -0.5427  0.1154
15245TIP3    H167150   1.631   3.478   4.407  0.3895  1.0379  0.8675
15245TIP3    H267151   1.774   3.471   4.456  0.7069 -1.2629 -0.2565
15246TIP3   OH267152   0.531   5.142   5.305 -0.2370  0.4573  0.1670
15246TIP3    H167153   0.444   5.130   5.342 -0.6471  0.4118 -0.7944
15246TIP3    H267154   0.549   5.236   5.316 -1.1076  0.7964 -1.1106
15247TIP3   OH267155   3.937   6.408   0.190  0.0850  0.1837 -0.2219
15247TIP3    H167156   3.924   6.394   0.097 -0.5437  1.5964 -0.3738
15247TIP3    H267157   3.984   6.492   0.196  1.6285 -0.6853  0.6865
15248TIP3   OH267158   1.867   5.068  12.648  0.3719  0.2988 -0.0241
15248TIP3    H167159   1.839   5.023  12.568  1.0766 -2.4499  1.1463
15248TIP3    H267160   1.791   5.061  12.706  1.1823 -1.4115  0.9048
15249TIP3   OH267161   0.699   3.354  12.479  0.2881 -0.5298 -0.2297
15249TIP3    H167162   0.757   3.428  12.459  1.0831 -1.8666 -3.7570
15249TIP3    H267163   0.757   3.286  12.511 -0.0301 -0.5090  0.4026
15250TIP3   OH267164   3.060   1.172   4.356 -0.1037  0.2246 -0.2940
15250TIP3    H167165   3.098   1.253   4.321 -1.6253  0.6000 -1.1405
15250TIP3    H267166   2.966   1.181   4.342 -0.4165 -1.2158  0.6299
15251TIP3   OH267167   2.429   3.707   3.751  0.3331  0.2924 -0.3631
15251TIP3    H167168   2.350   3.748   3.715  1.2566  0.9221 -1.7282
15251TIP3    H267169   2.496   3.775   3.746  1.2439 -0.5757 -0.2395
15252TIP3   OH267170   2.616   0.171  13.661 -0.2438  0.3135  0.5387
15252TIP3    H167171   2.532   0.215  13.675  0.1519  0.5466  2.5358
15252TIP3    H267172   2.613   0.142  13.570 -2.4996  0.2715  0.5617
15253TIP3   OH267173   1.782   4.045   1.988  0.2711 -0.0290 -0.5617
15253TIP3    H167174   1.854   4.032   2.049  2.8198  0.9525 -3.1386
15253TIP3    H267175   1.751   4.134   2.006 -0.5901 -0.5705  0.7758
15254TIP3   OH267176   3.879   2.456  16.727 -0.9506  0.7193 -0.2063
15254TIP3    H167177   3.926   2.483  16.648 -1.3682  0.1645 -0.6534
15254TIP3    H267178   3.891   2.529  16.789  2.0212 -0.1372  0.3673
15255TIP3   OH267179   4.750   3.213   5.015 -0.3296 -0.2398  0.1312
15255TIP3    H167180   4.803   3.252   5.085  0.4458  0.7453 -0.9602
15255TIP3    H267181   4.660   3.229   5.041 -0.0485  0.2946  0.8187
15256TIP3   OH267182   0.352   2.320  14.544 -0.6106  0.0300 -0.1455
15256TIP3    H167183   0.276   2.289  14.495 -1.5731  1.8372  0.1521
15256TIP3    H267184   0.358   2.413  14.524  2.7217 -0.3526 -1.7325
15257TIP3   OH267185   1.056   0.958   6.336  0.4639 -0.0500 -0.3901
15257TIP3    H167186   1.063   1.020   6.264 -1.3176  0.1678 -0.4172
15257TIP3    H267187   1.028   0.876   6.295  0.0480 -0.0938 -0.0276
15258TIP3   OH267188   0.335   2.431  11.029  0.4575 -0.5160  0.3691
15258TIP3    H167189   0.408   2.488  11.008  0.8030 -0.4218  1.7208
15258TIP3    H267190   0.373   2.343  11.038  0.1706 -0.7125 -0.2633
15259TIP3   OH267191   5.938   6.682  16.098 -0.5375  0.5053 -0.5091
15259TIP3    H167192   6.011   6.653  16.151  0.0340 -0.9808 -2.0259
15259TIP3    H267193   5.931   6.776  16.116 -0.4026  0.0760  2.1376
15260TIP3   OH267194   4.790   6.535  12.017 -0.1899  0.1556 -0.1891
15260TIP3    H167195   4.858   6.476  12.050  0.8315  1.0494 -0.6352
15260TIP3    H267196   4.794   6.525  11.921 -1.1955 -0.3209 -0.1930
15261TIP3   OH267197   2.610   3.056   6.041 -0.2177  0.1594  0.4532
15261TIP3    H167198   2.697   3.043   6.079  0.5097 -2.0324 -1.6492
15261TIP3    H267199   2.569   2.969   6.045 -1.2558  0.5478 -0.8941
15262TIP3   OH267200   0.623   5.933   5.394 -0.8660 -0.3101 -0.2040
15262TIP3    H167201   0.716   5.926   5.370 -0.8183 -0.6910  0.0760
15262TIP3    H267202   0.602   5.848   5.434 -0.7073  0.5519  1.8524
15263TIP3   OH267203   5.605   0.875  11.880 -0.3482  0.1112  0.7533
15263TIP3    H167204   5.586   0.809  11.814  0.6542  0.7111 -0.1690
15263TIP3    H267205   5.695   0.902  11.862  0.9178 -1.4214  3.8593
15264TIP3   OH267206   2.469   6.369   5.483  0.2277 -0.4381  0.3027
15264TIP3    H167207   2.538   6.319   5.526  1.4299  0.4388 -0.5447
15264TIP3    H267208   2.482   6.352   5.390  0.1643  0.8124  0.0509
15265TIP3   OH267209   6.257   4.210   1.606  0.4403  0.4067  0.0651
15265TIP3    H167210   6.202   4.288   1.592  1.5066  1.2032  0.2158
15265TIP3    H267211   6.324   4.215   1.537  0.3760 -0.5266 -0.0815
15266TIP3   OH267212   5.669   3.255   0.457  0.0337 -0.5284 -0.2445
15266TIP3    H167213   5.592   3.200   0.471  0.2016 -1.1171 -1.4796
15266TIP3    H267214   5.732   3.224   0.523 -0.1481 -1.2946 -0.4149
15267TIP3   OH267215   2.539   2.360  14.459  0.0862  0.2114  0.1737
15267TIP3    H167216   2.545   2.287  14.520 -2.4570 -1.2277 -1.1143
15267TIP3    H267217   2.445   2.382  14.458  0.0780  0.4309 -2.8359
15268TIP3   OH267218   5.057   1.390   0.404 -0.2044  0.0808  0.2788
15268TIP3    H167219   5.085   1.315   0.457 -0.9900 -0.3835  0.0461
15268TIP3    H267220   5.053   1.356   0.315 -0.8053  0.3301  0.2066
15269TIP3   OH267221   5.299   1.166  13.847 -0.1042 -0.1376 -0.0173
15269TIP3    H167222   5.328   1.099  13.786  0.2471 -1.7699  1.8359
15269TIP3    H267223   5.316   1.129  13.934 -0.8939  1.9211  1.1011
15270TIP3   OH267224   4.201   4.065  13.673  0.2196  0.0331 -0.5643
15270TIP3    H167225   4.162   4.028  13.594 -1.0853 -1.4189  0.6848
15270TIP3    H267226   4.296   4.060  13.658  0.0015 -0.6390 -1.8433
15271TIP3   OH267227   6.699   2.127   5.102 -1.0239 -0.1668  0.3281
15271TIP3    H167228   6.707   2.083   5.187 -1.1205 -1.5733 -0.3582
15271TIP3    H267229   6.704   2.056   5.038 -2.3175  0.6950 -0.7985
15272TIP3   OH267230   5.256   2.920  16.100 -0.8089 -0.3498  0.2260
15272TIP3    H167231   5.208   2.970  16.166 -0.5850 -0.9586  0.8598
15272TIP3    H267232   5.320   2.869  16.150 -0.9047 -1.1304 -0.4217
15273TIP3   OH267233   0.874   6.333  16.131  0.3709 -0.5096 -0.2353
15273TIP3    H167234   0.913   6.337  16.218  1.0288  1.1080 -0.5685
15273TIP3    H267235   0.815   6.409  16.127 -0.8566 -1.4468 -0.6677
15274TIP3   OH267236   4.070   1.473  12.208 -0.5286  0.7070  0.5168
15274TIP3    H167237   4.140   1.535  12.230  0.7767 -1.2925  2.3492
15274TIP3    H267238   4.076   1.462  12.113  2.4073 -0.1749  0.7154
15275TIP3   OH267239   0.618   5.815  10.965  0.1375  0.3583  0.0846
15275TIP3    H167240   0.707   5.822  11.000  0.1893 -1.2947  0.3524
15275TIP3    H267241   0.600   5.902  10.929  1.9515  0.6611 -0.2145
15276TIP3   OH267242   6.311   5.378  17.172 -0.2539  0.3882 -0.6609
15276TIP3    H167243   6.340   5.469  17.176  2.4642 -0.4307  0.5001
15276TIP3    H267244   6.343   5.339  17.253 -1.0189 -1.7194 -1.3066
15277TIP3   OH267245   5.518   5.305   0.733 -0.2674  0.3642 -0.0529
15277TIP3    H167246   5.575   5.234   0.703  0.0769  0.0297  1.3301
15277TIP3    H267247   5.574   5.360   0.787 -1.1666  0.1802  1.1185
15278TIP3   OH267248   4.977   3.800  15.672  0.0028 -0.2343 -0.5940
15278TIP3    H167249   5.039   3.808  15.744 -1.0030  0.8211  0.1851
15278TIP3    H267250   5.025   3.750  15.605  1.9341  1.0961 -0.2991
15279TIP3   OH267251   2.437   6.291  16.802 -0.3259  0.4229  1.0259
15279TIP3    H167252   2.443   6.291  16.706  1.5700  3.8847  0.9804
15279TIP3    H267253   2.368   6.353  16.822 -2.1241 -1.7559  2.0182
15280TIP3   OH267254   4.771   5.996   5.293  0.0984 -0.1273 -0.3558
15280TIP3    H167255   4.780   6.085   5.258  1.6191  0.3175  1.0749
15280TIP3    H267256   4.677   5.978   5.289 -0.1084  1.0440 -1.7979
15281TIP3   OH267257   1.432   4.341  12.436  0.2704  0.2355  0.6268
15281TIP3    H167258   1.404   4.421  12.392 -2.1937 -0.6768  0.3659
15281TIP3    H267259   1.493   4.300  12.375 -0.8813  0.4079 -0.7035
15282TIP3   OH267260   4.065   3.274   3.641  0.2535  0.2952 -0.1199
15282TIP3    H167261   4.141   3.223   3.612  0.4132  0.1311  0.5889
15282TIP3    H267262   4.083   3.363   3.611  1.0334  0.3889  0.6166
15283TIP3   OH267263   3.195   5.099  10.478  0.0483  0.0232  0.6907
15283TIP3    H167264   3.140   5.173  10.501  0.5340  1.1119 -1.4238
15283TIP3    H267265   3.282   5.122  10.511  0.3423  0.7386 -0.5258
15284TIP3   OH267266   3.654   1.886   2.480 -0.1236  0.5601 -0.1935
15284TIP3    H167267   3.748   1.866   2.475 -0.4636 -0.9669 -1.4373
15284TIP3    H267268   3.626   1.890   2.388 -1.4270  0.1779  0.1659
15285TIP3   OH267269   3.639   6.461  16.269  0.0923 -0.3443 -0.0190
15285TIP3    H167270   3.731   6.454  16.245  0.1620 -0.8438  0.3677
15285TIP3    H267271   3.618   6.376  16.308 -0.0563  0.3447  1.4719
15286TIP3   OH267272   0.635   0.075  16.798  0.0513 -0.2483  0.0396
15286TIP3    H167273   0.560   0.108  16.748  0.3291  1.0530  0.4420
15286TIP3    H267274   0.674   0.008  16.742 -0.3865  0.2887 -0.9329
15287TIP3   OH267275   1.066   0.706  16.154 -0.3690 -0.4480  0.4243
15287TIP3    H167276   0.988   0.680  16.104 -0.9971  1.7080  0.1669
15287TIP3    H267277   1.128   0.736  16.087 -0.6838  1.1453  0.8181
15288TIP3   OH267278   0.918   6.485   1.022 -0.4575 -0.4229  0.2846
15288TIP3    H167279   1.012   6.475   1.034 -0.2540  0.6875 -0.2275
15288TIP3    H267280   0.891   6.407   0.974  0.2947 -0.5204  0.0040
15289TIP3   OH267281   0.653   6.568  14.102  0.7810 -0.3389 -0.0991
15289TIP3    H167282   0.728   6.509  14.096  0.4132 -0.9148  0.8372
15289TIP3    H267283   0.605   6.539  14.180 -0.3222  0.1326 -0.5847
15290TIP3   OH267284   2.661   2.520  14.753 -0.1180 -0.0180 -0.3671
15290TIP3    H167285   2.634   2.572  14.828  0.5295  1.0215 -0.8444
15290TIP3    H267286   2.613   2.558  14.679 -1.2670 -1.4501 -0.4073
15291TIP3   OH267287   5.051   1.038   1.041 -0.2954 -0.2319  0.2774
15291TIP3    H167288   5.097   1.026   1.124  0.9926 -1.8993 -0.6261
15291TIP3    H267289   5.034   1.132   1.036  1.2446  0.1490  1.5679
15292TIP3   OH267290   1.027   0.268  12.453  0.2396  0.1238 -0.5652
15292TIP3    H167291   1.032   0.176  12.478  0.2950  0.1932 -0.3196
15292TIP3    H267292   1.118   0.296  12.445  0.2221  0.2019 -0.4814
15293TIP3   OH267293   5.729   3.797   0.994 -0.2373 -0.4766 -0.2135
15293TIP3    H167294   5.764   3.715   0.958  1.7551 -0.6462  1.8652
15293TIP3    H267295   5.725   3.782   1.088  0.1428  1.8034  0.2221
15294TIP3   OH267296   3.910   6.370  14.238 -0.6274  0.3543 -0.6755
15294TIP3    H167297   3.847   6.378  14.309 -1.3267 -2.4274 -0.8630
15294TIP3    H267298   3.858   6.339  14.164  0.6585 -0.1162 -1.4051
15295TIP3   OH267299   3.723   0.693  11.387  0.2834  0.0601  0.3852
15295TIP3    H167300   3.659   0.736  11.330  1.4878 -0.4551 -1.4714
15295TIP3    H267301   3.782   0.648  11.326  0.7727 -1.7928  2.1268
15296TIP3   OH267302   1.270   0.643   4.074  0.1033 -0.2826  0.4756
15296TIP3    H167303   1.346   0.670   4.126 -0.6384  0.7751  1.0544
15296TIP3    H267304   1.246   0.557   4.109  0.7374 -0.4095  0.6121
15297TIP3   OH267305   4.746   6.181   4.319  0.1432  0.4956  0.3492
15297TIP3    H167306   4.748   6.132   4.236 -0.9151  2.6338 -1.0492
15297TIP3    H267307   4.831   6.225   4.323 -0.0262  0.8714  0.0297
15298TIP3   OH267308   1.465   3.621  12.587  0.6734 -0.0297 -0.1151
15298TIP3    H167309   1.435   3.531  12.574  1.1391 -0.2089  0.0047
15298TIP3    H267310   1.442   3.641  12.678  3.6265 -1.2862  1.0478
15299TIP3   OH267311   2.652   0.661  11.792 -0.0037 -0.1475 -0.0410
15299TIP3    H167312   2.622   0.633  11.705 -1.7439  2.5444 -0.4172
15299TIP3    H267313   2.726   0.719  11.774 -1.8061  2.2964 -0.0118
15300TIP3   OH267314   0.078   4.637   0.752  0.0182  0.5021  0.2521
15300TIP3    H167315   0.143   4.703   0.729  0.0721  1.0608  1.8991
15300TIP3    H267316   0.058   4.593   0.669  1.9089  0.8338 -0.4235
15301TIP3   OH267317   0.213   3.953  13.304 -0.0076  0.8628 -0.0706
15301TIP3    H167318   0.152   3.940  13.232 -0.0136 -0.3315  0.1197
15301TIP3    H267319   0.162   3.997  13.372 -0.0036  1.9922 -0.7723
15302TIP3   OH267320   4.063   3.108   2.482 -0.1058 -0.1551  0.4726
15302TIP3    H167321   4.147   3.066   2.462  0.8218  1.9646 -0.3629
15302TIP3    H267322   4.077   3.149   2.568 -0.6418 -0.6259  0.7922
15303TIP3   OH267323   6.735   2.474  16.685  0.0555 -0.3989 -0.2302
15303TIP3    H167324   6.813   2.512  16.644 -1.0270  0.9450 -1.1564
15303TIP3    H267325   6.663   2.529  16.654 -1.2197 -1.3553  0.9175
15304TIP3   OH267326   0.564   5.234   5.998  0.4135  0.2602  0.2426
15304TIP3    H167327   0.481   5.198   6.028  0.3464 -0.2780 -0.5603
15304TIP3    H267328   0.610   5.259   6.078 -0.4474  0.4136  0.7020
15305TIP3   OH267329   6.129   6.084  12.189  0.3348 -0.9356  0.3489
15305TIP3    H167330   6.151   6.024  12.260  0.3280 -0.6619  0.5856
15305TIP3    H267331   6.161   6.041  12.110 -0.2125 -1.5309  0.4428
15306TIP3   OH267332   1.635   4.062  12.721  1.1413  0.3560  0.8310
15306TIP3    H167333   1.607   4.153  12.718  0.3769  0.1070 -1.3307
15306TIP3    H267334   1.600   4.029  12.804  0.2278  1.6551  0.9947
15307TIP3   OH267335   4.951   0.967   5.402 -0.1544 -0.2912 -0.2143
15307TIP3    H167336   5.042   0.966   5.432 -0.0519  1.2349 -0.3806
15307TIP3    H267337   4.901   0.928   5.474  0.7174 -2.1359 -0.5518
15308TIP3   OH267338   6.316   3.862  14.004 -0.3661  0.0806  0.0185
15308TIP3    H167339   6.307   3.872  13.909 -1.5067  1.5027  0.2476
15308TIP3    H267340   6.283   3.773  14.021 -1.8508  0.4542 -0.7298
15309TIP3   OH267341   5.882   0.687  12.069 -0.0523 -0.1060  0.2039
15309TIP3    H167342   5.859   0.780  12.069  0.0783 -0.0375  2.2034
15309TIP3    H267343   5.950   0.680  12.002 -1.9515  0.6770 -1.9313
15310TIP3   OH267344   2.385   5.301   1.462 -0.4668  0.4445 -0.1186
15310TIP3    H167345   2.359   5.230   1.403  0.9329 -1.6049  1.5860
15310TIP3    H267346   2.313   5.307   1.525 -0.3509  0.1623  0.0433
15311TIP3   OH267347   4.177   1.399  10.728 -0.2405 -0.3991  0.1313
15311TIP3    H167348   4.264   1.359  10.722 -0.1808 -0.1652 -0.6584
15311TIP3    H267349   4.117   1.329  10.703 -0.0133  0.4891 -3.4728
15312TIP3   OH267350   4.184   0.161   0.959  0.1317  0.2153 -0.1711
15312TIP3    H167351   4.267   0.184   1.001  0.2138 -0.7227  0.1984
15312TIP3    H267352   4.117   0.208   1.009  0.3428  0.1006  0.2198
15313TIP3   OH267353   3.028   1.438  15.146  0.2552  0.0658  0.4161
15313TIP3    H167354   3.119   1.466  15.154 -0.0785  1.1574  0.5049
15313TIP3    H267355   3.003   1.413  15.235  0.2753  0.3841  0.5123
15314TIP3   OH267356   1.880   2.401  13.268  0.4077  0.5470  0.2352
15314TIP3    H167357   1.834   2.446  13.197 -0.2726 -0.2470  0.1543
15314TIP3    H267358   1.864   2.455  13.345  0.5969  1.0646 -0.0798
15315TIP3   OH267359   0.112   0.388  10.745 -0.4082  0.5495  0.4381
15315TIP3    H167360   0.207   0.395  10.756 -0.6171  1.0799  2.1426
15315TIP3    H267361   0.093   0.295  10.752 -0.0939  0.5223  0.9787
15316TIP3   OH267362   3.953   4.797  16.277  0.1492 -1.1247  0.2813
15316TIP3    H167363   3.928   4.780  16.368  1.8178  0.3453  1.0787
15316TIP3    H267364   4.048   4.807  16.280  0.2471 -1.1693 -1.6650
15317TIP3   OH267365   3.905   3.706  12.557 -0.0672  0.4113  0.4290
15317TIP3    H167366   3.945   3.770  12.498  0.3164 -0.1351  0.0860
15317TIP3    H267367   3.824   3.748  12.586  0.8288  1.6318  1.2970
15318TIP3   OH267368   0.454   4.890   5.893 -0.0504  0.2007  0.6408
15318TIP3    H167369   0.457   4.870   5.800  1.5458 -1.5460  1.0114
15318TIP3    H267370   0.544   4.908   5.917  0.0043 -1.7709  2.2662
15319TIP3   OH267371   6.616   6.292   4.163 -0.6869 -0.3312  0.1983
15319TIP3    H167372   6.601   6.249   4.078  0.5871  0.2674 -0.3579
15319TIP3    H267373   6.649   6.379   4.140 -2.5626  0.7401  1.3159
15320TIP3   OH267374   0.938   5.281  14.357 -0.2031  0.4222 -0.5485
15320TIP3    H167375   0.948   5.203  14.303  2.0115  0.7587 -0.7325
15320TIP3    H267376   1.022   5.290  14.402 -1.2014  1.4053  1.2799
15321TIP3   OH267377   6.585   4.798   0.476 -0.1067  0.0718  0.6067
15321TIP3    H167378   6.502   4.843   0.462 -0.6853 -1.1117  0.1192
15321TIP3    H267379   6.649   4.868   0.484 -1.1112  0.9996  0.7617
15322TIP3   OH267380   4.567   4.568  14.481 -0.5320 -0.4703 -0.5608
15322TIP3    H167381   4.585   4.662  14.479 -0.1834 -0.5486 -1.3194
15322TIP3    H267382   4.639   4.532  14.533  0.1618 -0.4811 -1.4924
15323TIP3   OH267383   0.063   4.233  13.191  0.0073  0.0847  0.0017
15323TIP3    H167384   0.076   4.169  13.260  0.9331 -0.6123 -0.7940
15323TIP3    H267385  -0.031   4.228  13.171  0.2030 -1.7262 -0.6791
15324TIP3   OH267386   4.806   5.079  14.975  0.1806 -0.4956  0.1613
15324TIP3    H167387   4.718   5.066  14.938 -0.5137 -1.0051  1.8786
15324TIP3    H267388   4.862   5.092  14.899 -1.2834 -0.7608 -1.0217
15325TIP3   OH267389   3.430   2.284  16.870 -0.6272  0.8302 -0.6772
15325TIP3    H167390   3.433   2.227  16.793 -0.2606 -0.9912  0.6284
15325TIP3    H267391   3.519   2.315  16.880 -0.6395  0.9369 -0.8852
15326TIP3   OH267392   0.931   1.039  13.377 -0.0707  0.4229  0.0770
15326TIP3    H167393   0.902   1.036  13.286  1.5248  2.6865 -0.6056
15326TIP3    H267394   0.888   1.118  13.413 -0.2865 -0.1662  1.1522
15327TIP3   OH267395   5.118   3.650  14.297  0.4377 -0.4779 -0.0675
15327TIP3    H167396   5.149   3.560  14.301  1.7445 -0.0430 -0.0075
15327TIP3    H267397   5.180   3.700  14.350  0.0386  0.5459 -0.5261
15328TIP3   OH267398   1.593   5.556   4.619  0.2249  0.0966 -0.2165
15328TIP3    H167399   1.634   5.569   4.533 -2.5260  0.7955 -1.5328
15328TIP3    H267400   1.566   5.644   4.645 -0.3127 -0.3180  0.6399
15329TIP3   OH267401   2.708   2.601  10.555 -0.4421  0.1381  0.5098
15329TIP3    H167402   2.675   2.554  10.478  0.9937 -2.7324  1.4895
15329TIP3    H267403   2.633   2.603  10.615 -0.6429 -0.6510  0.3055
15330TIP3   OH267404   3.581   6.186   0.884 -0.4291 -0.2909  0.5576
15330TIP3    H167405   3.603   6.106   0.836 -0.6097 -1.0418  1.6964
15330TIP3    H267406   3.622   6.175   0.969  0.9930  1.6008  0.1816
15331TIP3   OH267407   5.848   5.809  12.078 -0.4241  0.2490 -0.8574
15331TIP3    H167408   5.905   5.844  12.010 -1.4756  1.8808 -0.9454
15331TIP3    H267409   5.908   5.765  12.139  0.7933  0.9684 -1.5083
15332TIP3   OH267410   6.576   0.012   5.253  0.2757  0.1321 -0.4576
15332TIP3    H167411   6.525   0.063   5.316  0.2067  0.5185 -0.8211
15332TIP3    H267412   6.554  -0.079   5.272  1.6150  0.1287  1.2463
15333TIP3   OH267413   3.574   2.472   2.579 -0.4712  0.0382 -0.1902
15333TIP3    H167414   3.500   2.504   2.527 -0.2004  0.0454 -0.5784
15333TIP3    H267415   3.567   2.376   2.574  0.1225  0.0236 -1.0867
15334TIP3   OH267416   6.565   1.824   2.623 -0.0253  0.3848 -0.4596
15334TIP3    H167417   6.536   1.736   2.597  0.3516  0.3852 -0.8798
15334TIP3    H267418   6.649   1.810   2.666 -0.4199  0.4382  0.3494
15335TIP3   OH267419   4.898   3.894   5.196 -0.2955  0.0138 -0.2830
15335TIP3    H167420   4.992   3.880   5.186 -0.3942 -0.6999 -0.2522
15335TIP3    H267421   4.858   3.810   5.172 -0.7846 -0.4238  1.8206
15336TIP3   OH267422   2.540   2.808   4.188  0.2357 -0.3327 -0.4946
15336TIP3    H167423   2.453   2.832   4.155  0.7244 -0.5086 -1.9991
15336TIP3    H267424   2.571   2.886   4.233 -0.0840  0.2628 -1.2837
15337TIP3   OH267425   3.674   1.535   4.129 -0.4966 -0.3227  0.1110
15337TIP3    H167426   3.694   1.551   4.221 -1.7300 -1.4717  0.6079
15337TIP3    H267427   3.753   1.495   4.093 -0.6193 -1.5167  1.1251
15338TIP3   OH267428   4.727   4.478  16.091  0.3905 -0.1900 -0.1358
15338TIP3    H167429   4.702   4.388  16.112  0.7436 -0.2055  0.2213
15338TIP3    H267430   4.678   4.498  16.012  1.3644 -1.1690 -1.0159
15339TIP3   OH267431   4.684   5.309   0.311  0.2578 -0.3598 -0.0032
15339TIP3    H167432   4.600   5.354   0.322  0.1695 -0.5880  0.2670
15339TIP3    H267433   4.662   5.232   0.257  0.2452 -0.5618  0.2902
15340TIP3   OH267434   5.016   0.197   2.232  0.2265  1.0748 -0.2077
15340TIP3    H167435   5.007   0.189   2.327 -1.3848  1.0722 -0.3366
15340TIP3    H267436   4.990   0.287   2.213 -1.0359  0.6082 -0.7932
15341TIP3   OH267437   2.240   3.835   2.103  0.3026 -0.3381 -0.0879
15341TIP3    H167438   2.181   3.816   2.175 -0.0170  1.3390  0.1375
15341TIP3    H267439   2.305   3.895   2.140 -0.1080  0.8873 -1.2483
15342TIP3   OH267440   0.020   4.693  11.369 -0.0344 -0.2245 -0.4844
15342TIP3    H167441   0.082   4.693  11.442  0.5860 -0.0366 -1.0031
15342TIP3    H267442  -0.004   4.600  11.358 -1.0645 -0.1266  0.7186
15343TIP3   OH267443   1.158   2.246  10.423 -0.2292 -0.0551  0.3266
15343TIP3    H167444   1.153   2.168  10.367 -0.7168  0.9691 -1.1366
15343TIP3    H267445   1.182   2.317  10.363 -0.9293  1.1326  1.3900
15344TIP3   OH267446   2.646   1.114   3.119 -0.7046  0.1039 -0.0108
15344TIP3    H167447   2.656   1.042   3.181 -0.6196  0.3499  0.2607
15344TIP3    H267448   2.735   1.140   3.097 -0.7325 -0.2099 -0.5004
15345TIP3   OH267449   5.307   4.788  14.611  0.0131  0.4529  0.1351
15345TIP3    H167450   5.261   4.807  14.529  1.0035  0.2544 -0.4801
15345TIP3    H267451   5.331   4.874  14.645  1.1645  0.4938 -0.7139
15346TIP3   OH267452   2.620   2.413  10.970 -0.0513 -0.1908 -0.0832
15346TIP3    H167453   2.710   2.391  10.994 -0.3017 -0.2258  0.8911
15346TIP3    H267454   2.615   2.508  10.981  0.3628  0.0771 -1.9425
15347TIP3   OH267455   2.042   5.977  11.841  0.1375 -0.0823 -0.1830
15347TIP3    H167456   2.112   6.006  11.782  0.7928 -3.1702 -1.0960
15347TIP3    H267457   1.969   5.957  11.783 -0.0910 -0.7235  0.3213
15348TIP3   OH267458   2.530   5.197   0.834 -0.0951  0.4834  0.8318
15348TIP3    H167459   2.477   5.277   0.825  0.8208  0.9239 -1.1565
15348TIP3    H267460   2.583   5.212   0.912 -0.0863  1.7339  0.6060
15349TIP3   OH267461   5.582   4.888   2.302 -0.1627 -0.1739 -0.1104
15349TIP3    H167462   5.488   4.881   2.282  0.2488 -0.4247 -2.1751
15349TIP3    H267463   5.602   4.981   2.291 -0.3773  0.1061  1.5675
15350TIP3   OH267464   4.787   6.759  10.328 -0.4929 -0.0966 -0.5141
15350TIP3    H167465   4.854   6.784  10.391  0.3354 -2.0470 -0.5524
15350TIP3    H267466   4.711   6.812  10.352 -1.3150 -2.8545  4.2574
15351TIP3   OH267467   2.429   2.092  12.659 -0.1473  0.0784 -0.7695
15351TIP3    H167468   2.443   2.012  12.710  0.4755  1.1837  0.8851
15351TIP3    H267469   2.368   2.066  12.590 -0.9282 -1.5349  0.4515
15352TIP3   OH267470   6.621   4.880  13.329  0.4110 -0.8411 -0.3008
15352TIP3    H167471   6.692   4.927  13.284 -0.7080  0.5854 -0.6356
15352TIP3    H267472   6.587   4.819  13.264 -0.2308  0.1799 -0.9485
15353TIP3   OH267473   4.165   2.623  14.465  0.5188 -0.4109  0.5086
15353TIP3    H167474   4.238   2.667  14.422 -1.0091  0.5701 -1.2178
15353TIP3    H267475   4.190   2.530  14.466  1.6099 -0.1498 -0.4145
15354TIP3   OH267476   3.306   5.747   3.162 -0.5148 -0.5291 -0.4663
15354TIP3    H167477   3.233   5.782   3.111 -0.4969  0.3212  0.0793
15354TIP3    H267478   3.281   5.656   3.181 -2.6155  0.4303  1.8457
15355TIP3   OH267479   5.663   2.852  12.965 -0.8618  0.1234 -0.3536
15355TIP3    H167480   5.700   2.884  13.048 -0.8369  0.2516 -0.4142
15355TIP3    H267481   5.704   2.907  12.898  1.1149 -1.6388 -0.6999
15356TIP3   OH267482   2.098   2.472  13.026 -0.3356  0.1604  0.4634
15356TIP3    H167483   2.046   2.552  13.028 -0.1256  0.2865  1.5882
15356TIP3    H267484   2.067   2.421  13.101  0.0919 -0.4512  0.2348
15357TIP3   OH267485   3.112   4.072  15.426 -0.1887 -0.7728 -0.1639
15357TIP3    H167486   3.076   4.007  15.366 -0.6739 -0.9117  0.2610
15357TIP3    H267487   3.034   4.114  15.464  0.1184  0.0409 -0.4194
15358TIP3   OH267488   6.687   6.120   1.317  0.0371  0.3149 -0.4933
15358TIP3    H167489   6.685   6.174   1.396  0.8265 -0.5155  0.1231
15358TIP3    H267490   6.749   6.164   1.259  0.3308  0.3204 -0.1788
15359TIP3   OH267491   2.496   2.455   1.779 -0.2969  0.2238  0.2579
15359TIP3    H167492   2.568   2.462   1.717  0.2039  0.3285  0.8320
15359TIP3    H267493   2.534   2.410   1.855 -1.8517 -3.3872 -0.9210
15360TIP3   OH267494   2.374   3.056  15.920 -0.2692 -0.6311 -0.1640
15360TIP3    H167495   2.311   3.118  15.884  0.5785 -0.0558 -0.6644
15360TIP3    H267496   2.408   3.099  15.998 -1.6620 -1.6249  1.0768
15361TIP3   OH267497   2.435   6.117  13.374  0.3221  0.1698 -0.6060
15361TIP3    H167498   2.397   6.096  13.289  0.0195 -0.6901 -0.2644
15361TIP3    H267499   2.502   6.183  13.355  1.5008 -1.3036 -1.7526
15362TIP3   OH267500   5.966   2.531  15.732  0.0172 -0.7797 -0.4839
15362TIP3    H167501   5.971   2.499  15.642  0.1074 -0.1110 -0.7214
15362TIP3    H267502   5.873   2.544  15.747  0.1145  0.7186 -1.0672
15363TIP3   OH267503   4.756   2.705   3.265  0.1003 -0.3201  0.3171
15363TIP3    H167504   4.791   2.754   3.339  0.1574 -0.4641  0.3857
15363TIP3    H267505   4.694   2.643   3.305 -0.8929  0.5165  0.1265
15364TIP3   OH267506   2.043   0.964   0.695 -0.3125  0.1758  0.1451
15364TIP3    H167507   2.079   0.985   0.781 -3.3994  0.0500  1.5629
15364TIP3    H267508   1.981   0.894   0.711 -0.9479  0.1221 -2.2127
15365TIP3   OH267509   1.232   0.876   3.064 -0.6016 -0.1468 -0.7204
15365TIP3    H167510   1.244   0.911   3.152 -1.8199  3.3572 -1.7625
15365TIP3    H267511   1.139   0.852   3.061 -1.0515  1.5255 -1.5061
15366TIP3   OH267512   3.467   5.115  13.069 -0.0777 -0.2819  0.2311
15366TIP3    H167513   3.426   5.138  12.986 -0.1502 -1.6639 -0.1408
15366TIP3    H267514   3.455   5.020  13.076  0.2172 -0.2351  1.6612
15367TIP3   OH267515   2.001   1.511   5.453 -0.1378 -0.2276  0.6663
15367TIP3    H167516   1.937   1.493   5.522  0.4607 -1.3881  0.9397
15367TIP3    H267517   2.048   1.588   5.485 -0.6268 -0.0637  1.0090
15368TIP3   OH267518   5.233   5.752  13.853 -0.3437 -0.6064  1.0477
15368TIP3    H167519   5.159   5.736  13.795  0.7475 -1.8109 -0.0891
15368TIP3    H267520   5.268   5.664  13.872  0.2533 -0.1281  2.2914
15369TIP3   OH267521   5.648   0.573   4.494 -0.1803  0.7303  0.2533
15369TIP3    H167522   5.603   0.601   4.414 -1.3076  1.0494  0.9687
15369TIP3    H267523   5.674   0.655   4.536  1.2251  0.5439 -0.2163
15370TIP3   OH267524   3.010   6.416  11.063  0.0102 -0.2254 -0.1572
15370TIP3    H167525   2.971   6.399  10.977 -2.2019  1.9241  0.3243
15370TIP3    H267526   2.939   6.401  11.125  1.1676 -0.3213  1.1925
15371TIP3   OH267527   5.753   2.620   2.572  0.6184 -0.2450  0.3772
15371TIP3    H167528   5.741   2.642   2.480  0.0411 -2.0861 -0.0428
15371TIP3    H267529   5.819   2.682   2.604  0.3158  0.8685 -1.0741
15372TIP3   OH267530   0.226   2.887   4.427  0.2601 -0.1185  0.0298
15372TIP3    H167531   0.231   2.868   4.333  0.6405  0.1707 -0.0093
15372TIP3    H267532   0.148   2.840   4.456  0.5644 -0.8306 -0.2825
15373TIP3   OH267533   5.096   5.221   5.862 -0.3232 -0.7547  0.6675
15373TIP3    H167534   5.028   5.266   5.912 -0.2687 -1.3372  1.2789
15373TIP3    H267535   5.060   5.135   5.843  0.2417 -1.0733  1.0051
15374TIP3   OH267536   0.684   0.644  14.958  0.3766 -0.1388  0.1875
15374TIP3    H167537   0.737   0.688  14.892 -1.0618 -0.7814 -1.4585
15374TIP3    H267538   0.747   0.610  15.021  1.7090  1.5710 -0.1579
15375TIP3   OH267539   3.324   6.182  15.630 -0.1968 -0.1269  0.8691
15375TIP3    H167540   3.241   6.229  15.632 -0.3234 -0.3043  0.1335
15375TIP3    H267541   3.305   6.097  15.668 -0.2611 -0.0369  1.0410
15376TIP3   OH267542   3.045   6.189  11.312 -0.1486  0.9392 -0.0366
15376TIP3    H167543   2.988   6.122  11.349  0.9549  0.3432  0.6709
15376TIP3    H267544   3.003   6.272  11.334 -0.2719  0.5446  1.3287
15377TIP3   OH267545   2.070   4.379  11.864  0.3703 -0.3920 -0.1159
15377TIP3    H167546   2.059   4.472  11.887  0.5417 -0.9830  2.7153
15377TIP3    H267547   2.086   4.380  11.770 -0.1291  2.4061 -0.2776
15378TIP3   OH267548   2.234   1.755   0.744  0.1907  0.2639 -0.0021
15378TIP3    H167549   2.188   1.677   0.713  0.7849 -1.1316  2.3451
15378TIP3    H267550   2.318   1.722   0.774  1.2893  2.1886 -0.8298
15379TIP3   OH267551   4.806   0.527  13.851 -0.5682 -0.4699  0.5045
15379TIP3    H167552   4.857   0.522  13.770  0.7067  0.9830  1.1694
15379TIP3    H267553   4.721   0.563  13.825 -0.2064 -0.1203 -0.1909
15380TIP3   OH267554   3.769   5.046  15.790  0.7386 -0.7135  0.1289
15380TIP3    H167555   3.679   5.025  15.817  0.0992  0.5083 -0.9642
15380TIP3    H267556   3.759   5.090  15.706  2.2210  1.1353  0.8681
15381TIP3   OH267557   1.883   1.475  12.214 -0.0678  0.0542  0.0285
15381TIP3    H167558   1.941   1.444  12.144  0.3912 -1.8588  1.1811
15381TIP3    H267559   1.810   1.412  12.214  0.1600 -0.2424  1.5155
15382TIP3   OH267560   5.396   1.897   2.517  0.4382 -0.1303  1.3324
15382TIP3    H167561   5.430   1.924   2.603  3.4598 -0.7325  0.4332
15382TIP3    H267562   5.367   1.807   2.530 -1.1791  0.4726  2.1825
15383TIP3   OH267563   5.692   5.598   3.899 -0.2987 -0.4074 -0.0139
15383TIP3    H167564   5.701   5.506   3.875 -0.9179 -0.7208  0.8791
15383TIP3    H267565   5.703   5.599   3.994  0.5326  0.5632 -0.1009
15384TIP3   OH267566   2.667   6.512  16.243 -0.1935  0.3296  0.2541
15384TIP3    H167567   2.628   6.553  16.166  0.8578  1.3955  0.2539
15384TIP3    H267568   2.639   6.566  16.317 -2.2109 -1.3888  0.8376
15385TIP3   OH267569   1.584   6.579   0.975  0.4431 -0.2070 -0.6651
15385TIP3    H167570   1.524   6.558   0.904  0.9640  1.7781 -1.7459
15385TIP3    H267571   1.536   6.640   1.030 -0.3296 -2.4640  1.3471
15386TIP3   OH267572   5.845   4.165  13.227  0.0959 -0.0819  0.5308
15386TIP3    H167573   5.850   4.258  13.208 -0.5558 -0.3823 -1.2718
15386TIP3    H267574   5.925   4.145  13.276  1.2969  0.9937 -0.9450
15387TIP3   OH267575   5.143   5.896  12.201  0.0015 -0.3712 -0.7921
15387TIP3    H167576   5.076   5.957  12.170  0.6777  0.1075 -1.3681
15387TIP3    H267577   5.107   5.858  12.281 -0.3823  0.9067 -0.3284
15388TIP3   OH267578   6.448   6.532   2.282 -0.1462 -0.2283  0.6092
15388TIP3    H167579   6.368   6.509   2.330 -0.6906  0.4250  0.0434
15388TIP3    H267580   6.452   6.628   2.288 -0.9781  0.0266 -1.7738
15389TIP3   OH267581   4.066   0.568   0.771  0.3436  0.1420  0.3480
15389TIP3    H167582   3.979   0.531   0.783 -0.3433  1.5700 -0.0640
15389TIP3    H267583   4.125   0.492   0.773 -0.8645 -0.8056  0.9253
15390TIP3   OH267584   6.095   0.243  13.241 -0.3661  0.2961  0.1860
15390TIP3    H167585   6.043   0.301  13.186 -0.5576 -0.9650 -1.0053
15390TIP3    H267586   6.034   0.214  13.309  0.1437  2.6920  1.8266
15391TIP3   OH267587   3.978   1.227  12.637 -0.2725  0.2234 -0.2468
15391TIP3    H167588   3.981   1.267  12.724  0.8234  0.5151 -0.4032
15391TIP3    H267589   4.013   1.139  12.650 -0.2916  0.1982 -0.3661
15392TIP3   OH267590   3.507   6.199  13.507 -0.5215 -0.4722 -0.6586
15392TIP3    H167591   3.571   6.165  13.445 -0.4753 -0.1918 -0.7647
15392TIP3    H267592   3.493   6.127  13.569  1.9898  0.3506  1.0314
15393TIP3   OH267593   0.708   6.084   3.145 -0.3305  0.0828  0.3132
15393TIP3    H167594   0.778   6.141   3.114 -1.0079  0.8879  0.2543
15393TIP3    H267595   0.740   6.051   3.229 -0.5888  1.7793  1.1008
15394TIP3   OH267596   0.223   2.196   4.476  0.2884  0.1634  0.7099
15394TIP3    H167597   0.292   2.254   4.443  0.2941  0.0925  0.5963
15394TIP3    H267598   0.232   2.199   4.571  0.4008  0.2120  0.6975
15395TIP3   OH267599   3.579   3.871   2.849  0.2059 -0.2516 -0.0389
15395TIP3    H167600   3.655   3.835   2.895  1.4215  1.0536 -0.9356
15395TIP3    H267601   3.597   3.852   2.757 -0.0817  0.9041 -0.3428
15396TIP3   OH267602   5.912   4.578  12.165 -0.0932 -0.1293 -0.1081
15396TIP3    H167603   5.925   4.672  12.153 -2.7668  0.1857 -1.4242
15396TIP3    H267604   5.946   4.538  12.085 -1.2968  0.0505 -0.7425
15397TIP3   OH267605   3.108   6.526   3.499  0.8091  0.8335  0.7605
15397TIP3    H167606   3.133   6.612   3.466 -0.5035  1.1787  0.6003
15397TIP3    H267607   3.013   6.522   3.487  0.7998 -0.5128  1.0647
15398TIP3   OH267608   6.764   5.048   2.205 -0.4075 -0.3231 -0.1226
15398TIP3    H167609   6.792   5.000   2.127  2.4861  0.6256  0.2237
15398TIP3    H267610   6.771   5.140   2.180 -0.7182 -0.0203  0.8529
15399TIP3   OH267611   5.465   0.561   0.109  0.4087 -0.7232 -0.5118
15399TIP3    H167612   5.499   0.477   0.141  0.8292  0.3769  2.1228
15399TIP3    H267613   5.370   0.549   0.108  0.3801 -0.8624  1.1409
15400TIP3   OH267614   2.219   2.217   3.738  0.0453  0.1919 -0.0440
15400TIP3    H167615   2.180   2.199   3.652  0.7161  0.7064 -0.4655
15400TIP3    H267616   2.165   2.168   3.799 -0.4235 -0.2137 -0.7648
15401TIP3   OH267617   1.566   0.612   5.656 -0.3367 -0.1234  0.3278
15401TIP3    H167618   1.546   0.610   5.749 -1.4616  0.3879  0.1141
15401TIP3    H267619   1.634   0.679   5.647 -1.4671  1.0737  0.5647
15402TIP3   OH267620   5.147   0.486   6.599  0.6999  0.4702 -0.4805
15402TIP3    H167621   5.192   0.563   6.565 -0.7068  1.7950  0.4915
15402TIP3    H267622   5.216   0.433   6.638  1.4621  2.7075  1.5193
15403TIP3   OH267623   0.515   6.691  11.456  0.5718  0.0003  0.7235
15403TIP3    H167624   0.566   6.771  11.464  0.5465  0.0368  0.5243
15403TIP3    H267625   0.553   6.646  11.379 -0.9011  0.9173 -0.6002
15404TIP3   OH267626   3.527   3.064   1.015  0.0544  0.0374  0.3325
15404TIP3    H167627   3.604   3.066   1.071  1.1845  1.4195 -1.1611
15404TIP3    H267628   3.475   3.140   1.042 -0.5148 -0.5651  0.9568
15405TIP3   OH267629   6.254   0.108  12.889 -0.4703 -0.7032  0.3001
15405TIP3    H167630   6.160   0.087  12.895 -0.7684  0.6902  1.2614
15405TIP3    H267631   6.298   0.031  12.924 -1.3523 -0.7592  1.3677
15406TIP3   OH267632   0.104   3.507   2.572 -0.2819  0.0780  0.0671
15406TIP3    H167633   0.185   3.458   2.558  1.1493  2.0454  0.9873
15406TIP3    H267634   0.035   3.441   2.564  1.4530 -1.9081  0.3909
15407TIP3   OH267635   0.623   3.528   3.700  0.5076 -0.8126  0.2472
15407TIP3    H167636   0.535   3.565   3.713  0.9439  0.5147 -0.3724
15407TIP3    H267637   0.682   3.594   3.738  1.3622 -0.3922 -1.6891
15408TIP3   OH267638   4.311   1.796   3.592  0.3938  0.3782 -0.5016
15408TIP3    H167639   4.267   1.785   3.508 -0.8755  0.0255  0.1822
15408TIP3    H267640   4.270   1.873   3.631  0.9557  0.5275 -0.1945
15409TIP3   OH267641   0.322   0.397  13.274 -0.2198  0.2261  0.0787
15409TIP3    H167642   0.259   0.382  13.204 -0.0294  1.3039 -0.3420
15409TIP3    H267643   0.329   0.313  13.318 -2.3574  0.2183  0.4912
15410TIP3   OH267644   3.584   2.123   4.742  0.0979  0.3496 -0.4896
15410TIP3    H167645   3.678   2.130   4.754 -0.1479 -0.3081  2.8179
15410TIP3    H267646   3.572   2.051   4.680  1.7833 -1.5988  1.3157
15411TIP3   OH267647   4.415   0.926   5.921  0.0977  0.3890 -0.2017
15411TIP3    H167648   4.429   0.843   5.966  0.9654  0.7374  0.1896
15411TIP3    H267649   4.372   0.982   5.986  0.0170  0.4273 -0.2874
15412TIP3   OH267650   2.493   6.282  13.694  0.1862 -0.3402 -0.3862
15412TIP3    H167651   2.537   6.253  13.774 -0.3023 -2.7275 -0.9028
15412TIP3    H267652   2.432   6.351  13.723  1.1102 -0.0663  1.0116
15413TIP3   OH267653   0.798   1.146   3.128  0.2719  0.8453  0.2780
15413TIP3    H167654   0.887   1.175   3.147  0.8375 -0.2363 -0.6142
15413TIP3    H267655   0.746   1.182   3.200  1.9347 -1.1656  2.6674
15414TIP3   OH267656   0.900   5.988  13.356 -0.2792  0.2279  0.4034
15414TIP3    H167657   0.918   5.925  13.286 -0.5965  0.7062 -0.1203
15414TIP3    H267658   0.977   6.045  13.358 -0.2478  0.1832  0.4786
15415TIP3   OH267659   0.783   3.153   3.153  0.5489 -0.3422  0.2054
15415TIP3    H167660   0.735   3.235   3.145  1.4250  0.2522  0.8757
15415TIP3    H267661   0.768   3.124   3.243  2.9614  0.8619  1.0676
15416TIP3   OH267662   5.374   5.556  16.297  0.0752  0.5037 -0.1714
15416TIP3    H167663   5.445   5.510  16.253 -0.2611  0.5777 -0.8120
15416TIP3    H267664   5.298   5.541  16.241 -0.3666  0.5894  0.4019
15417TIP3   OH267665   1.177   1.074  10.629  0.3603 -0.1683 -0.0057
15417TIP3    H167666   1.225   1.074  10.546  1.4786  0.2157  0.6225
15417TIP3    H267667   1.141   0.985  10.635  1.1032 -0.5046 -0.4242
15418TIP3   OH267668   2.755   3.722  11.736  0.0414 -0.6926  0.0726
15418TIP3    H167669   2.685   3.737  11.672  0.4004 -0.4539 -0.2669
15418TIP3    H267670   2.826   3.682  11.685  0.9067  0.8441  0.0036
15419TIP3   OH267671   3.194   0.056  11.478 -0.2374  0.6174 -0.0358
15419TIP3    H167672   3.118   0.084  11.428 -0.7334 -0.7043 -0.0535
15419TIP3    H267673   3.259   0.125  11.464 -1.1920  1.4234 -0.5668
15420TIP3   OH267674   4.842   5.978  15.983 -0.1379  0.3974 -0.6252
15420TIP3    H167675   4.897   5.959  16.059  0.4043  0.0458 -1.1060
15420TIP3    H267676   4.902   5.980  15.909 -0.6431  0.8978 -1.0307
15421TIP3   OH267677   6.408   6.614  14.942 -0.9961  0.1042  0.1200
15421TIP3    H167678   6.403   6.709  14.948  0.2588  0.0831  2.9964
15421TIP3    H267679   6.317   6.585  14.942 -1.3864  1.2471 -0.5683
15422TIP3   OH267680   4.913   0.430   5.229  0.3254 -0.4043  0.2492
15422TIP3    H167681   5.005   0.447   5.248  0.6985 -2.0084  0.0524
15422TIP3    H267682   4.912   0.404   5.137 -0.0460 -1.9933  0.6678
15423TIP3   OH267683   5.435   0.273  12.548  0.3012  0.0638  0.8546
15423TIP3    H167684   5.399   0.204  12.603  0.4524  0.3888  1.3737
15423TIP3    H267685   5.529   0.255  12.545  0.1139 -0.8353 -0.5709
15424TIP3   OH267686   4.260   0.154  12.908  0.0953  0.2745  0.3149
15424TIP3    H167687   4.192   0.094  12.939  0.9940 -1.5382 -1.0415
15424TIP3    H267688   4.295   0.111  12.830  1.9000  1.8044  0.2366
15425TIP3   OH267689   2.725   6.193   4.799 -0.1470 -0.2778 -0.0749
15425TIP3    H167690   2.651   6.152   4.843  1.1449 -1.1640  1.3750
15425TIP3    H267691   2.775   6.234   4.870  1.5305 -0.9905 -0.7817
15426TIP3   OH267692   5.680   2.454  16.419  0.3824  0.5968 -0.3215
15426TIP3    H167693   5.671   2.476  16.512 -3.7246  0.6747 -0.5671
15426TIP3    H267694   5.717   2.366  16.419  0.3409  0.5425  1.3583
15427TIP3   OH267695   5.255   2.760  13.966 -0.0128  0.3330 -0.0640
15427TIP3    H167696   5.272   2.841  13.917  1.3119  0.5837  0.7346
15427TIP3    H267697   5.209   2.789  14.045 -1.8739 -0.0353 -0.9606
15428TIP3   OH267698   6.065   5.187   6.116  0.1669 -0.1221  1.0687
15428TIP3    H167699   6.152   5.223   6.135  0.8409 -1.5848  0.8755
15428TIP3    H267700   6.043   5.134   6.193 -0.9624  0.9341  1.5018
15429TIP3   OH267701   4.475   0.068   1.011  0.5843 -0.4401 -0.2618
15429TIP3    H167702   4.429  -0.014   1.027  0.5562 -0.2952  0.4156
15429TIP3    H267703   4.482   0.073   0.916 -0.3592 -0.7089 -0.3604
15430TIP3   OH267704   0.681   4.777   6.598  0.5007  0.0712  0.4916
15430TIP3    H167705   0.589   4.755   6.610  0.5820 -0.6593 -0.1480
15430TIP3    H267706   0.682   4.872   6.587  0.0488  0.3515  2.4531
15431TIP3   OH267707   5.166   3.534  15.935  0.6519 -0.2731  0.9037
15431TIP3    H167708   5.156   3.625  15.907  2.2197 -0.3407  0.0286
15431TIP3    H267709   5.190   3.540  16.028 -2.5718  0.0244  1.8172
15432TIP3   OH267710   4.238   2.894  14.754 -0.2379  0.6550  0.1390
15432TIP3    H167711   4.185   2.960  14.799 -1.2156  1.0072 -1.4495
15432TIP3    H267712   4.218   2.907  14.661  0.9832 -0.6667 -0.3363
15433TIP3   OH267713   4.226   5.304   2.495 -0.0467  0.2311  0.3409
15433TIP3    H167714   4.197   5.231   2.549 -2.2611 -1.3292 -2.6815
15433TIP3    H267715   4.321   5.302   2.501 -0.0351 -2.8059  0.5418
15434TIP3   OH267716   2.934   2.171  14.845 -0.3969 -0.2915 -0.1345
15434TIP3    H167717   2.979   2.135  14.768 -1.4674  0.9834 -1.4104
15434TIP3    H267718   2.989   2.145  14.919  1.8698  0.2932 -1.5145
15435TIP3   OH267719   4.876   2.348  15.126 -0.7200  0.2832  0.3842
15435TIP3    H167720   4.843   2.258  15.122  0.0482 -0.0451  1.0918
15435TIP3    H267721   4.831   2.393  15.055 -1.7894 -0.4380  0.5796
15436TIP3   OH267722   5.097   3.098   4.663  0.3496 -0.6200  0.4851
15436TIP3    H167723   5.122   3.032   4.727  1.2459  0.4579  1.2800
15436TIP3    H267724   5.023   3.144   4.703  0.0945 -0.7627  0.1838
15437TIP3   OH267725   6.631   6.228  16.121  1.0356  0.2355 -0.3208
15437TIP3    H167726   6.712   6.278  16.111  0.9845  0.4871  0.4138
15437TIP3    H267727   6.620   6.182  16.038 -0.6892  4.0134 -2.4384
15438TIP3   OH267728   0.798   0.545  13.387  0.6409  0.4370 -0.1321
15438TIP3    H167729   0.801   0.537  13.482  0.6560 -0.8879 -0.2355
15438TIP3    H267730   0.739   0.619  13.371 -1.1680 -0.7182  0.8701
15439TIP3   OH267731   4.842   6.721  12.939  0.4806 -0.1540 -0.5931
15439TIP3    H167732   4.829   6.704  13.032 -1.9834  4.5778  0.2857
15439TIP3    H267733   4.876   6.811  12.936  1.0662 -0.3391 -4.2776
15440TIP3   OH267734   1.141   1.145   2.447  0.2095 -0.1739 -0.8700
15440TIP3    H167735   1.176   1.228   2.479  0.6811 -0.7534  0.1739
15440TIP3    H267736   1.052   1.166   2.417  0.5384  0.8148 -1.1862
15441TIP3   OH267737   3.610   5.987  15.659  0.9370 -0.1247  0.1911
15441TIP3    H167738   3.686   6.032  15.622 -0.1640  1.0532 -0.7462
15441TIP3    H267739   3.605   6.018  15.749  0.4217  1.4130 -0.3290
15442TIP3   OH267740   3.970   3.948   4.142 -0.5570 -0.9301 -0.0745
15442TIP3    H167741   3.883   3.966   4.107 -0.3365  1.4863  0.4230
15442TIP3    H267742   3.954   3.922   4.233 -0.8485 -2.5002 -0.5563
15443TIP3   OH267743   5.482   2.219  12.867  1.0282  0.2380 -0.6363
15443TIP3    H167744   5.461   2.308  12.894  1.2395  0.5423 -1.4360
15443TIP3    H267745   5.475   2.221  12.772  2.2842 -0.2703 -0.7547
15444TIP3   OH267746   6.171   5.315  14.281  0.2999 -0.0460 -0.1798
15444TIP3    H167747   6.105   5.275  14.224  0.3929  0.2464 -0.4936
15444TIP3    H267748   6.204   5.242  14.335 -1.3914  0.0555  1.0923
15445TIP3   OH267749   0.010   3.778  14.819 -0.2923  0.5796 -0.1733
15445TIP3    H167750   0.082   3.739  14.768 -0.3187  0.0076  0.2159
15445TIP3    H267751  -0.066   3.723  14.798 -0.0077 -0.5263  1.5257
15446TIP3   OH267752   4.349   1.902   1.219 -0.4467 -0.0548 -0.3202
15446TIP3    H167753   4.365   1.922   1.127 -0.5235  2.2646  0.0953
15446TIP3    H267754   4.258   1.929   1.234 -0.9332 -1.7948  0.1391
15447TIP3   OH267755   6.174   5.963   5.555  0.0610 -0.6252  0.1037
15447TIP3    H167756   6.133   5.985   5.472  0.0597  4.0796  1.0924
15447TIP3    H267757   6.114   5.900   5.596 -2.5213  0.6631 -1.4472
15448TIP3   OH267758   3.339   1.346   1.195 -0.9347  0.0422 -1.0776
15448TIP3    H167759   3.250   1.381   1.199 -0.2376  1.8246  0.2322
15448TIP3    H267760   3.395   1.424   1.190  0.6230 -0.9466  0.0889
15449TIP3   OH267761   1.283   0.924  14.143  0.3534  0.0422 -1.0152
15449TIP3    H167762   1.354   0.923  14.079 -1.5038  1.6060 -3.2878
15449TIP3    H267763   1.267   0.832  14.163  1.3598 -0.4703 -2.3962
15450TIP3   OH267764   1.353   6.617  12.561  0.0258 -0.0049  0.6526
15450TIP3    H167765   1.286   6.681  12.539 -0.2447  0.4522  2.6359
15450TIP3    H267766   1.379   6.639  12.651  1.0431 -1.7066  0.8175
15451TIP3   OH267767   5.787   6.020   5.951  0.6263 -1.0214  0.0229
15451TIP3    H167768   5.755   6.082   6.017 -1.2721  0.8898 -2.5010
15451TIP3    H267769   5.877   6.047   5.934  1.2114 -1.6651  1.8741
15452TIP3   OH267770   1.158   4.948  11.923 -0.2363 -0.8409 -1.1100
15452TIP3    H167771   1.178   4.861  11.956  1.1288 -0.3775 -0.6598
15452TIP3    H267772   1.147   5.002  12.001 -0.5419 -0.4927 -1.3887
15453TIP3   OH267773   0.056   0.570  17.119  0.0135  0.3394 -0.4483
15453TIP3    H167774  -0.039   0.572  17.120 -0.0843 -1.3123  1.7732
15453TIP3    H267775   0.081   0.611  17.036 -2.4340  4.9042  0.7347
15454TIP3   OH267776   0.332   6.247   5.643  0.3560 -0.0005 -0.2684
15454TIP3    H167777   0.294   6.189   5.708 -0.1928  0.4299 -0.2005
15454TIP3    H267778   0.425   6.224   5.642 -0.0747 -1.8794 -1.2934
15455TIP3   OH267779   2.374   0.700   1.913  0.4309  0.0277 -0.0372
15455TIP3    H167780   2.352   0.739   1.997  1.9200 -0.3779  0.5686
15455TIP3    H267781   2.395   0.775   1.857  0.9172  0.2366  0.4107
15456TIP3   OH267782   0.647   6.033  13.783  0.3306  0.6181 -0.2203
15456TIP3    H167783   0.724   6.046  13.838  0.8637  0.2292 -0.8673
15456TIP3    H267784   0.600   6.116  13.787  1.1537  1.0956 -0.4045
15457TIP3   OH267785   4.378   4.638   2.275 -0.1310  0.0536  0.0476
15457TIP3    H167786   4.425   4.721   2.267 -0.3221  0.1344 -0.3053
15457TIP3    H267787   4.305   4.647   2.213  0.1365 -0.5783 -0.3659
15458TIP3   OH267788   3.891   0.226  15.991 -0.1140  0.4204 -0.0727
15458TIP3    H167789   3.889   0.290  16.062 -0.5118  0.4389 -0.0995
15458TIP3    H267790   3.984   0.215  15.972  0.1541 -1.1897  1.8880
15459TIP3   OH267791   0.904   3.216  11.049  0.2663 -0.0313 -0.5334
15459TIP3    H167792   0.961   3.273  11.100 -0.6765 -0.4510  1.0586
15459TIP3    H267793   0.946   3.209  10.963  0.7216  2.5377 -0.5762
15460TIP3   OH267794   1.659   5.528   1.814 -0.2317  0.3684  0.4175
15460TIP3    H167795   1.732   5.586   1.836 -0.0268 -0.2798  1.5920
15460TIP3    H267796   1.701   5.443   1.797 -0.6128  0.2970 -0.2039
15461TIP3   OH267797   6.294   4.852   2.368  0.1453  0.5019  0.3648
15461TIP3    H167798   6.293   4.939   2.407 -1.3633  0.0637  1.4135
15461TIP3    H267799   6.295   4.792   2.443 -2.4198 -0.3700 -0.1813
15462TIP3   OH267800   1.306   4.631   3.268 -0.2772  0.2765 -0.2502
15462TIP3    H167801   1.335   4.597   3.353 -1.3884 -1.6364 -0.5824
15462TIP3    H267802   1.387   4.639   3.217  0.3713  1.1599  0.8489
15463TIP3   OH267803   1.878   1.083   6.361 -0.1651 -0.1227  0.8365
15463TIP3    H167804   1.923   1.162   6.329 -0.3509  0.5299  2.1139
15463TIP3    H267805   1.935   1.051   6.431  0.5019 -1.8242 -0.4173
15464TIP3   OH267806   4.914   2.069   1.539 -0.1501  0.2094  0.3119
15464TIP3    H167807   5.009   2.074   1.552  0.0034 -3.2733  1.5844
15464TIP3    H267808   4.902   1.997   1.478 -1.9975  0.2454  0.5795
15465TIP3   OH267809   5.753   3.707  12.970 -0.0480 -0.0470 -0.1365
15465TIP3    H167810   5.781   3.757  12.893 -0.8205  1.0109  0.2418
15465TIP3    H267811   5.726   3.622  12.935 -0.9568  0.6208 -1.1462
15466TIP3   OH267812   5.465   0.124  12.158 -0.1142 -0.3006  0.1952
15466TIP3    H167813   5.373   0.099  12.162 -0.0198 -0.4720  1.7577
15466TIP3    H267814   5.487   0.152  12.247  0.8085  1.7200 -0.5815
15467TIP3   OH267815   3.673   4.958   0.028  0.3624 -0.2960 -0.3981
15467TIP3    H167816   3.589   4.925   0.060 -0.3062 -0.5032 -2.2270
15467TIP3    H267817   3.716   4.993   0.106 -2.6855  2.6102  0.2488
15468TIP3   OH267818   3.290   1.527  15.077  0.2838 -0.0606 -0.5422
15468TIP3    H167819   3.342   1.511  15.157 -0.6725 -1.0896 -0.1030
15468TIP3    H267820   3.304   1.620  15.058  0.0690  0.3625  1.1719
15469TIP3   OH267821   3.234   1.269   1.873  0.2937  0.6972  0.1947
15469TIP3    H167822   3.296   1.240   1.806  2.0964 -2.0242  2.7263
15469TIP3    H267823   3.248   1.208   1.945 -3.3951  1.7816  2.0664
15470TIP3   OH267824   4.210   3.893  12.649  0.0855  0.1325 -0.4354
15470TIP3    H167825   4.169   3.857  12.728  0.9911 -1.1335 -0.5149
15470TIP3    H267826   4.233   3.983  12.672 -0.7965  0.1803  0.3073
15471TIP3   OH267827   2.875   3.132   1.298  0.2697 -0.0363  0.1052
15471TIP3    H167828   2.904   3.042   1.286  0.0381 -0.0002 -0.8029
15471TIP3    H267829   2.872   3.169   1.209 -0.1374  0.7061  0.4138
15472TIP3   OH267830   5.134   1.088  15.471  0.0923 -0.3656  0.4632
15472TIP3    H167831   5.043   1.066  15.450  0.0451 -0.9809  1.2886
15472TIP3    H267832   5.161   1.023  15.536  0.6672  0.6604  1.2910
15473TIP3   OH267833   0.081   2.994   3.992  0.5273 -0.0016  0.0892
15473TIP3    H167834   0.019   3.065   4.012 -1.4068 -1.6484  0.3787
15473TIP3    H267835   0.146   3.034   3.935  0.4162  2.3656  1.4670
15474TIP3   OH267836   1.824   5.184  16.306 -0.0831  0.4278 -0.2182
15474TIP3    H167837   1.751   5.123  16.297 -0.7575  1.2172 -0.1798
15474TIP3    H267838   1.892   5.147  16.250 -1.2692  0.8089 -1.9951
15475TIP3   OH267839   4.800   4.276  12.022  0.4194  0.6845  0.2606
15475TIP3    H167840   4.811   4.355  12.074  1.8286 -0.5037  1.8446
15475TIP3    H267841   4.814   4.204  12.083 -1.1157 -0.8453 -1.0599
15476TIP3   OH267842   0.326   1.148   4.885  0.7650 -0.1134  0.6710
15476TIP3    H167843   0.257   1.169   4.948  0.5566  0.4948  0.2460
15476TIP3    H267844   0.382   1.226   4.883 -0.5867  0.8830 -1.6743
15477TIP3   OH267845   5.873   3.070   0.949  0.0080 -0.1981 -0.1637
15477TIP3    H167846   5.933   3.110   0.887  0.4390  0.4602  0.6497
15477TIP3    H267847   5.794   3.053   0.898  0.0605  1.0554 -0.7219
15478TIP3   OH267848   6.557   6.754  12.804  0.0587  0.3025  0.5497
15478TIP3    H167849   6.532   6.662  12.801 -0.5410  0.4769 -0.3277
15478TIP3    H267850   6.619   6.760  12.876 -0.3453 -0.6756  0.9936
15479TIP3   OH267851   5.165   1.768   2.723  0.2180 -0.0375 -0.2860
15479TIP3    H167852   5.207   1.809   2.799  1.3627 -0.1316 -0.8555
15479TIP3    H267853   5.116   1.839   2.682  0.7855  0.3589 -0.2882
15480TIP3   OH267854   3.478   0.990  16.390  0.0211 -0.5693 -0.4147
15480TIP3    H167855   3.448   1.068  16.344  0.5727 -0.8898 -1.3437
15480TIP3    H267856   3.471   0.920  16.325 -0.2727 -1.2542  0.3464
15481TIP3   OH267857   3.991   0.496  14.025 -0.4389  0.0440  0.0836
15481TIP3    H167858   3.981   0.556  13.952 -0.3333  1.1313  0.9385
15481TIP3    H267859   3.913   0.509  14.078 -0.0697 -0.0308  0.6590
15482TIP3   OH267860   6.282   6.205  15.243 -0.0046 -0.1051 -0.4379
15482TIP3    H167861   6.375   6.183  15.248  0.1274  0.0334 -1.8888
15482TIP3    H267862   6.248   6.148  15.174 -1.0978 -0.4372  0.3428
15483TIP3   OH267863   1.549   5.471   2.860 -0.5860  0.0207  0.4748
15483TIP3    H167864   1.615   5.503   2.921  0.2116 -1.5863  0.5016
15483TIP3    H267865   1.479   5.437   2.916 -1.4025  1.5483  0.4460
15484TIP3   OH267866   3.490   2.385   4.043  0.1421 -0.3022  0.5512
15484TIP3    H167867   3.571   2.432   4.059  0.6600 -0.9065 -0.2373
15484TIP3    H267868   3.503   2.341   3.959 -1.0817 -0.2302  0.2987
15485TIP3   OH267869   4.381   1.075  14.351 -0.2768 -0.5138 -0.0197
15485TIP3    H167870   4.313   1.010  14.374 -0.7057 -0.0340  0.0881
15485TIP3    H267871   4.333   1.158  14.346  0.3298 -0.1528  0.1633
15486TIP3   OH267872   1.303   4.346  11.010 -0.8207  0.4102  0.7258
15486TIP3    H167873   1.218   4.351  10.968 -0.4550  0.2108 -0.0556
15486TIP3    H267874   1.346   4.429  10.990 -0.3637  0.0246  0.0717
15487TIP3   OH267875   6.395   1.823   3.662 -0.1921 -0.1386 -0.1198
15487TIP3    H167876   6.383   1.742   3.612  0.9885 -0.5127  0.1748
15487TIP3    H267877   6.329   1.883   3.627 -0.0339 -0.7084 -1.4329
15488TIP3   OH267878   4.428   3.187   1.798 -0.0660 -0.0538 -0.3817
15488TIP3    H167879   4.516   3.167   1.764  0.2984  0.6777  0.1159
15488TIP3    H267880   4.371   3.124   1.753  0.4474  0.6122 -2.0654
15489TIP3   OH267881   6.405   3.251   6.180  0.2883  0.3210 -0.2542
15489TIP3    H167882   6.343   3.229   6.110  2.3588 -1.7535 -1.6086
15489TIP3    H267883   6.359   3.313   6.235 -1.8726  1.2018 -2.8588
15490TIP3   OH267884   0.463   5.102   1.752  0.4387  0.0166  0.1474
15490TIP3    H167885   0.444   5.038   1.683  0.9951 -0.8436  0.7701
15490TIP3    H267886   0.444   5.187   1.712  0.1496 -0.5058 -0.8569
15491TIP3   OH267887   3.694   6.088  12.497 -0.1257 -0.6990 -0.0522
15491TIP3    H167888   3.600   6.092  12.482 -0.1386 -0.4494  0.0854
15491TIP3    H267889   3.703   6.049  12.583 -0.1306 -0.1188  0.2201
15492TIP3   OH267890   4.782   4.433   0.842  0.6323 -0.2312  0.1475
15492TIP3    H167891   4.818   4.372   0.778  0.6086  0.4946 -0.5715
15492TIP3    H267892   4.813   4.400   0.927  1.6159 -0.5438 -0.3271
15493TIP3   OH267893   4.493   3.785  15.463  0.9128  0.0328 -0.3129
15493TIP3    H167894   4.434   3.710  15.451 -0.4449  1.2707 -1.6990
15493TIP3    H267895   4.551   3.782  15.387  0.7554  0.4657 -0.4504
15494TIP3   OH267896   1.718   6.382  16.771  0.2702 -0.2279  0.4327
15494TIP3    H167897   1.645   6.390  16.710 -0.1669  2.0826  1.1608
15494TIP3    H267898   1.677   6.384  16.858  0.9982 -1.9283  0.8507
15495TIP3   OH267899   6.401   2.378  12.817  0.3682  0.3440  0.5106
15495TIP3    H167900   6.450   2.386  12.898 -0.4212  0.2787  1.0017
15495TIP3    H267901   6.391   2.468  12.786  1.4204  0.3038  0.0210
15496TIP3   OH267902   6.292   1.979  11.910 -0.1791 -0.0897  0.1188
15496TIP3    H167903   6.384   2.004  11.918 -0.5448  1.5309 -0.3523
15496TIP3    H267904   6.279   1.911  11.976  1.0886  0.4048  0.9035
15497TIP3   OH267905   3.374   3.398  10.868  0.6001 -0.6362 -0.3685
15497TIP3    H167906   3.459   3.356  10.851  0.9192  0.2456 -0.9871
15497TIP3    H267907   3.346   3.432  10.783 -0.3224 -0.8005 -0.1413
15498TIP3   OH267908   0.599   5.398  16.731 -0.0517 -0.0707 -0.2389
15498TIP3    H167909   0.557   5.415  16.646  1.2450 -1.6499 -1.2649
15498TIP3    H267910   0.691   5.422  16.717  0.3035 -0.9230  0.5147
15499TIP3   OH267911   4.395   4.019   0.580  0.4613  0.3858  0.1969
15499TIP3    H167912   4.449   3.951   0.621  0.1448  0.4967  0.8232
15499TIP3    H267913   4.308   3.979   0.574  0.3403  0.6315  0.3028
15500TIP3   OH267914   0.252   0.702  12.942 -0.0097  1.0071  0.1090
15500TIP3    H167915   0.206   0.713  13.025 -1.0387 -2.3792  0.1128
15500TIP3    H267916   0.186   0.723  12.875 -0.4500 -0.1161  0.1634
15501TIP3   OH267917   2.504   0.708  10.926 -0.4041 -0.5489 -0.1509
15501TIP3    H167918   2.423   0.756  10.945 -0.8281 -1.2387 -0.1775
15501TIP3    H267919   2.568   0.746  10.985 -0.9384 -0.5158  0.4243
15502TIP3   OH267920   3.341   2.189  15.675  0.3035  0.5226  0.7063
15502TIP3    H167921   3.412   2.125  15.677  0.5718  0.8299  1.6309
15502TIP3    H267922   3.335   2.222  15.765 -1.9073 -0.4410  0.9703
15503TIP3   OH267923   4.267   0.551  11.010  0.1451  0.3740  0.8315
15503TIP3    H167924   4.246   0.567  11.102 -0.2693  1.6988  0.5349
15503TIP3    H267925   4.275   0.639  10.972  0.1021 -0.1554 -0.4447
15504TIP3   OH267926   2.216   4.901   4.038  0.5236 -0.2204  0.0548
15504TIP3    H167927   2.180   4.813   4.045  1.4657 -0.6796 -0.6291
15504TIP3    H267928   2.292   4.892   3.981  2.0995  0.6028  1.9023
15505TIP3   OH267929   4.661   4.690  13.019 -0.6790 -0.6235  0.4620
15505TIP3    H167930   4.610   4.764  12.986  0.6526  0.3757  0.5360
15505TIP3    H267931   4.732   4.730  13.069  0.6074 -1.8918 -0.2525
15506TIP3   OH267932   5.948   2.390  14.024 -0.0886  0.8212  0.0506
15506TIP3    H167933   5.912   2.304  14.050 -0.7597  1.0737 -0.0112
15506TIP3    H267934   5.956   2.384  13.929 -0.4782  0.9495  0.0074
15507TIP3   OH267935   0.103   4.720  13.730  0.0035  0.0011  0.2614
15507TIP3    H167936   0.106   4.759  13.817 -0.0077  0.0014  0.2612
15507TIP3    H267937   0.015   4.741  13.697  0.7095  1.8388 -0.5912
15508TIP3   OH267938   6.616   4.473  16.754 -0.1484  0.2103  0.0475
15508TIP3    H167939   6.550   4.441  16.815  0.2875  0.6482  0.7669
15508TIP3    H267940   6.671   4.397  16.737 -1.0084 -0.2440 -0.8128
15509TIP3   OH267941   4.499   2.729   2.125 -0.5143  0.0564  0.6659
15509TIP3    H167942   4.542   2.698   2.205  2.7586  1.8227 -0.2206
15509TIP3    H267943   4.463   2.814   2.148 -2.1540 -0.6598  0.9232
15510TIP3   OH267944   6.729   2.144  13.199  0.3662  0.1654 -0.5937
15510TIP3    H167945   6.773   2.067  13.161 -0.7930 -1.2287  0.7349
15510TIP3    H267946   6.659   2.164  13.137  1.6972  1.2661 -1.8044
15511TIP3   OH267947   5.476   4.893  17.068 -0.8037  0.8440  0.2617
15511TIP3    H167948   5.545   4.926  17.125 -1.7928  3.5847  0.0019
15511TIP3    H267949   5.421   4.838  17.125  0.5468  0.0806  0.8742
15512TIP3   OH267950   3.599   5.969  16.609 -0.2946 -0.3428 -0.6986
15512TIP3    H167951   3.578   6.016  16.690 -1.4596 -0.2567 -1.0340
15512TIP3    H267952   3.590   6.034  16.540  1.2105 -0.2862 -0.8705
15513TIP3   OH267953   0.662   6.502   3.710  0.1902 -0.6486 -0.1934
15513TIP3    H167954   0.718   6.447   3.654  0.2369 -1.1587  0.3485
15513TIP3    H267955   0.597   6.537   3.650  1.6392  0.7388 -1.0374
15514TIP3   OH267956   3.392   3.097   0.232 -0.2443  0.4688 -0.1286
15514TIP3    H167957   3.300   3.105   0.258  0.2516 -0.6965  2.3302
15514TIP3    H267958   3.390   3.043   0.153 -1.6138 -1.2192  0.9762
15515TIP3   OH267959   6.680   4.481   1.841 -0.6146 -0.0490  0.1600
15515TIP3    H167960   6.647   4.553   1.895 -0.0923 -0.1653  0.6479
15515TIP3    H267961   6.614   4.412   1.849  0.1393 -0.6250  1.8570
15516TIP3   OH267962   6.641   6.595   2.749  0.0579 -0.3984  0.1474
15516TIP3    H167963   6.569   6.658   2.746 -0.0698 -0.4291  1.7563
15516TIP3    H267964   6.680   6.600   2.662 -1.0200  0.6374 -0.3111
15517TIP3   OH267965   5.394   3.626  14.461 -0.1676 -0.1715  0.0204
15517TIP3    H167966   5.460   3.679  14.507 -0.0980 -0.9132  0.7884
15517TIP3    H267967   5.366   3.682  14.389  2.6577 -0.5423 -1.5104
15518TIP3   OH267968   4.439   2.899   3.454 -0.4854  0.2233  0.0574
15518TIP3    H167969   4.508   2.953   3.413 -0.9099  0.7060 -0.0288
15518TIP3    H267970   4.437   2.819   3.401  2.0752 -1.1685  1.8032
15519TIP3   OH267971   2.023   0.476  15.688  0.1502 -0.0556  0.2439
15519TIP3    H167972   2.079   0.531  15.633  1.4923  1.1639  2.6481
15519TIP3    H267973   1.948   0.456  15.633  0.8346  2.0457 -1.6180
15520TIP3   OH267974   2.128   3.985  12.493  0.2339  0.0467 -0.4147
15520TIP3    H167975   2.051   3.994  12.549  1.8135 -2.1981  2.3980
15520TIP3    H267976   2.160   4.074  12.482 -0.7414  0.6805  1.4591
15521TIP3   OH267977   2.485   0.545  12.969  0.2013  0.2041  0.4020
15521TIP3    H167978   2.426   0.473  12.951  3.1346 -2.1049 -0.7807
15521TIP3    H267979   2.468   0.609  12.900 -2.9219  1.1645  1.8700
15522TIP3   OH267980   0.951   3.623   2.716  0.4310  0.2287 -0.4459
15522TIP3    H167981   0.956   3.555   2.782  1.2919 -0.5445 -1.2634
15522TIP3    H267982   0.925   3.702   2.763  0.2796 -0.4751  0.6649
15523TIP3   OH267983   5.587   4.993  15.132  1.0695 -0.0673  0.0809
15523TIP3    H167984   5.656   5.031  15.078  0.3505 -0.6248 -1.2793
15523TIP3    H267985   5.529   4.949  15.069  0.6997 -1.5316  1.3777
15524TIP3   OH267986   4.851   2.184   2.231 -0.1704  0.0873 -0.2805
15524TIP3    H167987   4.770   2.230   2.211 -0.0258  0.3836 -0.1946
15524TIP3    H267988   4.881   2.151   2.146 -0.5503 -0.3098 -0.2624
15525TIP3   OH267989   5.936   2.491   6.183 -0.1941 -0.4717  0.5075
15525TIP3    H167990   5.874   2.467   6.251  0.1942  2.2556  1.9513
15525TIP3    H267991   6.012   2.525   6.230  1.1485 -0.8301 -1.2765
15526TIP3   OH267992   6.086   6.298  12.622 -0.1120  0.8313 -0.2970
15526TIP3    H167993   6.041   6.300  12.707  0.4645  0.3497  0.0309
15526TIP3    H267994   6.066   6.211  12.586  0.2682  0.7413 -0.3004
15527TIP3   OH267995   0.678   1.989   2.368 -0.3405  0.2914 -0.0851
15527TIP3    H167996   0.651   2.072   2.327 -0.0856  0.3174 -0.2024
15527TIP3    H267997   0.670   2.006   2.462 -3.4630 -0.5952 -0.0769
15528TIP3   OH267998   4.481   6.299   2.690 -0.5641 -0.3238 -0.6067
15528TIP3    H167999   4.451   6.376   2.641 -1.1712 -0.6190 -0.7077
15528TIP3    H268000   4.532   6.249   2.626 -1.5823 -0.8442 -1.0359
15529TIP3   OH268001   2.652   1.903  15.623  0.3343  0.1020 -0.0532
15529TIP3    H168002   2.641   1.901  15.718 -0.1653 -0.3225 -0.1097
15529TIP3    H268003   2.599   1.977  15.593 -2.1576 -1.6265 -0.2723
15530TIP3   OH268004   6.549   5.420  16.264 -0.1237  0.2954 -0.1654
15530TIP3    H168005   6.622   5.469  16.302  0.7507 -1.1795  0.1518
15530TIP3    H268006   6.584   5.332  16.253 -0.9191  0.2258 -2.7304
15531TIP3   OH268007   5.621   3.072   5.054  0.5771 -0.4528  0.1366
15531TIP3    H168008   5.673   3.142   5.015 -1.8812  1.5706  0.2410
15531TIP3    H268009   5.590   3.020   4.979  1.6683 -0.9183 -0.0078
15532TIP3   OH268010   5.401   6.049   4.798 -0.0273  0.5404  0.0762
15532TIP3    H168011   5.380   6.087   4.712 -1.0663  1.0502  0.5351
15532TIP3    H268012   5.445   5.967   4.777  0.4021  1.0071 -0.9432
15533TIP3   OH268013   1.429   1.820  10.932 -0.1378  0.5168 -0.0652
15533TIP3    H168014   1.413   1.900  10.982  1.3236  1.2631 -0.7377
15533TIP3    H268015   1.431   1.849  10.841  1.7504 -0.0202 -0.2299
15534TIP3   OH268016   4.363   4.649   1.947  0.0618 -0.0795 -0.5099
15534TIP3    H168017   4.358   4.606   1.862 -0.4238 -1.3801  0.1451
15534TIP3    H268018   4.272   4.667   1.971  0.1552 -0.2124 -0.0359
15535TIP3   OH268019   2.973   0.029  15.455 -0.5317  0.0774  0.1856
15535TIP3    H168020   2.923   0.046  15.536 -0.6408  0.7574 -0.0156
15535TIP3    H268021   2.913   0.053  15.385 -1.2208 -2.5336 -0.1952
15536TIP3   OH268022   0.407   0.417   3.173 -0.1479  0.3961 -0.6942
15536TIP3    H168023   0.490   0.438   3.216  0.6728 -3.0695 -0.2848
15536TIP3    H268024   0.344   0.410   3.245 -0.1743  0.4838 -0.7093
15537TIP3   OH268025   3.880   3.389  14.681 -1.0794 -0.2223  0.2028
15537TIP3    H168026   3.915   3.478  14.679 -1.5574 -0.0444 -1.4741
15537TIP3    H268027   3.827   3.386  14.760  1.4660 -0.0552  2.0428
15538TIP3   OH268028   2.490   0.066  15.759  0.4112 -0.6283  0.0417
15538TIP3    H168029   2.442   0.093  15.681 -0.0352  1.9978  1.1209
15538TIP3    H268030   2.424   0.064  15.828  1.0322 -1.6889  0.6228
15539TIP3   OH268031   2.989   4.925  15.007 -0.0744  0.2050  0.7577
15539TIP3    H168032   3.072   4.883  15.028 -1.1981 -3.3909 -1.2179
15539TIP3    H268033   2.924   4.875  15.056 -1.6056 -1.3541 -2.5822
15540TIP3   OH268034   4.910   0.918   4.478  0.3345 -1.1298  0.0045
15540TIP3    H168035   4.904   1.001   4.527  1.2958 -0.5030 -0.9046
15540TIP3    H268036   4.978   0.869   4.524  2.3493  0.0888 -1.5241
15541TIP3   OH268037   0.921   3.573   5.963 -0.1283 -0.5057 -0.4196
15541TIP3    H168038   0.865   3.500   5.937  1.3414 -2.1967  0.9564
15541TIP3    H268039   0.971   3.593   5.884 -1.8014  0.3043 -1.3417
15542TIP3   OH268040   6.554   0.960  14.106  0.1424 -0.1099 -0.0795
15542TIP3    H168041   6.470   0.962  14.151 -0.3656  0.6093 -1.0305
15542TIP3    H268042   6.540   1.012  14.027  1.0446 -1.2501 -1.0131
15543TIP3   OH268043   6.708   5.956  11.190  0.1460 -0.5804 -0.0492
15543TIP3    H168044   6.793   5.914  11.202 -0.6373 -2.0940  0.3345
15543TIP3    H268045   6.655   5.925  11.263 -0.7392  0.3861 -0.2638
15544TIP3   OH268046   2.661   1.463  10.963  0.8273 -0.1621  0.3280
15544TIP3    H168047   2.603   1.479  10.888 -0.3141 -0.4120  1.1297
15544TIP3    H268048   2.728   1.530  10.956  0.7077 -0.1301 -0.8768
15545TIP3   OH268049   4.162   5.300   3.873 -0.3273 -0.2786 -0.0327
15545TIP3    H168050   4.133   5.210   3.885 -1.8455 -0.0788 -1.7684
15545TIP3    H268051   4.216   5.318   3.950 -0.4816 -2.4446  0.6625
15546TIP3   OH268052   5.519   6.734  13.240 -0.6519 -0.3739  0.0755
15546TIP3    H168053   5.490   6.689  13.320 -0.0728  0.0796  0.5484
15546TIP3    H268054   5.580   6.801  13.271 -2.4173  1.5703 -0.5079
15547TIP3   OH268055   3.021   6.363   2.866  0.2125  0.0712  0.2115
15547TIP3    H168056   3.085   6.377   2.797 -0.4371 -0.2828 -0.4738
15547TIP3    H268057   2.938   6.346   2.820 -0.4872  1.0109  1.0782
15548TIP3   OH268058   5.722   3.888   5.791  0.6014  0.3390  0.1040
15548TIP3    H168059   5.667   3.940   5.733 -1.3320 -1.4002  0.2897
15548TIP3    H268060   5.762   3.822   5.735  0.3291 -0.0948  0.4143
15549TIP3   OH268061   0.665   3.954  15.282 -0.3658  0.4613 -0.3093
15549TIP3    H168062   0.658   3.978  15.374  0.0752  0.2216 -0.2121
15549TIP3    H268063   0.742   4.002  15.250  0.3945 -0.6457 -0.1660
15550TIP3   OH268064   0.448   2.639   0.356 -0.0171  0.0418  0.4339
15550TIP3    H168065   0.527   2.585   0.343 -0.9260 -1.7677  2.0050
15550TIP3    H268066   0.469   2.694   0.431 -0.0639 -0.0774  0.5348
15551TIP3   OH268067   0.152   4.352   1.808 -0.6928  0.1966  0.0384
15551TIP3    H168068   0.168   4.305   1.890 -0.3590  0.6632  0.2431
15551TIP3    H268069   0.073   4.404   1.825 -2.3090 -1.8119 -0.8466
15552TIP3   OH268070   3.324   4.948  14.174  0.1161  0.0602  0.9797
15552TIP3    H168071   3.408   4.975  14.212  1.3230 -0.1428 -1.3285
15552TIP3    H268072   3.342   4.941  14.080 -2.3574 -0.5900  0.4858
15553TIP3   OH268073   5.184   4.010   0.296  0.1716 -0.9299  0.4744
15553TIP3    H168074   5.190   4.046   0.385  0.4196 -1.7004  0.7750
15553TIP3    H268075   5.164   3.917   0.309 -0.2719 -0.9507 -0.2885
15554TIP3   OH268076   4.009   2.635  16.440 -0.0716 -0.2593 -0.2159
15554TIP3    H168077   4.061   2.581  16.500 -1.0630 -2.1768 -1.0039
15554TIP3    H268078   4.070   2.657  16.369  0.6181  0.5471  0.5979
15555TIP3   OH268079   1.604   0.707   4.792  0.2808  0.3517 -0.2889
15555TIP3    H168080   1.611   0.786   4.845  0.8317 -0.3198  0.6844
15555TIP3    H268081   1.573   0.737   4.707 -3.3426  1.1938  1.1654
15556TIP3   OH268082   1.886   4.019   5.393 -0.4186  0.5595 -0.5214
15556TIP3    H168083   1.968   3.981   5.362 -0.8471 -1.2696  0.4782
15556TIP3    H268084   1.845   4.054   5.314  0.5567  0.0272 -1.2932
15557TIP3   OH268085   1.234   0.263  15.430  0.0776  0.1909  0.0491
15557TIP3    H168086   1.273   0.332  15.483 -0.8725  0.0232  1.0339
15557TIP3    H268087   1.306   0.226  15.380  1.1989 -0.1330  1.8077
15558TIP3   OH268088   6.419   5.316   3.162 -0.0323  0.7639 -0.0085
15558TIP3    H168089   6.364   5.285   3.234  0.1873 -0.1097 -0.1987
15558TIP3    H268090   6.417   5.411   3.169 -0.9399  0.7202  0.4539
15559TIP3   OH268091   3.309   6.413  11.538 -0.0122 -0.3768 -0.4893
15559TIP3    H168092   3.271   6.479  11.479 -2.5926 -2.4530 -1.3928
15559TIP3    H268093   3.333   6.341  11.480  3.0206 -0.2196  0.4272
15560TIP3   OH268094   2.673   5.533   5.577 -0.1830 -0.2250 -0.1832
15560TIP3    H168095   2.582   5.563   5.579  0.1165  0.7218 -0.2950
15560TIP3    H268096   2.699   5.544   5.485  0.3351  0.4110  0.0401
15561TIP3   OH268097   0.597   3.800  17.036 -0.5723 -0.3283 -0.3618
15561TIP3    H168098   0.540   3.760  16.970 -0.3184 -0.2026 -0.6635
15561TIP3    H268099   0.595   3.739  17.110  0.3791 -1.2883 -1.0796
15562TIP3   OH268100   1.255   5.720   4.944  0.2842 -0.4572 -0.5978
15562TIP3    H168101   1.302   5.637   4.954 -0.0804 -0.5901  0.0525
15562TIP3    H268102   1.323   5.787   4.954  0.6620 -0.6734 -1.5794
15563TIP3   OH268103   3.849   1.229  16.403  0.4768  0.1631 -0.5574
15563TIP3    H168104   3.938   1.228  16.439  0.5644 -1.2116 -0.7478
15563TIP3    H268105   3.840   1.144  16.361 -1.4847 -0.3795  0.8217
15564TIP3   OH268106   0.639   5.409   2.596 -0.1208 -0.1702  0.6510
15564TIP3    H168107   0.715   5.355   2.617 -0.8353 -0.1304  3.8480
15564TIP3    H268108   0.619   5.387   2.505  2.8041 -1.2410  0.1351
15565TIP3   OH268109   1.004   2.779  11.598 -0.1800 -0.0875 -0.3424
15565TIP3    H168110   0.938   2.841  11.566 -0.0561  0.0081 -0.4144
15565TIP3    H268111   1.082   2.798  11.546 -0.0619 -0.1263 -0.1811
15566TIP3   OH268112   6.690   5.013  12.698 -0.2859 -0.5161  0.5177
15566TIP3    H168113   6.632   5.048  12.767 -0.1835 -0.8809  0.7914
15566TIP3    H268114   6.729   4.936  12.737  0.7260 -0.0306  0.4936
15567TIP3   OH268115   5.407   3.507  11.711 -0.0571  0.0742  0.3248
15567TIP3    H168116   5.390   3.423  11.668 -2.1349  0.7158 -0.1929
15567TIP3    H268117   5.345   3.509  11.784  0.0675  1.0958  0.4111
15568TIP3   OH268118   1.203   6.157   2.154 -0.2505  0.0089 -0.4624
15568TIP3    H168119   1.209   6.080   2.211 -0.2080 -0.2573 -0.8208
15568TIP3    H268120   1.133   6.210   2.192 -0.2963 -0.2214 -0.2257
15569TIP3   OH268121   5.124   6.158   0.430  0.2109 -0.2003  0.0867
15569TIP3    H168122   5.120   6.117   0.343 -0.9962 -0.2051  0.1235
15569TIP3    H268123   5.217   6.162   0.451  0.4623 -1.0514 -0.8065
15570TIP3   OH268124   5.024   1.417  13.975  0.6261  0.3428  0.0178
15570TIP3    H168125   4.966   1.408  13.899  0.8034 -0.2499 -0.0524
15570TIP3    H268126   5.014   1.335  14.023  1.2346  0.3246  0.1237
15571TIP3   OH268127   4.057   1.198   2.472 -0.3820  0.3923  0.0479
15571TIP3    H168128   4.049   1.110   2.436 -0.7694 -0.0654  1.2015
15571TIP3    H268129   4.104   1.186   2.555 -1.9517  1.0142  1.0786
15572TIP3   OH268130   5.694   2.311  16.835  0.3196 -0.3834 -0.4825
15572TIP3    H168131   5.613   2.363  16.840  0.3617 -0.3904  0.5696
15572TIP3    H268132   5.666   2.222  16.855  0.6080 -0.3532  0.0770
15573TIP3   OH268133   4.559   5.621   2.368 -0.3180 -0.1983  0.1527
15573TIP3    H168134   4.555   5.592   2.459  3.0929 -3.6003 -0.5179
15573TIP3    H268135   4.484   5.579   2.325 -0.2053 -1.1393  0.8522
15574TIP3   OH268136   1.355   5.126  15.026  0.1991  0.0875  0.0593
15574TIP3    H168137   1.430   5.092  15.075 -1.0517  0.8565  2.7319
15574TIP3    H268138   1.392   5.159  14.944  2.5278 -0.8718  0.6505
15575TIP3   OH268139   4.761   2.717  12.579 -0.3752  0.0184 -0.0048
15575TIP3    H168140   4.751   2.673  12.494 -0.5738 -1.4974  0.7624
15575TIP3    H268141   4.672   2.723  12.613 -0.2605  0.2918  0.2466
15576TIP3   OH268142   3.105   4.485   4.378  0.0788  0.1180 -0.1571
15576TIP3    H168143   3.046   4.422   4.420  0.6838 -0.7633 -0.6125
15576TIP3    H268144   3.170   4.505   4.445 -0.6050  0.9627  0.2887
15577TIP3   OH268145   5.848   2.344  13.280  0.1481 -0.0224 -0.3051
15577TIP3    H168146   5.781   2.309  13.339 -0.6092  0.4954 -0.8333
15577TIP3    H268147   5.806   2.345  13.194 -0.1743  2.7828 -0.2201
15578TIP3   OH268148   5.224   5.725   0.450  0.0561 -0.0632 -0.0682
15578TIP3    H168149   5.247   5.808   0.493  0.7622 -1.1823  1.8534
15578TIP3    H268150   5.297   5.667   0.471 -0.8201 -1.4248 -0.6794
15579TIP3   OH268151   3.643   0.358  11.030 -0.3367  0.1363 -0.3371
15579TIP3    H168152   3.707   0.335  11.098  2.1391  1.8874 -1.8718
15579TIP3    H268153   3.658   0.294  10.960  0.0547  0.7917 -0.8650
15580TIP3   OH268154   4.722   4.858  12.378  0.2812 -0.3642 -0.6922
15580TIP3    H168155   4.786   4.794  12.410 -2.1237 -2.3756  0.5461
15580TIP3    H268156   4.727   4.931  12.440  1.2076 -0.6091 -0.4699
15581TIP3   OH268157   3.247   5.132   3.883  0.1182  0.0181 -0.0223
15581TIP3    H168158   3.241   5.045   3.923  0.6544 -0.0407 -0.0616
15581TIP3    H268159   3.311   5.121   3.813  0.1991  0.4530 -0.0146
15582TIP3   OH268160   1.472   6.699  13.347  0.1244  0.0783 -0.2378
15582TIP3    H168161   1.463   6.699  13.442 -2.5936  0.7729 -0.3981
15582TIP3    H268162   1.492   6.790  13.325 -0.4102  0.1645 -0.3815
15583TIP3   OH268163   3.160   3.403  15.232  0.1018 -0.1433  0.0230
15583TIP3    H168164   3.166   3.432  15.323 -0.6817 -1.4587  0.5229
15583TIP3    H268165   3.183   3.310  15.235  1.2258  0.0644 -1.3123
15584TIP3   OH268166   1.808   1.229  13.728 -0.1080  0.1827  0.1572
15584TIP3    H168167   1.900   1.224  13.753 -0.6223  0.5543  2.3659
15584TIP3    H268168   1.798   1.316  13.690  0.8205 -0.5895 -1.9954
15585TIP3   OH268169   4.551   4.805   1.086  0.5418 -0.1426 -0.0557
15585TIP3    H168170   4.596   4.882   1.122 -0.6342  0.4222  0.2373
15585TIP3    H268171   4.472   4.840   1.046  0.6826 -1.0470 -1.1687
15586TIP3   OH268172   6.032   2.889   0.778  0.4705  0.1010 -0.1491
15586TIP3    H168173   6.081   2.969   0.792 -0.2913  0.1744  2.5631
15586TIP3    H268174   6.097   2.819   0.786  0.6499  0.3299  0.4283
15587TIP3   OH268175   2.763   3.672   4.930  0.4500  0.1813  0.2087
15587TIP3    H168176   2.699   3.647   4.997 -0.1503  0.3726 -0.2767
15587TIP3    H268177   2.730   3.632   4.849  1.6272 -0.7739  0.1763
15588TIP3   OH268178   6.073   1.322   6.447  0.5983 -0.1372 -0.5345
15588TIP3    H168179   5.981   1.342   6.431  0.4760 -1.2723 -1.3565
15588TIP3    H268180   6.072   1.237   6.491  1.2636 -0.3365 -0.8892
15589TIP3   OH268181   0.024   0.794   1.819 -0.3423 -0.1480 -0.2654
15589TIP3    H168182  -0.050   0.854   1.804  0.5081  1.4998  1.6058
15589TIP3    H268183   0.074   0.836   1.890  2.8041 -0.8318 -1.9301
15590TIP3   OH268184   2.901   2.352   5.080 -0.1242  0.1269 -0.6082
15590TIP3    H168185   2.860   2.395   5.155  1.9573  0.1798  0.5521
15590TIP3    H268186   2.940   2.423   5.029  0.3855 -0.0917 -0.5266
15591TIP3   OH268187   2.082   5.822  12.321 -0.0275 -0.2588 -0.8039
15591TIP3    H168188   2.178   5.820  12.313  0.0236 -1.0375 -0.1326
15591TIP3    H268189   2.061   5.746  12.375 -0.8948  0.7588  0.3619
15592TIP3   OH268190   6.710   1.222   6.417  0.5145  0.6144  0.6571
15592TIP3    H168191   6.664   1.214   6.500 -0.7005  0.1699 -0.0310
15592TIP3    H268192   6.737   1.132   6.395 -1.4312  0.2770 -0.6309
15593TIP3   OH268193   0.053   6.107  10.913 -0.4365  0.0543  0.3483
15593TIP3    H168194  -0.002   6.160  10.856 -2.5735  0.0453  2.2903
15593TIP3    H268195   0.077   6.031  10.859 -2.3830  0.0276 -0.5561
15594TIP3   OH268196   0.021   6.681   5.020 -0.3890  0.1484  1.2335
15594TIP3    H168197   0.115   6.660   5.022 -0.6204 -0.8513  1.9113
15594TIP3    H268198   0.019   6.774   4.994  0.6976 -0.2817 -0.6303
15595TIP3   OH268199   6.374   2.180  13.705  0.2512 -0.2487  0.8298
15595TIP3    H168200   6.431   2.166  13.781 -0.2547  0.8801  1.4498
15595TIP3    H268201   6.286   2.187  13.743 -0.0631 -0.1550  0.0917
15596TIP3   OH268202   0.229   3.049   0.963 -0.6318 -0.5002  0.3465
15596TIP3    H168203   0.318   3.048   1.000 -0.9054 -1.2312  1.0118
15596TIP3    H268204   0.224   2.969   0.911 -0.1672  0.6463 -1.5208
15597TIP3   OH268205   4.735   6.226   1.733 -0.0596 -0.0515 -0.3696
15597TIP3    H168206   4.769   6.287   1.667  1.0280 -0.4020 -0.1502
15597TIP3    H268207   4.681   6.164   1.683 -0.7082  0.7461 -0.6687
15598TIP3   OH268208   0.425   0.555  14.865 -0.0908 -0.7344  0.1409
15598TIP3    H168209   0.509   0.584  14.901 -0.1423  0.2780 -0.5139
15598TIP3    H268210   0.448   0.490  14.798  0.3038  0.7607 -1.2253
15599TIP3   OH268211   2.545   0.695   4.992  0.5381  0.4501 -0.1354
15599TIP3    H168212   2.523   0.783   4.961  0.7926  1.5273  2.4529
15599TIP3    H268213   2.636   0.701   5.018  0.3711 -0.3793  0.6855
15600TIP3   OH268214   1.234   1.839  13.141  0.2940 -0.1914 -0.2840
15600TIP3    H168215   1.320   1.823  13.179  0.9785  1.3324 -1.1057
15600TIP3    H268216   1.172   1.813  13.210  1.3703 -1.8558  0.0921
15601TIP3   OH268217   3.757   5.477  11.772  0.1782 -0.7744  0.1978
15601TIP3    H168218   3.788   5.518  11.691 -0.3522 -1.3693 -0.3160
15601TIP3    H268219   3.688   5.416  11.743 -0.2185 -0.7761  1.1271
15602TIP3   OH268220   5.737   0.706  16.727  0.2764 -0.2530 -0.2196
15602TIP3    H168221   5.686   0.762  16.668 -0.1223 -0.6938 -0.2898
15602TIP3    H268222   5.677   0.681  16.796  1.2527  1.9273  1.5506
15603TIP3   OH268223   3.198   5.135   1.009  0.0728  0.4435  0.2879
15603TIP3    H168224   3.234   5.117   0.922  0.4653  1.9557  0.1014
15603TIP3    H268225   3.120   5.080   1.015  1.8446 -2.2523  0.3399
15604TIP3   OH268226   3.458   4.582  13.021 -0.2467  0.4662 -0.7310
15604TIP3    H168227   3.499   4.562  12.937  1.4055  0.7903 -0.0515
15604TIP3    H268228   3.390   4.516  13.032  1.3029 -1.2731 -1.1104
15605TIP3   OH268229   6.226   6.633   0.913 -0.8093 -0.4994  0.5509
15605TIP3    H168230   6.181   6.560   0.872  0.3628  0.6288 -3.0899
15605TIP3    H268231   6.159   6.702   0.919 -0.7059 -0.2804 -0.6641
15606TIP3   OH268232   2.395   0.060  14.856  0.3059  0.0643 -0.3055
15606TIP3    H168233   2.388  -0.035  14.849 -1.5099  0.1510 -0.2034
15606TIP3    H268234   2.398   0.078  14.950 -1.0593  0.1766 -0.2717
15607TIP3   OH268235   0.340   6.321  12.775  0.1029 -0.1716 -0.3771
15607TIP3    H168236   0.412   6.270  12.812  1.4337  0.4251 -2.0190
15607TIP3    H268237   0.291   6.259  12.722 -0.2503 -0.4441  0.2571
15608TIP3   OH268238   5.136   0.426   5.810 -0.6719 -0.1826  0.2869
15608TIP3    H168239   5.084   0.390   5.882 -0.5396 -0.3259  0.3097
15608TIP3    H268240   5.126   0.521   5.819 -1.9054 -0.2145 -0.4131
15609TIP3   OH268241   2.774   5.190  14.106 -0.2714  0.4912  0.2811
15609TIP3    H168242   2.851   5.158  14.059  0.9580  2.3342  0.9537
15609TIP3    H268243   2.796   5.180  14.199  0.3974  3.6097  0.5517
15610TIP3   OH268244   2.978   4.889  15.791  1.0301  0.0462  0.4850
15610TIP3    H168245   3.045   4.876  15.725  0.9342  0.0433  0.3878
15610TIP3    H268246   2.909   4.938  15.746 -1.0553 -3.6427 -0.7617
15611TIP3   OH268247   0.808   1.018  13.127  0.3026  0.1532 -0.8437
15611TIP3    H168248   0.784   0.946  13.068  2.2494 -1.5787  0.3472
15611TIP3    H268249   0.730   1.033  13.180 -0.0845 -1.2560 -0.9715
15612TIP3   OH268250   6.767   2.576  12.545  0.1493 -0.0534  0.3009
15612TIP3    H168251   6.725   2.494  12.522 -0.0856  0.9080 -3.3019
15612TIP3    H268252   6.708   2.644  12.513  0.9393  1.5454  2.0028
15613TIP3   OH268253   6.357   1.174   5.073 -0.4126  0.0064 -0.4765
15613TIP3    H168254   6.360   1.242   5.006  0.3261 -1.9695 -2.5788
15613TIP3    H268255   6.449   1.151   5.088 -0.6779 -2.3436 -1.8761
15614TIP3   OH268256   3.768   4.508   5.203  0.1196 -0.3865  0.5504
15614TIP3    H168257   3.858   4.521   5.172  0.0213  0.4489  0.6066
15614TIP3    H268258   3.734   4.437   5.148  0.1593  0.6234 -0.8526
15615TIP3   OH268259   2.610   3.176  12.576 -0.2192 -0.1910 -0.1315
15615TIP3    H168260   2.551   3.243  12.541  1.6284  0.4435 -2.2538
15615TIP3    H268261   2.579   3.095  12.537  0.8827  0.2977 -2.1858
15616TIP3   OH268262   3.083   1.115   1.446  0.6219  0.0592 -0.2462
15616TIP3    H168263   3.043   1.029   1.456 -0.8074  0.7541  0.2697
15616TIP3    H268264   3.036   1.155   1.373  1.2729  0.4253 -0.4806
15617TIP3   OH268265   5.243   3.548   1.051 -0.3888  0.5504  0.3387
15617TIP3    H168266   5.323   3.573   1.004 -0.3790  2.0982  1.1026
15617TIP3    H268267   5.174   3.557   0.986 -0.7633  5.2079  1.0108
15618TIP3   OH268268   4.612   1.778  16.408 -0.1721 -0.0591  0.2156
15618TIP3    H168269   4.683   1.838  16.430  2.0903 -2.9536  1.6142
15618TIP3    H268270   4.541   1.800  16.468  0.4123  1.4541  0.3823
15619TIP3   OH268271   0.654   0.852   2.676  0.1113  0.4330  0.2806
15619TIP3    H168272   0.567   0.822   2.703  0.0196  0.0995 -0.3815
15619TIP3    H268273   0.682   0.909   2.748 -0.6985  0.6443  0.4456
15620TIP3   OH268274   5.544   5.703   5.067 -0.0982  0.8750 -0.3519
15620TIP3    H168275   5.535   5.714   5.162  1.8591  0.8742 -0.1117
15620TIP3    H268276   5.520   5.612   5.052 -3.7122  1.6825 -0.4304
15621TIP3   OH268277   4.864   0.289   0.424 -0.4163 -0.1748 -0.4995
15621TIP3    H168278   4.842   0.222   0.359 -0.1023  0.8820 -1.7459
15621TIP3    H268279   4.884   0.367   0.372  3.1261 -0.1356  0.6497
15622TIP3   OH268280   2.880   3.188  12.668  0.6015 -0.1379 -0.0910
15622TIP3    H168281   2.912   3.250  12.603 -1.3817  2.5925  1.3329
15622TIP3    H268282   2.787   3.177  12.646  0.2203 -0.1963  1.4359
15623TIP3   OH268283   6.042   2.315  14.546  0.1033  0.1183  0.5426
15623TIP3    H168284   6.036   2.279  14.457 -2.0870  0.0418  0.6709
15623TIP3    H268285   5.997   2.251  14.601  0.9419  0.4451  1.6333
15624TIP3   OH268286   0.520   5.830  14.761  0.5630 -0.5811  0.4419
15624TIP3    H168287   0.556   5.883  14.831 -1.1704 -0.9307  1.6615
15624TIP3    H268288   0.531   5.739  14.790  2.0532 -0.8912 -0.9027
15625TIP3   OH268289   6.132   6.689   1.634 -0.0050  0.1154  0.6939
15625TIP3    H168290   6.049   6.699   1.679 -1.1907 -0.4332 -1.2613
15625TIP3    H268291   6.169   6.778   1.634 -0.3170  0.2662  2.0208
15626TIP3   OH268292   6.036   0.269   4.616  0.2767  0.1675 -0.0531
15626TIP3    H168293   6.089   0.349   4.604  0.1774  0.2887  0.3076
15626TIP3    H268294   6.013   0.243   4.527  0.2808  0.5625 -0.1741
15627TIP3   OH268295   3.163   6.465   2.064  0.5773 -0.0690 -0.0294
15627TIP3    H168296   3.250   6.425   2.056  1.9189  2.3934  0.8980
15627TIP3    H268297   3.126   6.426   2.143  0.1345 -2.2529 -1.2472
15628TIP3   OH268298   5.784   5.213  11.067  0.0335 -0.5786  0.5998
15628TIP3    H168299   5.721   5.158  11.021  0.4429  0.8371 -1.8466
15628TIP3    H268300   5.865   5.203  11.018  0.1709  1.9907  0.1475
15629TIP3   OH268301   0.033   6.124   0.202  0.4974  0.1743  0.3616
15629TIP3    H168302   0.103   6.176   0.243  2.5505 -1.0547 -1.3719
15629TIP3    H268303   0.036   6.040   0.247  0.4591 -0.0397 -0.0296
15630TIP3   OH268304   2.794   5.062   2.839 -0.6832  0.3746  0.0770
15630TIP3    H168305   2.841   5.104   2.911  1.5828 -1.0507 -0.4711
15630TIP3    H268306   2.847   5.080   2.762 -3.4616  2.5465 -1.5244
15631TIP3   OH268307   3.741   4.966  14.864  0.0603 -0.4285 -0.0111
15631TIP3    H168308   3.739   4.873  14.841 -1.6239 -0.2732 -0.5942
15631TIP3    H268309   3.725   4.967  14.959 -0.3048 -0.7123 -0.0681
15632TIP3   OH268310   5.395   0.957   3.605 -0.0443 -0.2356  0.0042
15632TIP3    H168311   5.300   0.972   3.599  0.2600  1.9155 -0.3540
15632TIP3    H268312   5.433   1.023   3.546  1.8583  1.7881  3.2245
15633TIP3   OH268313   5.549   4.522   0.771 -0.4051  0.4158 -0.9515
15633TIP3    H168314   5.569   4.596   0.827 -0.1823 -0.0202 -0.4442
15633TIP3    H268315   5.471   4.548   0.723 -0.3418  0.9652 -0.7592
15634TIP3   OH268316   1.648   0.271   4.987 -0.2795  0.5398  1.0544
15634TIP3    H168317   1.694   0.355   4.987  0.2605  0.2576  2.1460
15634TIP3    H268318   1.680   0.225   5.064 -1.0775 -0.4038  0.8562
15635TIP3   OH268319   4.216   3.409   5.291 -0.5001  0.1958  0.3511
15635TIP3    H168320   4.261   3.490   5.315 -1.1121  0.6593 -0.0354
15635TIP3    H268321   4.255   3.342   5.348 -0.7263  0.9577  1.4345
15636TIP3   OH268322   0.216   2.267  15.406 -0.7789  0.2497 -0.1453
15636TIP3    H168323   0.165   2.227  15.336  0.5941 -0.5902 -0.7064
15636TIP3    H268324   0.156   2.329  15.447 -2.1702 -0.5387 -0.9069
15637TIP3   OH268325   3.355   3.591  17.052  0.4324  0.7190  0.4797
15637TIP3    H168326   3.321   3.678  17.074 -1.1741  0.3946 -0.6052
15637TIP3    H268327   3.283   3.547  17.007  2.2235 -0.0534 -1.8421
15638TIP3   OH268328   6.247   4.797  11.943 -0.0077 -0.0044  0.0197
15638TIP3    H168329   6.316   4.783  12.007 -0.0152  0.7605  0.2056
15638TIP3    H268330   6.191   4.719  11.951  0.7015 -0.5230  0.0163
15639TIP3   OH268331   5.495   6.102   1.550  0.0947  0.3097 -0.0174
15639TIP3    H168332   5.547   6.032   1.587  1.6226  0.5681 -1.5625
15639TIP3    H268333   5.532   6.117   1.463 -1.6854  1.4553 -0.6432
15640TIP3   OH268334   4.959   2.411  11.851  0.4494  0.7791  0.2163
15640TIP3    H168335   5.032   2.352  11.871  0.9463  1.9003  1.9403
15640TIP3    H268336   4.989   2.459  11.773  0.9999  0.3394  0.1440
15641TIP3   OH268337   3.126   3.273  17.172  0.7412 -0.8369 -0.4121
15641TIP3    H168338   3.116   3.181  17.193  2.2778 -1.0421 -0.4745
15641TIP3    H268339   3.220   3.289  17.178  0.3543  1.2129  1.6127
15642TIP3   OH268340   4.664   1.433   4.792 -0.8545 -0.1818 -0.5208
15642TIP3    H168341   4.709   1.356   4.829 -0.1272  0.7151  0.5301
15642TIP3    H268342   4.735   1.496   4.776 -1.7075  1.4188  1.5224
15643TIP3   OH268343   6.129   3.063  11.179 -0.6561 -0.0799  0.2681
15643TIP3    H168344   6.110   3.046  11.271  0.3542 -0.7643  0.3676
15643TIP3    H268345   6.158   3.154  11.177 -0.3886 -0.1532  0.6734
15644TIP3   OH268346   4.927   0.036  11.671  0.0800 -0.0466 -0.0711
15644TIP3    H168347   4.913  -0.057  11.686  0.2987  0.2901  2.8363
15644TIP3    H268348   4.850   0.065  11.622 -0.5889 -1.5138  0.0711
15645TIP3   OH268349   1.633   3.290   4.168  0.1910  0.2629 -0.5396
15645TIP3    H168350   1.646   3.365   4.227 -0.1749 -0.6565  0.7418
15645TIP3    H268351   1.655   3.214   4.221 -1.4229 -0.6852 -1.1725
15646TIP3   OH268352   5.453   1.902   4.623 -0.0379 -0.3344  0.3065
15646TIP3    H168353   5.374   1.956   4.612  0.6915  0.4878 -1.2161
15646TIP3    H268354   5.514   1.935   4.558  0.5923 -2.7849 -0.4503
15647TIP3   OH268355   2.173   6.457   4.613 -0.2978 -0.1376 -0.2787
15647TIP3    H168356   2.169   6.410   4.697 -0.4305 -0.0801 -0.2524
15647TIP3    H268357   2.091   6.435   4.570 -0.4519  0.2331 -0.1787
15648TIP3   OH268358   0.346   4.127   5.844  0.2863 -0.0538  0.5041
15648TIP3    H168359   0.415   4.172   5.891  0.7985 -0.9307  0.6231
15648TIP3    H268360   0.290   4.091   5.913  1.0763 -1.3999  0.4984
15649TIP3   OH268361   0.362   2.075   0.242  0.6810  0.5491 -0.6525
15649TIP3    H168362   0.378   2.130   0.318 -1.9255 -1.2871  1.3644
15649TIP3    H268363   0.402   1.991   0.264 -0.3942 -0.1065 -1.1390
15650TIP3   OH268364   6.144   1.917   5.978 -0.4247 -0.3585 -0.3070
15650TIP3    H168365   6.073   1.867   5.940  1.5236 -2.0809 -1.9274
15650TIP3    H268366   6.145   1.999   5.928  0.0886 -1.2641 -1.8490
15651TIP3   OH268367   3.815   5.760   1.957  0.2676  0.5044  0.5397
15651TIP3    H168368   3.854   5.755   1.870  1.3762  0.2334  1.0413
15651TIP3    H268369   3.749   5.830   1.950 -0.9610 -0.7350 -0.9953
15652TIP3   OH268370   5.762   1.036  15.761 -0.6805 -0.2327 -0.2233
15652TIP3    H168371   5.797   1.010  15.846 -0.7060  0.7711  0.1105
15652TIP3    H268372   5.699   0.968  15.738 -1.3286 -0.0660  0.9886
15653TIP3   OH268373   0.320   5.861  12.744 -0.1858  0.1597 -0.6713
15653TIP3    H168374   0.407   5.822  12.758  0.0219  0.1240 -1.9844
15653TIP3    H268375   0.293   5.831  12.658 -1.6205  0.0042 -0.1961
15654TIP3   OH268376   0.223   0.946  15.360  0.0768  0.3097  0.1306
15654TIP3    H168377   0.142   0.985  15.394  0.9865 -0.6549  3.8055
15654TIP3    H268378   0.232   0.983  15.272 -3.7758  1.2366 -0.0713
15655TIP3   OH268379   2.386   6.127   0.898 -0.1618  0.3842  0.2422
15655TIP3    H168380   2.321   6.092   0.837 -0.3594  2.1935 -0.6231
15655TIP3    H268381   2.419   6.206   0.856  1.6271  0.2545  1.2936
15656TIP3   OH268382   0.844   1.923   2.681  0.6164  0.0742  0.0032
15656TIP3    H168383   0.821   1.941   2.772 -0.0170  0.3729 -0.2040
15656TIP3    H268384   0.879   2.005   2.648  0.3374  0.1280 -0.1681
15657TIP3   OH268385   3.352   4.983   5.828 -0.2553  0.6426  0.2397
15657TIP3    H168386   3.446   4.967   5.819 -0.5209 -0.3873 -0.9529
15657TIP3    H268387   3.311   4.921   5.767 -1.6471  2.0681 -0.3350
15658TIP3   OH268388   3.273   5.390  11.680  0.4767 -0.5097  0.4554
15658TIP3    H168389   3.344   5.428  11.730  0.5443  0.0690 -0.0678
15658TIP3    H268390   3.314   5.361  11.598 -0.0815  0.9216 -0.3648
15659TIP3   OH268391   4.111   3.703   4.125 -0.2065  0.0354  1.1011
15659TIP3    H168392   4.149   3.787   4.153  0.0184  0.0638  0.7108
15659TIP3    H268393   4.055   3.726   4.050  0.7234 -0.3177  0.2834
15660TIP3   OH268394   3.842   0.180   4.440 -0.6427 -0.0448  0.2465
15660TIP3    H168395   3.936   0.194   4.451 -0.4415 -0.2824 -1.0255
15660TIP3    H268396   3.834   0.087   4.418 -1.0881  0.1474 -0.4390
15661TIP3   OH268397   1.521   4.290  16.802  0.2965  0.1955  0.5417
15661TIP3    H168398   1.560   4.245  16.876 -1.0869  0.0947  1.2406
15661TIP3    H268399   1.540   4.233  16.727 -0.8377 -1.2713  1.3003
15662TIP3   OH268400   5.936   1.840   4.279  0.0040 -0.0543 -0.2170
15662TIP3    H168401   5.926   1.935   4.273 -1.7144 -0.2011 -0.2463
15662TIP3    H268402   5.846   1.807   4.291  0.6274 -1.6211  0.4805
15663TIP3   OH268403   0.337   0.160  14.437  0.0002 -0.4977  0.4542
15663TIP3    H168404   0.346   0.232  14.376 -1.5054 -0.9313 -0.3234
15663TIP3    H268405   0.380   0.086  14.394  0.6745 -0.3091  0.8062
15664TIP3   OH268406   3.045   0.084   4.613  0.3493 -0.1235 -0.0588
15664TIP3    H168407   2.950   0.091   4.614  0.3560  2.2561 -2.8609
15664TIP3    H268408   3.062  -0.002   4.574 -0.6569 -0.3518 -0.0198
15665TIP3   OH268409   3.322   5.879   2.600 -0.4737  0.4380  0.1237
15665TIP3    H168410   3.248   5.923   2.559  0.3968  1.0207 -0.8564
15665TIP3    H268411   3.328   5.795   2.555 -1.0355  0.0320  0.7791
15666TIP3   OH268412   1.807   4.304   2.286  0.0564 -0.1624 -0.1412
15666TIP3    H168413   1.784   4.285   2.377 -1.0213 -3.7962 -1.0086
15666TIP3    H268414   1.877   4.241   2.266  0.3362  0.6303 -1.8224
15667TIP3   OH268415   1.368   2.841   0.949 -0.0806 -0.0439 -0.3395
15667TIP3    H168416   1.352   2.747   0.937 -1.3636  0.0030  0.7458
15667TIP3    H268417   1.291   2.872   0.998  0.9404  1.3236  0.4580
15668TIP3   OH268418   2.016   1.304   2.541 -0.1306 -0.3832  0.1403
15668TIP3    H168419   1.926   1.334   2.555 -0.3240 -0.6909 -0.4307
15668TIP3    H268420   2.026   1.231   2.602 -0.1706 -0.1659  0.4111
15669TIP3   OH268421   4.014   6.334   4.046  0.5138  0.7621 -0.1846
15669TIP3    H168422   3.969   6.418   4.051  0.3357  0.6153  1.3429
15669TIP3    H268423   4.014   6.302   4.137  0.0392 -1.1644 -0.8128
15670TIP3   OH268424   5.789   5.703   6.704 -0.0740 -0.1544  0.1513
15670TIP3    H168425   5.851   5.689   6.775 -0.2915 -0.2777  0.3192
15670TIP3    H268426   5.829   5.771   6.649  0.5980 -0.8148 -0.1954
15671TIP3   OH268427   4.447   1.510   2.724 -0.2005  0.0852 -0.1791
15671TIP3    H168428   4.372   1.509   2.782  0.2011  1.5236  0.4234
15671TIP3    H268429   4.418   1.561   2.648  0.2665  1.0036  0.2400
15672TIP3   OH268430   3.622   6.787   4.801  0.4503 -0.1615 -0.1431
15672TIP3    H168431   3.663   6.732   4.734 -0.0451 -1.1638  0.3644
15672TIP3    H268432   3.612   6.873   4.759 -0.3205 -0.9019 -1.5312
15673TIP3   OH268433   6.544   1.955  14.656 -0.6077 -0.4099  0.6258
15673TIP3    H168434   6.620   1.938  14.600 -0.9178  1.4611 -0.4473
15673TIP3    H268435   6.469   1.930  14.601 -0.8257 -1.4021  1.3502
15674TIP3   OH268436   1.258   0.577   3.160 -0.1740 -0.0721 -0.4644
15674TIP3    H168437   1.301   0.647   3.209  1.2124 -1.7856  0.8522
15674TIP3    H268438   1.284   0.592   3.069 -1.0559  1.8967 -0.4578
15675TIP3   OH268439   1.725   6.157  11.794 -0.5070  0.0373  0.0029
15675TIP3    H168440   1.719   6.095  11.866 -0.4467 -0.3029 -0.2804
15675TIP3    H268441   1.636   6.160  11.758  0.1813 -2.7321 -2.3175
15676TIP3   OH268442   5.325   5.493  13.902  0.5799 -0.3039  0.2728
15676TIP3    H168443   5.296   5.433  13.834 -1.8566  1.0564  0.0038
15676TIP3    H268444   5.263   5.479  13.974 -1.1062  2.8405 -0.3872
15677TIP3   OH268445   1.167   1.689  11.672 -0.0994  0.8952 -0.2302
15677TIP3    H168446   1.113   1.758  11.632 -0.0059  1.0870 -0.0271
15677TIP3    H268447   1.194   1.726  11.756 -1.0346  0.1555  0.4203
15678TIP3   OH268448   3.036   6.124   1.487  0.4258  0.0622  0.2186
15678TIP3    H168449   3.045   6.162   1.574  2.0471  0.8407 -0.2365
15678TIP3    H268450   3.125   6.126   1.451 -0.1519 -0.5077 -1.3410
15679TIP3   OH268451   2.871   6.627   5.574  0.0179  0.0611  0.1529
15679TIP3    H168452   2.809   6.588   5.635 -0.3915 -0.4876 -0.5969
15679TIP3    H268453   2.845   6.594   5.488  0.6088  0.7783 -0.3209
15680TIP3   OH268454   4.386   0.803  11.592  0.2573  0.0655  0.3070
15680TIP3    H168455   4.410   0.745  11.520 -1.1337  0.7476 -0.7618
15680TIP3    H268456   4.366   0.745  11.665  1.4111 -0.6536  0.0693
15681TIP3   OH268457   5.829   4.005  15.924 -0.2213 -0.0184  0.1641
15681TIP3    H168458   5.886   4.062  15.872 -1.6680  1.1565 -0.1916
15681TIP3    H268459   5.746   4.003  15.877 -0.3545 -2.1362  0.3901
15682TIP3   OH268460   1.447   6.244  13.911 -0.6182 -0.4761  0.0310
15682TIP3    H168461   1.387   6.180  13.872  0.0304 -1.4082  0.5495
15682TIP3    H268462   1.474   6.205  13.994 -0.5384  0.6647  0.5628
15683TIP3   OH268463   0.937   5.837  13.896  0.1788 -0.0746 -0.5292
15683TIP3    H168464   0.885   5.757  13.909  2.2192 -1.3072  0.6678
15683TIP3    H268465   0.901   5.877  13.818 -2.4480 -0.9176  0.1460
15684TIP3   OH268466   3.893   4.923   1.844  0.4943  0.3545 -0.4408
15684TIP3    H168467   3.910   4.831   1.823 -1.8276 -0.0246 -0.9551
15684TIP3    H268468   3.978   4.958   1.870  0.9262 -2.7925  3.2443
15685TIP3   OH268469   5.772   6.023  15.300  0.9729 -0.4209 -0.4991
15685TIP3    H168470   5.753   6.063  15.385  1.5314  0.0686 -0.5971
15685TIP3    H268471   5.787   5.931  15.320  2.3803 -0.0893  0.1346
15686TIP3   OH268472   5.646   4.855  12.115 -0.1147  0.4601 -0.2257
15686TIP3    H168473   5.578   4.920  12.097 -1.0700 -0.3568  0.3672
15686TIP3    H268474   5.709   4.867  12.043 -2.2173 -0.5724 -2.3634
15687TIP3   OH268475   0.021   6.138  16.768 -0.3349  0.9068  0.3199
15687TIP3    H168476  -0.057   6.174  16.812 -1.1490 -1.8660  1.3723
15687TIP3    H268477   0.070   6.096  16.839 -1.2678 -3.0204 -1.1074
15688TIP3   OH268478   3.275   6.254  12.598 -0.5737  0.0091  0.1121
15688TIP3    H168479   3.286   6.263  12.692 -2.0484  0.4416  0.2670
15688TIP3    H268480   3.282   6.343  12.564  0.9587 -0.2569 -0.3283
15689TIP3   OH268481   3.073   0.231   3.048  0.1730  0.5900 -0.0415
15689TIP3    H168482   3.056   0.175   2.972 -1.0712  1.4646 -0.4233
15689TIP3    H268483   3.033   0.315   3.027  0.6408  1.1575  1.1907
15690TIP3   OH268484   1.935   4.589  12.495 -0.5010 -0.2141 -0.0909
15690TIP3    H168485   1.897   4.533  12.427 -1.9259 -1.4234  1.5919
15690TIP3    H268486   1.952   4.530  12.568  0.0122  1.2013  0.9913
15691TIP3   OH268487   1.127   6.383  15.233  0.1683  0.6414  0.3142
15691TIP3    H168488   1.040   6.371  15.194  1.7198 -0.2254 -3.2607
15691TIP3    H268489   1.132   6.476  15.253 -1.7445  0.6060  1.2333
15692TIP3   OH268490   4.364   2.557  13.663 -0.5670  0.2216  0.0594
15692TIP3    H168491   4.362   2.632  13.722  0.7831 -0.4486  1.0186
15692TIP3    H268492   4.389   2.593  13.578  1.3880  0.7245  0.7996
15693TIP3   OH268493   3.553   5.821  13.991 -0.2047  0.5152  0.5428
15693TIP3    H168494   3.580   5.730  13.977  1.1964  0.8619  0.8529
15693TIP3    H268495   3.535   5.855  13.903 -0.7600 -0.0477  0.4296
15694TIP3   OH268496   1.122   0.945   5.949  0.2190 -0.0080 -0.0550
15694TIP3    H168497   1.101   1.008   5.880  2.7801 -1.3084 -2.2185
15694TIP3    H268498   1.184   0.991   6.006 -0.6924  0.5597  0.4925
15695TIP3   OH268499   3.124   1.769  10.419 -0.1294 -0.2027 -0.0229
15695TIP3    H168500   3.064   1.820  10.473 -1.4154 -0.1335 -1.4588
15695TIP3    H268501   3.197   1.748  10.478 -0.8206  1.0143  1.3362
15696TIP3   OH268502   3.166   4.060  13.681 -0.2246  0.1236 -0.0247
15696TIP3    H168503   3.174   3.965  13.666  1.2488  0.2198 -0.0635
15696TIP3    H268504   3.074   4.074  13.701 -0.9539 -0.9895 -2.3336
15697TIP3   OH268505   2.044   6.091   5.206  0.1766 -0.4483 -0.6114
15697TIP3    H168506   2.016   6.175   5.169 -2.2827 -1.4059 -1.1530
15697TIP3    H268507   2.007   6.090   5.294 -1.3852 -1.6420 -1.2384
15698TIP3   OH268508   3.230   3.059  16.431  0.2749  0.1932 -0.0767
15698TIP3    H168509   3.238   3.132  16.370 -0.2807  1.1172  0.9051
15698TIP3    H268510   3.314   3.056  16.477 -0.5263  1.9335  1.6693
15699TIP3   OH268511   4.374   2.842  15.426 -0.1536 -0.3249 -0.3021
15699TIP3    H168512   4.443   2.888  15.475  0.2374  0.0446 -1.1869
15699TIP3    H268513   4.396   2.750  15.434  0.7079 -0.1822 -0.9709
15700TIP3   OH268514   1.189   4.930   3.333  0.1918  0.1851 -0.2015
15700TIP3    H168515   1.104   4.945   3.373 -0.0366  2.7732 -1.4719
15700TIP3    H268516   1.172   4.864   3.265 -1.1122  1.5294 -1.2476
15701TIP3   OH268517   6.623   4.040  16.127  0.0066 -0.4317 -0.2626
15701TIP3    H168518   6.609   4.024  16.220  2.7765 -1.9990 -0.0011
15701TIP3    H268519   6.560   3.983  16.083 -0.7883 -0.2704  0.6247
15702TIP3   OH268520   6.506   5.261  11.675  0.7780 -0.0571 -0.1740
15702TIP3    H168521   6.560   5.210  11.615  0.8593  1.4965 -1.4983
15702TIP3    H268522   6.448   5.312  11.618 -0.6868 -0.1501  1.1519
15703TIP3   OH268523   5.676   4.018   1.280  0.2370 -0.7983 -0.6933
15703TIP3    H168524   5.594   3.973   1.300  0.7280 -0.9115  1.2668
15703TIP3    H268525   5.654   4.111   1.284  0.2222 -0.8277 -0.0926
15704TIP3   OH268526   1.132   4.412  17.026  0.8247 -0.0564  0.4088
15704TIP3    H168527   1.184   4.413  16.946 -0.5629 -1.4158 -0.5732
15704TIP3    H268528   1.110   4.504  17.040  1.3783  0.2466 -0.5832
15705TIP3   OH268529   5.692   6.670   3.620  0.0815 -0.1380  0.1401
15705TIP3    H168530   5.630   6.716   3.563 -0.4484 -0.2803  0.5965
15705TIP3    H268531   5.745   6.740   3.659  1.6245 -0.1226 -1.8311
15706TIP3   OH268532   3.123   4.494   0.744  0.0015 -0.5036 -0.4985
15706TIP3    H168533   3.191   4.504   0.677  2.6906 -2.2693  1.7514
15706TIP3    H268534   3.141   4.564   0.807 -0.0368 -1.1943  0.2881
15707TIP3   OH268535   1.770   6.684   2.849  0.2035 -0.0654 -0.8906
15707TIP3    H168536   1.701   6.640   2.900  0.1750 -1.9659 -2.4342
15707TIP3    H268537   1.785   6.625   2.775  0.9989  2.0597 -2.4919
15708TIP3   OH268538   0.541   2.790  17.090 -0.1105  0.5221 -1.0888
15708TIP3    H168539   0.594   2.711  17.100  1.2232  1.5786  0.7040
15708TIP3    H268540   0.603   2.857  17.063 -0.5622  1.7017  0.6649
15709TIP3   OH268541   2.043   2.713  10.306  0.5047  0.4961  0.0010
15709TIP3    H168542   2.060   2.659  10.384  0.5864  1.0734  0.3895
15709TIP3    H268543   1.960   2.680  10.271  0.3910  0.3282  0.4234
15710TIP3   OH268544   2.274   3.651   5.811  0.2309 -0.1942  0.8044
15710TIP3    H168545   2.221   3.621   5.884 -0.8075 -1.2671 -0.3271
15710TIP3    H268546   2.360   3.612   5.827  1.1332  2.4405  3.2183
15711TIP3   OH268547   2.842   2.699   2.274  0.1928  0.5378 -0.6394
15711TIP3    H168548   2.799   2.668   2.194  1.4473  0.7745 -1.4473
15711TIP3    H268549   2.800   2.782   2.293  0.1829  0.7004 -1.3301
15712TIP3   OH268550   4.224   6.765  14.099  0.6685 -0.1531 -0.0292
15712TIP3    H168551   4.250   6.765  14.006  1.2974  1.1657  0.1182
15712TIP3    H268552   4.306   6.778  14.146  0.3704 -0.9966  0.7351
15713TIP3   OH268553   5.204   6.598   4.876 -0.0945  0.1755 -0.5764
15713TIP3    H168554   5.235   6.651   4.803 -0.9677  1.9020  0.2525
15713TIP3    H268555   5.246   6.513   4.863  2.4903  1.4326 -1.1973
15714TIP3   OH268556   5.495   4.461  11.762  0.0735  0.2308  0.3306
15714TIP3    H168557   5.432   4.529  11.784  0.4797  0.4085  0.9543
15714TIP3    H268558   5.493   4.456  11.666 -0.3717  0.7223  0.3150
15715TIP3   OH268559   4.283   4.905   2.321  0.2921  0.5149 -0.1025
15715TIP3    H168560   4.225   4.953   2.262 -1.6752 -1.7698 -0.1799
15715TIP3    H268561   4.238   4.908   2.406  0.5515 -0.4237  0.0788
15716TIP3   OH268562   1.243   1.337   5.058 -0.0321 -0.2395 -0.3411
15716TIP3    H168563   1.269   1.332   4.966  1.1176  0.9460 -0.1266
15716TIP3    H268564   1.172   1.400   5.060 -1.0238 -1.3226 -0.5715
15717TIP3   OH268565   3.900   4.232  13.460  0.4940 -0.2577 -0.0697
15717TIP3    H168566   3.877   4.306  13.405  1.8662  1.6898  1.8137
15717TIP3    H268567   3.973   4.190  13.415  0.4791  0.2555 -0.5816
15718TIP3   OH268568   0.525   3.027   3.938 -0.0643  0.0808 -0.4343
15718TIP3    H168569   0.481   2.942   3.942  1.1197 -0.7312 -2.7136
15718TIP3    H268570   0.484   3.079   4.007 -1.5753 -1.9828  0.3158
15719TIP3   OH268571   6.690   2.075  10.683 -0.8182 -0.0012  0.2366
15719TIP3    H168572   6.723   2.080  10.593  0.7722 -0.2610  0.7760
15719TIP3    H268573   6.756   2.025  10.730 -2.0023 -0.5220  1.4027
15720TIP3   OH268574   2.873   3.249  12.337  0.3271  0.0579 -0.0986
15720TIP3    H168575   2.823   3.281  12.262  1.3497  1.4234 -0.2489
15720TIP3    H268576   2.879   3.325  12.395 -0.8796 -1.0979  1.6469
15721TIP3   OH268577   4.074   6.591  11.862 -0.1942 -0.2971 -0.4405
15721TIP3    H168578   4.006   6.631  11.915  0.8646 -0.6766  1.2599
15721TIP3    H268579   4.028   6.560  11.783 -2.0331 -0.7974  0.7756
15722TIP3   OH268580   3.284   3.757  13.987 -0.5882 -0.0192 -0.6044
15722TIP3    H168581   3.338   3.828  13.953  1.2597  0.3041  2.6040
15722TIP3    H268582   3.199   3.798  14.003  0.9186  2.2219  2.8816
15723TIP3   OH268583   6.377   3.792  13.735  0.4189 -0.6414 -0.7798
15723TIP3    H168584   6.399   3.760  13.648 -0.9976 -2.7296 -0.4450
15723TIP3    H268585   6.356   3.713  13.785  0.3917  0.5606  1.2377
15724TIP3   OH268586   6.367   5.536  15.457  0.5274  1.0300  0.2492
15724TIP3    H168587   6.416   5.616  15.476  0.9884  0.9111 -0.3870
15724TIP3    H268588   6.433   5.475  15.424 -0.1579  1.1429 -1.4403
15725TIP3   OH268589   4.334   5.780   6.320  0.0397  0.2305  0.8991
15725TIP3    H168590   4.370   5.777   6.408 -1.5841 -0.3558  1.5792
15725TIP3    H268591   4.374   5.706   6.275  0.4472  0.1980  1.3116
15726TIP3   OH268592   5.570   3.950  15.808  0.1754 -0.0512  0.7600
15726TIP3    H168593   5.523   4.001  15.873  0.4008  0.0687  0.8301
15726TIP3    H268594   5.519   3.960  15.728 -0.4005 -0.6381  1.0406
15727TIP3   OH268595   4.176   0.487  15.794 -0.3223  0.0605  0.1371
15727TIP3    H168596   4.181   0.507  15.887  0.8383  1.4597 -0.1905
15727TIP3    H268597   4.082   0.476  15.777 -0.5787  0.2228  1.3838
15728TIP3   OH268598   1.132   4.685   0.131 -0.7191 -0.6588 -0.3123
15728TIP3    H168599   1.062   4.747   0.147  1.7679  2.0723  0.8287
15728TIP3    H268600   1.143   4.685   0.036 -0.6155  0.8709 -0.3210
15729TIP3   OH268601   3.099   1.001  15.027  0.0833 -0.0233  0.1115
15729TIP3    H168602   3.166   1.069  15.014 -1.2908  1.0626 -1.7808
15729TIP3    H268603   3.135   0.923  14.985 -0.4237  1.0050 -2.4527
15730TIP3   OH268604   0.497   3.878   0.254  0.0074 -0.1823  0.4887
15730TIP3    H168605   0.584   3.865   0.219 -0.8306 -4.2153 -0.6295
15730TIP3    H268606   0.501   3.843   0.343 -0.7492 -2.0753 -0.1600
15731TIP3   OH268607   4.217   4.795  10.702 -0.2301  0.6557  0.0852
15731TIP3    H168608   4.178   4.876  10.669 -1.7949 -0.3530 -0.6672
15731TIP3    H268609   4.218   4.807  10.797 -0.2983  1.6020 -0.0193
15732TIP3   OH268610   0.047   5.858  15.783  0.0052 -1.0071 -0.2352
15732TIP3    H168611   0.117   5.923  15.773 -1.3208  1.0968  2.6186
15732TIP3    H268612   0.093   5.776  15.799  1.7730 -0.3623 -1.5951
15733TIP3   OH268613   3.803   2.524   2.333  0.1175  0.5385 -0.4211
15733TIP3    H168614   3.795   2.532   2.428  0.3279 -0.2362 -0.3299
15733TIP3    H268615   3.750   2.448   2.311  1.9832 -0.7671 -0.6059
15734TIP3   OH268616   4.977   2.836  12.229 -0.2535 -0.1588  0.3209
15734TIP3    H168617   4.897   2.813  12.182 -1.1845  1.4399  1.0407
15734TIP3    H268618   4.948   2.897  12.297  1.4301 -0.3932  1.3079
15735TIP3   OH268619   5.346   4.699  15.526 -0.1300 -0.0927 -0.3502
15735TIP3    H168620   5.330   4.776  15.473 -0.1514  0.1013 -0.0634
15735TIP3    H268621   5.268   4.691  15.581 -0.3531 -0.6099 -0.7302
15736TIP3   OH268622   1.674   6.486  13.201  0.0435  0.7149  0.1603
15736TIP3    H168623   1.578   6.491  13.204  0.1076  1.9853  0.2998
15736TIP3    H268624   1.695   6.409  13.254 -0.9141  0.2170 -0.1521
15737TIP3   OH268625   2.073   5.794   5.215  0.3727 -0.3198 -0.4720
15737TIP3    H168626   2.048   5.762   5.128 -1.1494  1.5569 -0.7910
15737TIP3    H268627   2.011   5.865   5.233  2.8639  1.7164  0.6295
15738TIP3   OH268628   1.718   4.895   3.178 -0.2096  0.2262  0.0301
15738TIP3    H168629   1.637   4.869   3.135  0.3510  0.3591 -1.1475
15738TIP3    H268630   1.782   4.900   3.107  0.7328  0.5183  0.8803
15739TIP3   OH268631   4.971   5.671  12.886 -0.0070  0.0740  0.4638
15739TIP3    H168632   4.882   5.706  12.883 -0.0429 -0.0090  0.5529
15739TIP3    H268633   5.026   5.746  12.910  0.3874  0.9440 -2.7568
15740TIP3   OH268634   6.718   1.683   3.929  0.5171 -0.3573 -0.1039
15740TIP3    H168635   6.704   1.621   4.001 -0.7060  1.6881  1.5586
15740TIP3    H268636   6.808   1.712   3.940  0.6625 -0.8174 -0.0544
15741TIP3   OH268637   3.485   1.215   4.386 -0.5909  0.5101 -0.1650
15741TIP3    H168638   3.485   1.152   4.458 -2.5468 -0.1971 -0.6908
15741TIP3    H268639   3.543   1.176   4.320 -1.3273 -0.5123 -0.2471
15742TIP3   OH268640   4.764   4.741   5.613  0.3388 -0.1886 -0.0392
15742TIP3    H168641   4.706   4.708   5.544  2.6803 -1.9060 -1.2995
15742TIP3    H268642   4.825   4.799   5.568  2.0277 -1.4784  0.4842
15743TIP3   OH268643   1.862   2.792  15.475  0.3419 -0.2669 -0.5044
15743TIP3    H168644   1.902   2.706  15.459 -0.3127 -0.4059 -1.4703
15743TIP3    H268645   1.774   2.784  15.439  0.3409  0.8844 -0.7883
15744TIP3   OH268646   1.558   1.479  12.612 -0.1101 -0.0116  0.4059
15744TIP3    H168647   1.619   1.546  12.642  0.2114  0.2085 -0.6819
15744TIP3    H268648   1.472   1.511  12.638  0.0853  0.5847  0.3174
15745TIP3   OH268649   3.106   1.895   0.773 -0.0197  0.0505 -0.1894
15745TIP3    H168650   3.162   1.820   0.752  1.1672  1.0389 -0.7060
15745TIP3    H268651   3.113   1.904   0.868  1.3515  0.6363 -0.3301
15746TIP3   OH268652   5.491   3.057   2.129  0.3273 -0.5366 -0.2316
15746TIP3    H168653   5.511   3.150   2.119 -3.2462  0.6950  2.0545
15746TIP3    H268654   5.510   3.039   2.221 -0.2948 -1.6926 -0.3126
15747TIP3   OH268655   6.719   4.426  10.273 -0.0268  0.2779  0.3900
15747TIP3    H168656   6.627   4.436  10.295  0.1387 -0.6602  1.5883
15747TIP3    H268657   6.742   4.507  10.227 -1.3665  0.6362  0.3288
15748TIP3   OH268658   3.266   0.723  12.388 -0.2884  0.1724 -0.0399
15748TIP3    H168659   3.234   0.756  12.304 -0.3078 -1.2932 -0.6325
15748TIP3    H268660   3.188   0.703  12.438 -0.4541 -3.3761 -1.4733
15749TIP3   OH268661   6.004   5.072   1.576  0.1829  0.2782 -0.0819
15749TIP3    H168662   6.062   5.088   1.651  0.9859 -0.3716 -0.5429
15749TIP3    H268663   5.953   4.995   1.602  0.7700 -0.2183 -0.3532
15750TIP3   OH268664   1.988   4.614   0.284 -0.5144  0.0757 -0.2160
15750TIP3    H168665   1.896   4.636   0.295 -0.8084 -1.4451  0.6755
15750TIP3    H268666   2.027   4.628   0.371  0.0456  0.4995 -0.5295
15751TIP3   OH268667   5.544   5.399   1.725 -0.2426 -0.0637  0.1014
15751TIP3    H168668   5.594   5.465   1.773  1.0476  0.4956 -1.8617
15751TIP3    H268669   5.565   5.416   1.633 -2.4148 -1.2075 -0.6780
15752TIP3   OH268670   6.729   1.353   1.456 -0.4176 -0.2579  0.0329
15752TIP3    H168671   6.680   1.284   1.500 -0.8600  0.0210 -0.0115
15752TIP3    H268672   6.780   1.395   1.525 -1.2523  0.3001  0.3186
15753TIP3   OH268673   5.009   5.570  15.539 -0.3384  0.0512  0.1886
15753TIP3    H168674   4.950   5.624  15.591  0.9594  0.6503  1.0915
15753TIP3    H268675   5.051   5.632  15.480 -1.6041 -0.5793 -1.4585
15754TIP3   OH268676   2.297   6.629  13.217 -0.0265 -0.7988  0.2717
15754TIP3    H168677   2.334   6.568  13.153  1.7626  1.1930 -0.7256
15754TIP3    H268678   2.269   6.704  13.165 -1.7522 -0.5403  1.5029
15755TIP3   OH268679   4.972   2.746   3.835  0.1355  0.5530 -0.0937
15755TIP3    H168680   5.032   2.676   3.863  1.4900  1.4608 -0.6320
15755TIP3    H268681   5.027   2.824   3.829 -0.8281  1.1526 -1.8308
15756TIP3   OH268682   5.084   1.425  14.636 -0.2075 -0.3000 -0.5032
15756TIP3    H168683   5.081   1.485  14.561 -0.1855 -2.4051 -2.2936
15756TIP3    H268684   5.016   1.361  14.618  1.3563 -2.2030  0.0634
15757TIP3   OH268685   4.623   1.446  12.409 -0.2202  0.2570  0.9929
15757TIP3    H168686   4.688   1.515  12.423 -0.6368  0.8428  0.1265
15757TIP3    H268687   4.560   1.457  12.480 -0.2669  0.7653  0.8800
15758TIP3   OH268688   5.487   6.159   3.313  0.1860  0.4872 -0.8876
15758TIP3    H168689   5.480   6.249   3.346 -0.5815 -0.2202  1.0417
15758TIP3    H268690   5.512   6.107   3.390 -2.5280 -1.3953 -1.1387
15759TIP3   OH268691   6.754   4.156  12.341  0.3139  0.3966 -0.0330
15759TIP3    H168692   6.732   4.219  12.409  1.3301  2.1844 -1.2615
15759TIP3    H268693   6.847   4.172  12.323  0.9445 -2.2836  0.3777
15760TIP3   OH268694   6.579   0.876   2.403  0.0488 -0.0627 -0.2086
15760TIP3    H168695   6.535   0.843   2.325 -2.0953 -3.7203  2.2389
15760TIP3    H268696   6.644   0.809   2.424 -0.4143  0.0911  1.8985
15761TIP3   OH268697   4.302   1.924  13.178 -0.0405 -0.0875 -0.2674
15761TIP3    H168698   4.303   1.899  13.270 -0.1098  0.4769 -0.1118
15761TIP3    H268699   4.215   1.898  13.147 -0.3614  0.5715  0.0651
15762TIP3   OH268700   2.693   5.907   1.898 -0.1391  0.0847 -0.5353
15762TIP3    H168701   2.664   5.985   1.851 -0.9468 -0.9985 -1.9039
15762TIP3    H268702   2.642   5.835   1.860  0.7459 -1.1594  0.5189
15763TIP3   OH268703   2.032   2.292  14.840 -0.3241  0.8900 -0.0093
15763TIP3    H168704   2.094   2.364  14.856  1.2738 -0.7139  1.5908
15763TIP3    H268705   1.947   2.335  14.832  0.2513  2.8580  2.8189
15764TIP3   OH268706   4.575   1.727  12.692 -0.1832  0.1233 -0.0568
15764TIP3    H168707   4.544   1.788  12.758 -0.7167 -1.5579  1.3360
15764TIP3    H268708   4.660   1.697  12.725  1.6618  2.3771 -2.3070
15765TIP3   OH268709   3.880   5.582  12.930  0.6315  0.0331  0.7535
15765TIP3    H168710   3.799   5.623  12.960  0.5043 -0.6996  1.4515
15765TIP3    H268711   3.898   5.624  12.845 -0.8065 -0.2172  0.2842
15766TIP3   OH268712   2.844   0.907  10.871 -0.1751  0.1020 -0.1344
15766TIP3    H168713   2.833   0.886  10.778 -1.2274  0.9500 -0.2201
15766TIP3    H268714   2.759   0.940  10.898  0.2787  0.3741  1.0023
15767TIP3   OH268715   6.552   6.207  16.851  0.2852 -0.1116 -0.4793
15767TIP3    H168716   6.533   6.258  16.930  0.9542  0.5016 -0.6971
15767TIP3    H268717   6.478   6.148  16.842 -0.7945  1.2162 -0.5406
15768TIP3   OH268718   3.774   4.404   0.630  0.6243  0.1534 -0.1156
15768TIP3    H168719   3.864   4.416   0.660  1.6066 -2.4099 -1.6862
15768TIP3    H268720   3.771   4.313   0.599 -2.5679  0.0877  0.0150
15769TIP3   OH268721   3.569   3.612   5.843  0.4935  0.5248  0.4675
15769TIP3    H168722   3.638   3.622   5.909 -0.9218 -0.4717  2.1898
15769TIP3    H268723   3.548   3.701   5.817 -0.1461  1.1113  2.7662
15770TIP3   OH268724   5.099   2.027  13.716 -0.1618  0.2386 -0.5034
15770TIP3    H168725   5.149   2.012  13.635 -0.2912 -1.0948 -0.3477
15770TIP3    H268726   5.122   2.117  13.741  1.5496 -0.0638 -0.8561
15771TIP3   OH268727   2.264   0.075  16.903  0.2279 -0.3380 -0.5448
15771TIP3    H168728   2.222  -0.007  16.930  2.6477 -2.4131 -2.5355
15771TIP3    H268729   2.309   0.106  16.982 -0.4791 -1.0908  0.1731
15772TIP3   OH268730   2.736   4.452  15.837 -0.8489 -0.0003 -0.2062
15772TIP3    H168731   2.815   4.425  15.791  0.4056  0.6993  1.4469
15772TIP3    H268732   2.718   4.381  15.899 -0.2886  0.7569  0.8521
15773TIP3   OH268733   4.729   2.048  12.637 -0.7154  0.1627  0.2770
15773TIP3    H168734   4.726   1.981  12.569 -1.3748 -0.3080  0.7588
15773TIP3    H268735   4.763   2.003  12.714  0.1208  0.7174  0.2403
15774TIP3   OH268736   2.631   1.342   2.667 -0.4347  0.4286  0.2838
15774TIP3    H168737   2.549   1.384   2.641 -0.4592 -0.0435 -0.4273
15774TIP3    H268738   2.671   1.314   2.584 -0.5516 -1.1887  0.7427
15775TIP3   OH268739   1.017   2.686  10.200  0.4009 -0.0177 -0.0562
15775TIP3    H168740   1.104   2.722  10.215  0.3513  0.7491 -1.3803
15775TIP3    H268741   0.958   2.749  10.241  0.4610 -0.4892  0.7613
15776TIP3   OH268742   5.989   2.402  15.476  0.4758 -0.0384 -0.4084
15776TIP3    H168743   5.904   2.357  15.481  0.7782 -0.6619 -0.8044
15776TIP3    H268744   6.053   2.332  15.464  0.7389  0.6164 -3.6330
15777TIP3   OH268745   1.468   4.695   2.386  0.1266 -0.1281 -0.0985
15777TIP3    H168746   1.412   4.707   2.462 -0.0001  1.7030 -0.4294
15777TIP3    H268747   1.549   4.658   2.421 -0.1664  0.0807  0.8244
15778TIP3   OH268748   1.975   0.467   0.912  0.3102  0.3858  0.4754
15778TIP3    H168749   1.938   0.417   0.840 -2.4796 -0.3890  2.2478
15778TIP3    H268750   1.933   0.553   0.906  0.7473  0.6149  0.6458
15779TIP3   OH268751   6.601   4.213  11.338 -0.0226 -0.0404 -0.2977
15779TIP3    H168752   6.639   4.132  11.371 -0.2324 -0.3403 -0.7865
15779TIP3    H268753   6.507   4.201  11.347 -0.0327  0.8867  1.3574
15780TIP3   OH268754   1.128   4.259   1.025  0.1389 -0.5573  0.5380
15780TIP3    H168755   1.218   4.287   1.044  0.2755 -0.6656  0.0807
15780TIP3    H268756   1.121   4.266   0.930 -0.4304 -0.2919  0.6001
15781TIP3   OH268757   2.943   2.842  15.008  0.4689 -0.0126  0.5255
15781TIP3    H168758   2.942   2.779  14.935 -0.3190  1.3665 -0.7075
15781TIP3    H268759   2.884   2.804  15.073 -0.6449 -0.1923 -0.5497
15782TIP3   OH268760   2.754   2.016  14.709  0.0525  0.1055  0.7057
15782TIP3    H168761   2.815   1.960  14.661 -1.1399 -0.2366 -0.4976
15782TIP3    H268762   2.796   2.101  14.713  1.6962 -0.7133  2.1479
15783TIP3   OH268763   1.826   1.935  11.645  0.2162  0.4998  0.2431
15783TIP3    H168764   1.765   1.986  11.698 -1.0970 -1.5780  0.8608
15783TIP3    H268765   1.785   1.929  11.559  0.2775  0.3452  0.2235
15784TIP3   OH268766   4.503   2.602   2.794  0.3878  0.1599  0.2749
15784TIP3    H168767   4.542   2.515   2.780  0.5143 -0.0141  1.5763
15784TIP3    H268768   4.497   2.640   2.706  2.1361 -0.3900 -0.1167
15785TIP3   OH268769   0.099   4.303  11.948 -0.2613  0.1568  0.0578
15785TIP3    H168770   0.049   4.239  11.998 -2.0498  0.6469 -0.9774
15785TIP3    H268771   0.189   4.293  11.978 -0.8493 -1.2976  1.4895
15786TIP3   OH268772   0.593   1.159  16.631  0.0952  0.0414 -0.0858
15786TIP3    H168773   0.611   1.226  16.697  2.1249 -1.9449  1.5489
15786TIP3    H268774   0.612   1.202  16.548  0.2842  1.7919  0.8040
15787TIP3   OH268775   0.258   0.796   2.553 -0.3712  0.0010 -0.6484
15787TIP3    H168776   0.214   0.876   2.526  2.1216  1.5387 -0.4245
15787TIP3    H268777   0.315   0.774   2.480  1.9281  0.7776  0.8129
15788TIP3   OH268778   4.103   1.243   4.628  0.0798  0.1682  0.0654
15788TIP3    H168779   4.145   1.161   4.600  1.6451  1.3562 -1.2705
15788TIP3    H268780   4.133   1.308   4.564 -2.9299  1.3660 -0.2720
15789TIP3   OH268781   2.321   4.527  14.057  0.5787  0.0967 -0.1010
15789TIP3    H168782   2.401   4.578  14.045  0.7940 -0.4634 -1.2031
15789TIP3    H268783   2.306   4.485  13.972  0.0636 -1.1684  0.5852
15790TIP3   OH268784   2.083   4.570  11.410  0.7993  0.1276  0.3914
15790TIP3    H168785   1.988   4.577  11.408  0.8928  1.9908  1.0033
15790TIP3    H268786   2.113   4.622  11.335  1.3681  0.9197  1.1472
15791TIP3   OH268787   0.340   2.161  16.563 -0.3211 -0.0937  0.7329
15791TIP3    H168788   0.293   2.212  16.497 -0.2403 -1.4067 -0.3894
15791TIP3    H268789   0.414   2.123  16.516 -0.0223 -0.7382  1.6848
15792TIP3   OH268790   5.281   3.720   1.648 -0.7611 -0.0696 -0.0587
15792TIP3    H168791   5.246   3.765   1.571  0.8661 -0.9425 -1.3745
15792TIP3    H268792   5.367   3.760   1.661 -0.7879 -0.3301  0.9591
15793TIP3   OH268793   2.043   5.323  15.406  0.2721  0.3652 -0.1647
15793TIP3    H168794   2.056   5.417  15.390 -1.6195  0.8902  0.9626
15793TIP3    H268795   2.001   5.291  15.326 -0.9389  0.9772  0.1905
15794TIP3   OH268796   3.280   6.552   5.913 -0.6218 -0.1860  0.0333
15794TIP3    H168797   3.253   6.517   5.997 -0.4231  1.8882  1.0357
15794TIP3    H268798   3.351   6.613   5.934  1.3910 -1.6606 -1.9491
15795TIP3   OH268799   5.202   5.091  11.522 -0.3373  0.4081  0.2309
15795TIP3    H168800   5.182   5.104  11.429 -0.7468 -3.5559 -0.4112
15795TIP3    H268801   5.298   5.098  11.526 -0.3512  1.0738 -0.4099
15796TIP3   OH268802   1.165   5.585   4.548  0.4919 -0.3337 -0.3742
15796TIP3    H168803   1.227   5.631   4.492  2.6414 -1.4975  0.9361
15796TIP3    H268804   1.121   5.655   4.597  1.3328  0.4921 -0.7606
15797TIP3   OH268805   0.281   1.315  15.507  0.0950  0.4536 -0.4182
15797TIP3    H168806   0.261   1.404  15.537 -0.7364  0.0794  0.1373
15797TIP3    H268807   0.199   1.282  15.472  0.7011  0.3464 -1.7992
15798TIP3   OH268808   1.772   3.114   2.064  0.5254 -0.1745 -0.3405
15798TIP3    H168809   1.767   3.206   2.040  1.8543 -0.2532 -0.9898
15798TIP3    H268810   1.729   3.110   2.150 -0.0597  0.9350 -0.5585
15799TIP3   OH268811   1.187   4.442   5.020  0.1313 -0.5158 -0.0143
15799TIP3    H168812   1.206   4.466   5.110  0.9206 -0.1373 -0.2714
15799TIP3    H268813   1.243   4.499   4.968  1.3570 -2.2601 -0.6850
15800TIP3   OH268814   3.860   5.781  17.222  0.1334 -0.6878 -0.0388
15800TIP3    H168815   3.814   5.740  17.295  0.7787 -1.4977 -0.0808
15800TIP3    H268816   3.797   5.777  17.149 -0.7221  0.6166  0.5894
15801TIP3   OH268817   1.995   2.376   0.806 -0.2138 -0.5788  0.1243
15801TIP3    H168818   2.014   2.462   0.767  1.7340 -1.4553 -1.0275
15801TIP3    H268819   1.907   2.385   0.842  0.6763  2.5998  2.0108
15802TIP3   OH268820   2.974   0.035  13.446  0.8922 -0.3588  0.6408
15802TIP3    H168821   3.048  -0.019  13.473  1.2490  0.3418  1.1036
15802TIP3    H268822   3.014   0.117  13.417  0.3300 -0.1647  0.3941
15803TIP3   OH268823   4.891   4.453   5.463  0.1084  0.4259  0.2129
15803TIP3    H168824   4.819   4.516   5.466 -0.9082 -0.7244  0.8121
15803TIP3    H268825   4.947   4.484   5.392 -1.5096  0.8010 -0.9504
15804TIP3   OH268826   5.411   2.243   1.635 -0.3330 -0.0002  0.4645
15804TIP3    H168827   5.433   2.150   1.642  0.2678 -0.1393 -2.2195
15804TIP3    H268828   5.380   2.254   1.545  3.6335  3.0749 -0.8304
15805TIP3   OH268829   1.340   4.254   4.279  0.0827 -0.5763 -0.5857
15805TIP3    H168830   1.289   4.228   4.356 -2.2939  1.7028 -1.2578
15805TIP3    H268831   1.297   4.210   4.206  1.2705 -1.3347 -0.8740
15806TIP3   OH268832   2.529   3.519   5.834  0.2107 -0.2869 -0.1291
15806TIP3    H168833   2.624   3.516   5.842  0.2327 -0.7343 -0.5538
15806TIP3    H268834   2.510   3.475   5.751 -0.1651  2.1498 -1.4467
15807TIP3   OH268835   5.057   4.614   4.425  0.0128 -0.4020  0.3374
15807TIP3    H168836   5.013   4.601   4.509 -0.8862  1.6479  0.2231
15807TIP3    H268837   5.075   4.708   4.421  1.1643 -0.6506 -1.2320
15808TIP3   OH268838   2.331   2.237  11.474  0.1733 -0.3231  0.0022
15808TIP3    H168839   2.375   2.294  11.411  1.5479  0.2464  1.4195
15808TIP3    H268840   2.396   2.170  11.496 -0.3650 -0.6611  0.6076
15809TIP3   OH268841   4.905   3.342   0.210  0.5069  0.0419  0.0778
15809TIP3    H168842   4.877   3.391   0.132 -0.1216  0.7128  0.6993
15809TIP3    H268843   4.994   3.313   0.190  0.2102 -0.1595 -1.0508
15810TIP3   OH268844   5.065   5.438   5.357  0.4441  0.3730 -0.2991
15810TIP3    H168845   5.009   5.380   5.409 -0.0247  2.1291  1.2584
15810TIP3    H268846   5.005   5.501   5.318  1.1032  0.9045 -0.4704
15811TIP3   OH268847   5.551   0.878  13.851 -0.1732 -0.2675  0.3233
15811TIP3    H168848   5.485   0.931  13.806 -1.1620 -1.1659  0.6859
15811TIP3    H268849   5.616   0.942  13.881  0.4084  0.3995 -2.1165
15812TIP3   OH268850   6.275   3.585   1.148  0.6064  0.1746 -0.3308
15812TIP3    H168851   6.345   3.645   1.176  0.9458 -0.5945  0.5255
15812TIP3    H268852   6.261   3.528   1.224 -0.3518 -0.2437 -0.8079
15813TIP3   OH268853   6.690   5.050   3.473 -0.5149 -0.2415 -0.1385
15813TIP3    H168854   6.699   5.089   3.386 -0.5666  1.5749  0.6219
15813TIP3    H268855   6.780   5.042   3.506 -0.4570 -1.4088 -0.5267
15814TIP3   OH268856   4.036   1.880  12.846  0.0839  0.9083  0.2552
15814TIP3    H168857   4.063   1.957  12.897  1.1172 -0.5546  2.0440
15814TIP3    H268858   3.962   1.844  12.896  0.4341  0.0347  0.1472
15815TIP3   OH268859   2.079   6.374  14.147 -0.4662  0.5472 -0.1454
15815TIP3    H168860   2.043   6.332  14.070  2.1757 -1.5381 -0.3800
15815TIP3    H268861   2.170   6.392  14.125  0.1592  0.6605  2.1978
15816TIP3   OH268862   2.860   3.350   2.141  0.1797 -0.1345 -0.2494
15816TIP3    H168863   2.795   3.336   2.071 -0.7358  1.1919  0.3052
15816TIP3    H268864   2.872   3.444   2.145 -0.4691 -0.0853  1.9695
15817TIP3   OH268865   1.001   1.937  16.575 -0.3356  0.1427  0.0712
15817TIP3    H168866   0.999   1.842  16.592 -0.7552 -0.0165 -0.7785
15817TIP3    H268867   1.073   1.969  16.628 -0.5233 -0.5715  0.7852
15818TIP3   OH268868   4.777   5.030   5.265  0.0456  0.6296 -0.3041
15818TIP3    H168869   4.834   4.953   5.272 -0.2980  0.2802 -1.2048
15818TIP3    H268870   4.810   5.076   5.188  0.3457  1.4817  0.3134
15819TIP3   OH268871   4.023   1.017  15.901  0.0760  0.7052  0.2104
15819TIP3    H168872   4.004   0.936  15.948 -0.0930  0.7360  0.1966
15819TIP3    H268873   4.085   0.991  15.833 -0.6759  0.4052 -0.3790
15820TIP3   OH268874   4.492   3.884  13.896  0.2950  0.0567 -0.0497
15820TIP3    H168875   4.549   3.844  13.961  0.3979  0.2505 -0.0208
15820TIP3    H268876   4.520   3.846  13.813  0.2442 -0.0991  0.0037
15821TIP3   OH268877   0.328   0.704   0.576  0.3878  0.2985  0.4834
15821TIP3    H168878   0.403   0.675   0.628  0.7867 -0.9633 -0.7580
15821TIP3    H268879   0.348   0.676   0.487 -1.2937  0.4669  0.0239
15822TIP3   OH268880   2.764   5.362   0.147 -0.2408 -0.3793 -0.1570
15822TIP3    H168881   2.679   5.359   0.189 -0.7288  1.2912 -0.9352
15822TIP3    H268882   2.800   5.447   0.171  1.5146 -1.3077  0.6747
15823TIP3   OH268883   5.174   0.348   0.339  0.4085  0.3328  0.4995
15823TIP3    H168884   5.210   0.318   0.256 -1.4267 -0.1623 -0.1640
15823TIP3    H268885   5.083   0.370   0.319  0.4595  2.0759  1.9626
15824TIP3   OH268886   2.599   0.395   0.610 -0.2370  0.1954 -0.5626
15824TIP3    H168887   2.602   0.397   0.515  2.3065 -1.5893 -0.6312
15824TIP3    H268888   2.517   0.351   0.632 -0.9486  0.8233 -1.8776
15825TIP3   OH268889   5.712   4.429   4.996  0.1928  0.2817 -0.5156
15825TIP3    H168890   5.700   4.465   4.908 -0.0210 -0.4776 -0.8104
15825TIP3    H268891   5.655   4.351   4.997  0.2487  0.2509  0.2685
15826TIP3   OH268892   4.688   4.299   0.144  0.6924  0.2873  0.2792
15826TIP3    H168893   4.775   4.274   0.112 -0.3554 -2.9202 -0.4552
15826TIP3    H268894   4.685   4.265   0.234  0.1430  0.1639  0.2175
15827TIP3   OH268895   0.648   6.394  12.513 -0.2350  0.0974  0.1551
15827TIP3    H168896   0.633   6.487  12.530  1.3153  0.5066 -0.4609
15827TIP3    H268897   0.596   6.348  12.579 -2.1848  1.3414 -0.4477
15828TIP3   OH268898   2.387   0.680  15.606  0.0916 -0.0150  0.6201
15828TIP3    H168899   2.356   0.653  15.692 -0.4557 -1.9155 -0.1204
15828TIP3    H268900   2.322   0.744  15.576 -0.9874 -1.0508  0.6980
15829TIP3   OH268901   6.279   5.657   0.730 -0.2993  0.4019 -0.0817
15829TIP3    H168902   6.213   5.669   0.798 -0.1493  2.8773 -0.2779
15829TIP3    H268903   6.359   5.694   0.768 -0.1107  1.4005 -1.3708
15830TIP3   OH268904   4.932   1.251   6.960 -0.5257 -0.0159 -0.2255
15830TIP3    H168905   4.970   1.337   6.943 -1.6663  0.4675 -0.4186
15830TIP3    H268906   4.944   1.203   6.878 -0.4029  0.1604 -0.3119
15831TIP3   OH268907   1.529   4.465   1.581 -0.2638  0.1107  0.6011
15831TIP3    H168908   1.461   4.406   1.615 -0.8356  0.5917  0.3302
15831TIP3    H268909   1.514   4.466   1.486 -0.8603  1.3748  0.6788
15832TIP3   OH268910   1.167   6.486   4.383  0.2191  0.2941 -0.0497
15832TIP3    H168911   1.164   6.396   4.352 -0.6953  0.6094 -0.9362
15832TIP3    H268912   1.250   6.493   4.430  0.0019 -1.1817  0.6123
15833TIP3   OH268913   5.939   4.298   5.672 -0.0287  0.4175 -0.7652
15833TIP3    H168914   5.917   4.311   5.764  0.7577  1.3170 -0.6811
15833TIP3    H268915   6.010   4.360   5.656 -0.6434  0.7955 -2.1636
15834TIP3   OH268916   0.723   2.521  16.508  0.2900  0.0796  0.5782
15834TIP3    H168917   0.813   2.497  16.487  0.3120  1.0614 -0.5554
15834TIP3    H268918   0.724   2.535  16.603  1.5222  0.8205  0.4758
15835TIP3   OH268919   4.019   2.775  12.911  0.3580  0.0065  0.4174
15835TIP3    H168920   4.055   2.725  12.984 -0.7458 -0.0025  0.9685
15835TIP3    H268921   4.022   2.866  12.941 -1.1546 -0.1022  0.9547
15836TIP3   OH268922   2.681   6.204   5.712 -0.1434  0.5196  0.6595
15836TIP3    H168923   2.740   6.143   5.757 -1.7589  0.2043  2.5141
15836TIP3    H268924   2.595   6.161   5.716 -0.4022  0.3849 -3.0288
15837TIP3   OH268925   5.095   6.661  14.834 -0.5082  0.0950  0.3091
15837TIP3    H168926   5.152   6.669  14.758 -2.1916  1.0468 -0.9251
15837TIP3    H268927   5.073   6.568  14.838 -1.0675  0.1635 -0.8983
15838TIP3   OH268928   0.440   6.433   5.245  0.2203 -0.0770  0.3464
15838TIP3    H168929   0.384   6.366   5.285  1.4480 -1.4900 -0.1662
15838TIP3    H268930   0.499   6.383   5.188  1.4790  1.4256  0.2638
15839TIP3   OH268931   2.289   4.938   5.867 -0.5014  0.0055 -0.2787
15839TIP3    H168932   2.304   4.890   5.948 -1.1920  0.6305  0.2366
15839TIP3    H268933   2.281   4.871   5.800 -0.5028 -0.5483  0.2708
15840TIP3   OH268934   3.939   1.539   3.977 -0.6977 -0.0210  0.1760
15840TIP3    H168935   3.965   1.630   3.996 -2.2199  0.6382 -0.7328
15840TIP3    H268936   4.022   1.492   3.973  0.3304  1.7603 -1.4705
15841TIP3   OH268937   4.651   1.999  14.274 -0.0153  0.2550  0.2611
15841TIP3    H168938   4.679   2.068  14.334  1.7164  0.8198 -1.0809
15841TIP3    H268939   4.678   1.918  14.317  0.1431  0.5773  0.7827
15842TIP3   OH268940   3.435   1.325  14.299  0.3250 -0.2996 -0.7317
15842TIP3    H168941   3.416   1.405  14.348 -0.5976  0.3622 -2.1106
15842TIP3    H268942   3.488   1.272  14.359 -3.6349 -1.1644  2.4312
15843TIP3   OH268943   4.590   0.739   2.562 -0.2758  0.1949  0.7257
15843TIP3    H168944   4.606   0.646   2.575  2.0783  0.2660 -0.9273
15843TIP3    H268945   4.595   0.778   2.649 -0.7566 -1.1355  1.3640
15844TIP3   OH268946   1.982   1.565   4.910  0.0564 -1.1814  0.0733
15844TIP3    H168947   1.984   1.550   5.004  2.2391  0.0921  0.3019
15844TIP3    H268948   2.022   1.486   4.872  1.1726 -0.7970  0.4091
15845TIP3   OH268949   4.108   4.707  13.267  0.2561 -0.0294 -0.6741
15845TIP3    H168950   4.176   4.758  13.224 -0.6836  1.0019 -1.0007
15845TIP3    H268951   4.050   4.679  13.195 -0.5564  0.5195 -0.2561
15846TIP3   OH268952   1.658   0.025   0.839  0.2613 -0.3385 -0.3746
15846TIP3    H168953   1.729   0.013   0.902  0.5950 -2.0404 -1.0224
15846TIP3    H268954   1.585  -0.025   0.876 -1.6258  3.4009  1.6146
15847TIP3   OH268955   5.183   6.657  15.350  0.2947 -0.2090  0.6366
15847TIP3    H168956   5.105   6.672  15.296  0.0321 -0.8508  0.8335
15847TIP3    H268957   5.175   6.567  15.380  0.3681  0.1834  1.8764
15848TIP3   OH268958   5.132   4.379   0.607 -0.6781  0.5059  0.0496
15848TIP3    H168959   5.193   4.446   0.577 -1.2106  1.2348  0.5434
15848TIP3    H268960   5.123   4.394   0.701 -1.0418 -0.0615  0.1140
15849TIP3   OH268961   3.243   5.237   6.438  0.4485  0.1851 -0.2884
15849TIP3    H168962   3.160   5.204   6.404 -0.1099 -0.6779  1.7288
15849TIP3    H268963   3.309   5.177   6.404  0.0974  0.1620 -0.9361
15850TIP3   OH268964   0.680   0.950   2.059 -0.3250  0.1153 -0.2836
15850TIP3    H168965   0.722   0.957   2.145 -1.0383  2.8514 -0.0804
15850TIP3    H268966   0.588   0.934   2.078 -0.0770 -2.0724 -0.6602
15851TIP3   OH268967   1.327   6.085  16.202  0.0467  0.9477 -0.4573
15851TIP3    H168968   1.372   6.082  16.118  0.4488  1.8900 -0.2918
15851TIP3    H268969   1.371   6.154  16.250 -2.6412  3.1722 -0.9236
15852TIP3   OH268970   1.117   0.914  14.733 -0.5915 -0.0652 -1.0038
15852TIP3    H168971   1.074   0.934  14.649 -2.9040  3.3110  0.7453
15852TIP3    H268972   1.199   0.871  14.708 -1.7669 -0.4539 -4.8923
15853TIP3   OH268973   3.251   1.660   2.259  0.4653  0.6286 -0.0254
15853TIP3    H168974   3.342   1.684   2.242  0.4239 -0.7779 -2.7020
15853TIP3    H268975   3.201   1.709   2.194 -0.2589 -1.3927 -1.0741
15854TIP3   OH268976   5.591   2.275  13.411  0.0846  0.8579 -0.0253
15854TIP3    H168977   5.543   2.199  13.376 -0.7535  1.3697 -0.0268
15854TIP3    H268978   5.622   2.247  13.497 -0.0363  0.4411 -0.1154
15855TIP3   OH268979   1.004   5.131   1.567 -0.4312 -0.3176 -0.0722
15855TIP3    H168980   1.002   5.049   1.517  0.8450 -0.6082  0.3192
15855TIP3    H268981   1.058   5.111   1.644  1.9115  1.4569 -1.1097
15856TIP3   OH268982   6.697   6.409   2.394  0.6382  0.6254  0.0450
15856TIP3    H168983   6.672   6.318   2.381  0.6706  0.8522 -1.9332
15856TIP3    H268984   6.618   6.459   2.371  0.6188  1.1209  1.1108
15857TIP3   OH268985   5.000   2.593   5.125  0.0213 -0.0665 -0.1324
15857TIP3    H168986   5.043   2.530   5.182 -0.2874  0.6665  0.9449
15857TIP3    H268987   5.072   2.639   5.082  0.2430 -1.2360 -1.0457
15858TIP3   OH268988   0.668   3.953   2.120  0.1151  0.1298  0.8513
15858TIP3    H168989   0.653   3.921   2.031  0.4872 -0.0117  0.8386
15858TIP3    H268990   0.662   4.048   2.112 -1.7263  0.0470  1.0295
15859TIP3   OH268991   0.701   2.095   1.465  0.3868 -0.5542 -0.4985
15859TIP3    H168992   0.748   2.177   1.473  0.5017 -0.5696 -0.9894
15859TIP3    H268993   0.769   2.029   1.452  0.4752 -1.0692  2.1270
15860TIP3   OH268994   0.169   1.755   2.109  0.2718  0.2271 -0.3209
15860TIP3    H168995   0.160   1.850   2.110  0.7262  0.2717 -0.3105
15860TIP3    H268996   0.230   1.736   2.180 -0.7419 -0.1720  0.4764
15861TIP3   OH268997   5.501   6.085  10.804 -0.1036 -0.0649 -0.2459
15861TIP3    H168998   5.572   6.141  10.834 -0.1286 -0.1943  0.0637
15861TIP3    H268999   5.543   6.002  10.782 -0.0031  0.2067 -1.1256
15862TIP3   OH269000   4.031   1.449  13.892 -0.4580 -0.5079 -0.1503
15862TIP3    H169001   3.942   1.419  13.910 -0.8663  0.0353 -1.1791
15862TIP3    H269002   4.022   1.504  13.814  0.5228  0.8519  0.6576
15863TIP3   OH269003   6.283   6.564   4.620 -0.0102 -0.3149 -0.5604
15863TIP3    H169004   6.324   6.486   4.657  0.3786  0.3609  0.4617
15863TIP3    H269005   6.311   6.636   4.677 -0.2334  0.6025 -1.5775
15864TIP3   OH269006   3.980   3.583  16.527  0.5612 -0.7997 -0.6248
15864TIP3    H169007   3.974   3.578  16.623 -1.2836 -1.2268 -0.7269
15864TIP3    H269008   4.047   3.519  16.504  0.9932 -0.7318  0.3714
15865TIP3   OH269009   5.503   3.676  16.379  0.3034  0.1258  0.5776
15865TIP3    H169010   5.493   3.589  16.417  1.7333 -0.4173 -0.2229
15865TIP3    H269011   5.497   3.735  16.454 -1.5522 -0.5511  1.0361
15866TIP3   OH269012   5.905   0.717   3.618  0.5173  0.0063 -0.0213
15866TIP3    H169013   5.976   0.666   3.656  0.3717  0.1636  0.4737
15866TIP3    H269014   5.832   0.655   3.610  0.0503  0.3402  1.4318
15867TIP3   OH269015   6.642   0.961  14.790  0.0017 -0.0174 -0.2084
15867TIP3    H169016   6.590   0.925  14.861 -1.0632  1.7104 -0.0628
15867TIP3    H269017   6.677   1.044  14.825  0.6684  0.1403 -1.1944
15868TIP3   OH269018   6.744   0.222  13.493  0.3971  0.2809  0.0993
15868TIP3    H169019   6.816   0.217  13.555  1.4663  0.6444 -1.0579
15868TIP3    H269020   6.726   0.316  13.485 -0.9666  0.1487  1.1812
15869TIP3   OH269021   6.335   5.923   1.491 -0.2220  0.1516 -0.4155
15869TIP3    H169022   6.419   5.880   1.475  0.8747  1.7562  0.7220
15869TIP3    H269023   6.328   5.991   1.424  0.2072  1.1046  0.4753
15870TIP3   OH269024   0.394   5.431   0.002  0.5066 -0.4856  0.1760
15870TIP3    H169025   0.443   5.385   0.070  0.1455 -2.1171 -0.6279
15870TIP3    H269026   0.418   5.388  -0.079  0.9376  1.4416 -0.7838
15871TIP3   OH269027   0.815   3.631   3.996  0.6004  0.2044  0.3340
15871TIP3    H169028   0.841   3.685   4.070  1.9691  2.4160 -1.6309
15871TIP3    H269029   0.727   3.661   3.973  1.8912  2.8697 -1.6566
15872TIP3   OH269030   1.079   2.414   1.837  0.6291  0.4266 -0.6766
15872TIP3    H169031   0.998   2.465   1.832  0.1786 -0.1572  0.4250
15872TIP3    H269032   1.117   2.420   1.749 -0.5244  0.8512 -1.1570
15873TIP3   OH269033   3.521   6.733  13.094  0.6434  0.3264 -0.2999
15873TIP3    H169034   3.501   6.642  13.113 -0.8405  0.6763 -0.0735
15873TIP3    H269035   3.436   6.775  13.083  1.2935  1.7027 -0.3311
15874TIP3   OH269036   2.487   2.594  15.982  0.0098  0.3944 -0.6782
15874TIP3    H169037   2.549   2.536  16.028  1.5114  0.8095 -2.0763
15874TIP3    H269038   2.407   2.542  15.975  0.7538 -0.8430 -0.3436
15875TIP3   OH269039   4.807   3.012  15.601  0.1593 -0.2117 -0.0173
15875TIP3    H169040   4.869   2.951  15.640  0.0792 -0.1403  0.2238
15875TIP3    H269041   4.766   2.963  15.529 -0.1469 -0.5551  0.3886
15876TIP3   OH269042   2.440   6.309   4.103  0.1491 -0.2673 -0.6530
15876TIP3    H169043   2.497   6.232   4.095 -0.8002 -0.8119 -3.1720
15876TIP3    H269044   2.492   6.380   4.066  0.2334 -0.1489 -0.3085
15877TIP3   OH269045   3.294   3.669  12.859  0.4488 -0.0527  0.0385
15877TIP3    H169046   3.207   3.629  12.857  0.6620 -0.5719  0.7655
15877TIP3    H269047   3.351   3.601  12.894  1.3564 -0.0875 -1.4329
15878TIP3   OH269048   3.628   5.196  15.189  0.5111 -0.0988  0.2138
15878TIP3    H169049   3.592   5.243  15.114  0.0679 -2.5435 -1.1966
15878TIP3    H269050   3.722   5.190  15.172  0.5248 -0.0120  0.2549
15879TIP3   OH269051   3.016   2.818   4.855  0.0748 -0.4289  0.9694
15879TIP3    H169052   2.941   2.794   4.801  1.5442 -0.0394 -1.3781
15879TIP3    H269053   3.066   2.737   4.865  0.7560 -0.1266  0.1249
15880TIP3   OH269054   3.573   6.458   3.288 -0.1478 -0.3444  0.2328
15880TIP3    H169055   3.610   6.405   3.359 -1.8347 -0.9756  0.6920
15880TIP3    H269056   3.481   6.465   3.310 -0.4959  0.3799 -1.3517
15881TIP3   OH269057   4.146   0.973  15.659  0.4907  0.6087 -0.7793
15881TIP3    H169058   4.129   0.885  15.625  0.9911  0.3411 -0.3384
15881TIP3    H269059   4.079   1.027  15.617 -1.2978 -0.3740  0.6649
15882TIP3   OH269060   4.988   5.959  16.243 -0.2571 -0.2346  0.0572
15882TIP3    H169061   4.946   5.922  16.321  0.7895  0.3931  0.9402
15882TIP3    H269062   5.041   6.032  16.276 -0.8862  0.9487 -1.4196
15883TIP3   OH269063   1.748   4.919  16.313  0.3776 -0.7427 -0.1076
15883TIP3    H169064   1.734   4.834  16.271  2.4477 -0.5996 -1.2466
15883TIP3    H269065   1.748   4.900  16.407  2.1267 -2.3078 -0.3488
15884TIP3   OH269066   0.615   6.384  14.495  0.1289  0.0419 -0.1032
15884TIP3    H169067   0.611   6.398  14.400  0.8859 -2.9207 -0.6813
15884TIP3    H269068   0.526   6.400  14.525 -0.3735  0.0504 -1.5013
15885TIP3   OH269069   1.122   3.813   6.664 -0.6956  0.1551  0.2849
15885TIP3    H169070   1.106   3.766   6.582 -2.6807 -1.7068  1.6452
15885TIP3    H269071   1.192   3.763   6.707 -0.5914  0.3320  0.3232
15886TIP3   OH269072   2.941   6.171   6.020 -0.4578 -0.1445  0.3687
15886TIP3    H169073   2.949   6.249   6.075  1.3161 -0.5721  0.7745
15886TIP3    H269074   3.009   6.111   6.052 -0.2161 -0.9190 -1.4560
15887TIP3   OH269075   3.513   3.622  15.468 -0.0952 -0.6282 -0.2414
15887TIP3    H169076   3.501   3.667  15.384  0.7089  1.9510  0.9034
15887TIP3    H269077   3.603   3.589  15.465 -0.1249 -0.6853 -0.4706
15888TIP3   OH269078   5.438   6.544   4.050  0.0886 -0.5930 -1.0165
15888TIP3    H169079   5.450   6.610   3.982  0.4162 -1.4972 -1.8644
15888TIP3    H269080   5.526   6.524   4.080 -0.0861  0.2370  0.1441
15889TIP3   OH269081   3.633   4.568  12.818 -0.6321 -0.0644 -0.2449
15889TIP3    H169082   3.689   4.611  12.753  0.2820  0.0226  0.5693
15889TIP3    H269083   3.683   4.490  12.844 -1.2507 -0.4053 -0.0636
15890TIP3   OH269084   6.186   1.401  12.151 -0.4391  0.5003  0.4564
15890TIP3    H169085   6.238   1.362  12.081 -0.9440  2.2173 -0.9424
15890TIP3    H269086   6.208   1.349  12.229 -0.6345 -2.1386 -1.1276
15891TIP3   OH269087   3.504   4.703   1.866  0.0933 -0.0497 -0.4987
15891TIP3    H169088   3.535   4.622   1.825  0.3861  0.0984 -0.5751
15891TIP3    H269089   3.415   4.683   1.894 -0.1226 -0.1452 -1.2374
15892TIP3   OH269090   0.128   2.562   2.667  0.1092  0.8195 -0.1513
15892TIP3    H169091   0.152   2.526   2.753  0.2612 -1.5642 -1.1375
15892TIP3    H269092   0.149   2.655   2.674  0.6563  0.5872  2.1966
15893TIP3   OH269093   1.691   3.782  14.683 -0.0583  0.3829 -0.2687
15893TIP3    H169094   1.621   3.806  14.624  0.2808  1.0523 -0.4045
15893TIP3    H269095   1.765   3.836  14.657  0.1842  0.4857  0.5805
15894TIP3   OH269096   3.320   5.730   0.146 -0.0641  0.2242 -0.3093
15894TIP3    H169097   3.330   5.784   0.224 -0.9196  0.3305 -0.2579
15894TIP3    H269098   3.246   5.672   0.166  0.2593 -0.3394 -0.7120
15895TIP3   OH269099   6.217   2.254  11.827 -0.1862  0.7984  0.1677
15895TIP3    H169100   6.136   2.229  11.783  1.3594  0.4495 -2.7234
15895TIP3    H269101   6.260   2.170  11.848 -0.3881  0.9799  1.3429
15896TIP3   OH269102   2.700   3.724  12.855  0.3299 -0.4657 -0.3382
15896TIP3    H169103   2.712   3.639  12.897 -1.3864 -0.6282 -0.0931
15896TIP3    H269104   2.732   3.787  12.919 -0.6536 -0.8094  0.5326
15897TIP3   OH269105   4.904   4.869   2.213  0.5417  0.0932 -0.1881
15897TIP3    H169106   4.915   4.960   2.183 -0.4014  0.0950 -0.5502
15897TIP3    H269107   4.843   4.875   2.287 -1.3085 -0.4507 -1.6073
15898TIP3   OH269108   0.942   0.054  16.178  0.0683  0.0171 -0.1126
15898TIP3    H169109   0.915   0.121  16.115  2.4296  1.4444  0.3057
15898TIP3    H269110   0.860   0.029  16.221 -0.9870  2.2491 -0.6389
15899TIP3   OH269111   1.957   1.862   4.482  0.6526  0.2596 -0.4192
15899TIP3    H169112   1.951   1.829   4.571 -0.3629  3.4944  0.8486
15899TIP3    H269113   2.051   1.879   4.469  0.9161 -1.0690 -0.3548
15900TIP3   OH269114   0.546   5.384   2.341  0.5285 -0.0437  0.0099
15900TIP3    H169115   0.523   5.293   2.321  0.8737  0.0332 -0.7457
15900TIP3    H269116   0.606   5.410   2.272  2.2506  0.0379  1.4637
15901TIP3   OH269117   4.069   3.631   2.128  0.6709 -0.1075 -0.0814
15901TIP3    H169118   4.035   3.716   2.157 -0.1567  0.0964 -1.5582
15901TIP3    H269119   4.013   3.566   2.170  0.1907  0.1380 -0.3382
15902TIP3   OH269120   0.108   4.854   2.323  0.2278  0.2479  0.0699
15902TIP3    H169121   0.187   4.854   2.268 -0.7581 -1.9686 -1.5162
15902TIP3    H269122   0.057   4.928   2.291  0.5729  0.1917 -0.6399
15903TIP3   OH269123   4.996   6.267   4.343 -0.1023  0.4376  0.3520
15903TIP3    H169124   5.041   6.185   4.324 -0.6789  0.2466 -0.2000
15903TIP3    H269125   5.051   6.309   4.409  0.1329 -0.4438  0.7305
15904TIP3   OH269126   0.625   6.443  12.822 -0.3735  0.3404 -0.1148
15904TIP3    H169127   0.545   6.454  12.873 -0.2308 -1.5123  0.5871
15904TIP3    H269128   0.653   6.353  12.841  0.3315 -0.0246 -2.5492
15905TIP3   OH269129   4.144   6.349  11.306  0.2072  0.0169  0.2082
15905TIP3    H169130   4.231   6.321  11.333  1.2797  1.3283 -1.6931
15905TIP3    H269131   4.141   6.442  11.325 -1.4445 -0.2927  1.7691
15906TIP3   OH269132   4.963   2.189   6.127 -0.5589  1.1065  0.0575
15906TIP3    H169133   4.976   2.282   6.148 -0.9711  1.0698  0.4729
15906TIP3    H269134   4.980   2.184   6.032  0.5291  1.4120  0.2192
15907TIP3   OH269135   0.570   2.610  13.803 -0.1619 -0.4619  0.0307
15907TIP3    H169136   0.643   2.549  13.807  0.5856  0.4323  0.3432
15907TIP3    H269137   0.609   2.695  13.822 -0.8935  0.3655 -1.9525
15908TIP3   OH269138   4.863   5.851  16.463  0.4052  0.3409 -0.1665
15908TIP3    H169139   4.796   5.854  16.532 -0.3793  1.1225 -0.9403
15908TIP3    H269140   4.891   5.760  16.461 -0.5637  0.0179  0.2490
15909TIP3   OH269141   5.974   2.831  14.653 -0.3535  0.1057  0.5202
15909TIP3    H169142   6.026   2.797  14.726  0.7212  1.4865  0.4450
15909TIP3    H269143   6.040   2.856  14.587 -1.2353  0.1126 -0.3773
15910TIP3   OH269144   5.493   0.424   1.801 -0.5871 -0.3830 -0.5482
15910TIP3    H169145   5.516   0.332   1.784 -3.2762 -1.0650 -0.9941
15910TIP3    H269146   5.403   0.421   1.832 -1.1698  2.2013 -1.7071
15911TIP3   OH269147   4.633   3.048  12.049  0.0584  0.2004  0.1241
15911TIP3    H169148   4.663   3.109  12.116  0.9574  0.7745 -0.7748
15911TIP3    H269149   4.713   3.009  12.014 -0.3768  0.0881 -0.7793
15912TIP3   OH269150   3.483   5.533  16.083 -0.2985 -0.1980  0.1376
15912TIP3    H169151   3.470   5.499  16.172 -0.1617  0.0974  0.2698
15912TIP3    H269152   3.417   5.601  16.073 -0.6168 -0.5435 -0.1538
15913TIP3   OH269153   5.775   6.335   2.289  0.4484  0.0272  0.8266
15913TIP3    H169154   5.764   6.272   2.361  1.7137  2.5626  3.4575
15913TIP3    H269155   5.864   6.319   2.258 -0.1872 -1.2414 -0.4386
15914TIP3   OH269156   3.578   2.312   0.180  0.0136 -0.3595  0.1982
15914TIP3    H169157   3.642   2.370   0.140 -0.8987  0.2296 -0.4533
15914TIP3    H269158   3.624   2.272   0.253  0.4977  1.6781  1.0799
15915TIP3   OH269159   5.446   2.806   3.078  0.2202  0.8116  0.0663
15915TIP3    H169160   5.357   2.816   3.112  0.0134  0.9957 -0.5027
15915TIP3    H269161   5.459   2.712   3.071 -0.0016  0.7847 -0.0068
15916TIP3   OH269162   0.510   0.178   3.004 -0.2469  0.4747 -0.2967
15916TIP3    H169163   0.447   0.248   3.017 -0.6027  0.0458  0.3595
15916TIP3    H269164   0.542   0.157   3.092 -0.6115 -0.5994 -0.4003
15917TIP3   OH269165   2.245   6.683  16.614 -0.2977 -0.2236 -0.3128
15917TIP3    H169166   2.322   6.632  16.637 -1.6923 -3.1652 -1.5662
15917TIP3    H269167   2.278   6.769  16.590  2.2258 -0.4637  1.8962
15918TIP3   OH269168   3.732   2.828   3.523 -0.0890  0.7335 -0.1195
15918TIP3    H169169   3.727   2.735   3.545  2.0933  0.2378 -1.4605
15918TIP3    H269170   3.643   2.860   3.534 -0.8947 -1.5152  0.3651
15919TIP3   OH269171   4.995   5.123  14.772  0.2494 -0.4290 -0.4766
15919TIP3    H169172   5.021   5.184  14.703 -0.6241 -1.4111 -1.7351
15919TIP3    H269173   5.029   5.039  14.743 -1.4143 -1.1273 -0.4975
15920TIP3   OH269174   6.455   2.899  14.907  0.0916  0.1245 -1.6739
15920TIP3    H169175   6.505   2.855  14.838  0.4747 -2.0276 -0.1271
15920TIP3    H269176   6.508   2.975  14.930  2.9614 -2.1445  0.0141
15921TIP3   OH269177   5.770   1.610   1.337 -0.0184  0.1147  0.1856
15921TIP3    H169178   5.864   1.599   1.320 -0.0766  0.1266 -0.1422
15921TIP3    H269179   5.744   1.528   1.379 -0.3181 -0.8118 -1.7054
15922TIP3   OH269180   5.611   3.536   5.250 -0.2113  0.0813  0.0635
15922TIP3    H169181   5.667   3.461   5.230  0.6073  1.3477 -2.9650
15922TIP3    H269182   5.529   3.496   5.279  0.1258 -2.0766 -1.6084
15923TIP3   OH269183   6.360   5.246  15.250  0.3332  0.2874  0.4961
15923TIP3    H169184   6.345   5.333  15.215  1.8168  0.3011 -0.1469
15923TIP3    H269185   6.272   5.207  15.254 -0.5206  2.1640  1.8781
15924TIP3   OH269186   5.632   6.351  11.917 -0.2526  0.1094  0.2012
15924TIP3    H169187   5.555   6.405  11.901 -1.2367 -0.7100  1.9382
15924TIP3    H269188   5.670   6.337  11.830 -1.6412  1.1371 -0.6050
15925TIP3   OH269189   6.794   1.868   1.497  0.0832  0.2590  0.2076
15925TIP3    H169190   6.867   1.902   1.548 -0.3654 -1.1392  1.8957
15925TIP3    H269191   6.717   1.912   1.533 -0.1503 -0.1379  0.2068
15926TIP3   OH269192   6.078   2.467   4.268 -0.4590  0.0864  0.0707
15926TIP3    H169193   5.988   2.440   4.250 -0.3746  0.4334 -0.9015
15926TIP3    H269194   6.083   2.557   4.239  0.3440 -0.0893 -0.3662
15927TIP3   OH269195   4.335   2.094   1.864 -0.4529  0.9000  0.6264
15927TIP3    H169196   4.323   2.039   1.941 -0.0686  1.2553  0.9500
15927TIP3    H269197   4.410   2.055   1.819  0.8795  2.0708  1.7182
15928TIP3   OH269198   2.886   4.134  15.598 -0.5799  0.5471  0.0822
15928TIP3    H169199   2.919   4.055  15.642  0.1932 -0.0851 -1.5389
15928TIP3    H269200   2.939   4.205  15.634  0.2518  0.0042 -0.0447
15929TIP3   OH269201   0.160   3.760  16.315  0.3748 -0.4435  0.3470
15929TIP3    H169202   0.087   3.733  16.259  0.2493  1.8793 -0.7147
15929TIP3    H269203   0.199   3.678  16.345 -0.9437 -1.7491 -1.3225
15930TIP3   OH269204   6.061   6.023   5.886  0.7070  0.0965  0.2174
15930TIP3    H169205   6.093   5.984   5.968  0.2155  1.0906  0.9019
15930TIP3    H269206   6.137   6.067   5.848  1.1145 -0.9868 -0.2499
15931TIP3   OH269207   6.455   3.218   2.255  0.3683  0.1844  0.1253
15931TIP3    H169208   6.504   3.143   2.221 -0.3469 -0.3874  0.3450
15931TIP3    H269209   6.508   3.294   2.230  0.3140 -0.2753 -1.4552
15932TIP3   OH269210   4.729   3.818  16.457  0.3484  0.3152 -0.5341
15932TIP3    H169211   4.749   3.840  16.548 -0.8854 -1.6055  0.2545
15932TIP3    H269212   4.794   3.867  16.406  1.4755  0.9434  1.3930
15933TIP3   OH269213   1.480   3.079  14.369 -0.0246 -0.5790  0.1254
15933TIP3    H169214   1.506   3.071  14.277 -2.1101 -0.3442 -0.5174
15933TIP3    H269215   1.508   3.167  14.394 -1.5804  0.2995 -1.0514
15934TIP3   OH269216   3.349   1.148   5.489  0.4025 -0.2517  0.3843
15934TIP3    H169217   3.255   1.167   5.498  0.1739 -1.3532  0.4378
15934TIP3    H269218   3.354   1.090   5.413  0.8710 -1.3814  1.2588
15935TIP3   OH269219   4.289   3.263   4.744  0.3159  0.2037  0.0703
15935TIP3    H169220   4.256   3.209   4.673  0.2809  2.3568 -1.6729
15935TIP3    H269221   4.211   3.287   4.795  0.2839 -0.9709  0.6001
15936TIP3   OH269222   3.232   6.461   5.515 -0.8403  0.1146  0.0421
15936TIP3    H169223   3.294   6.393   5.543 -0.5645  0.4098  0.1571
15936TIP3    H269224   3.146   6.419   5.523 -0.6335 -0.4148 -0.4697
15937TIP3   OH269225   5.684   1.705   2.644 -0.1235 -0.2735  0.5036
15937TIP3    H169226   5.594   1.684   2.670 -0.1045  0.2101  0.9685
15937TIP3    H269227   5.702   1.645   2.571 -0.5712 -0.8672  0.8702
15938TIP3   OH269228   1.975   2.524  12.526 -0.2447 -0.3645 -0.4485
15938TIP3    H169229   1.975   2.577  12.446 -0.1904 -1.5022 -1.2357
15938TIP3    H269230   1.884   2.526  12.556 -0.0059  1.1598  0.2350
15939TIP3   OH269231   1.124   2.795   0.082  0.6341  0.6251 -0.0603
15939TIP3    H169232   1.141   2.889   0.085  0.2529  0.7144 -0.5043
15939TIP3    H269233   1.084   2.781  -0.004 -0.0199  0.1764  0.3099
15940TIP3   OH269234   4.004   4.529   0.690 -0.0063  0.1363  0.7624
15940TIP3    H169235   4.069   4.598   0.696  0.0394  0.2350 -0.5201
15940TIP3    H269236   3.998   4.493   0.778  0.2876  1.4748  1.3448
15941TIP3   OH269237   6.189   0.914  15.718 -0.8467 -0.1250 -0.4923
15941TIP3    H169238   6.263   0.944  15.771 -1.1282 -0.5279  0.1320
15941TIP3    H269239   6.169   0.988  15.661  1.4443 -0.7215 -2.2345
15942TIP3   OH269240   3.012   0.159  11.303  0.4021 -0.0288 -0.2748
15942TIP3    H169241   2.951   0.140  11.232 -2.5659 -2.1390  2.5473
15942TIP3    H269242   3.021   0.255  11.301 -0.8562  0.1316 -2.4367
15943TIP3   OH269243   4.682   1.602   0.608 -0.2641 -0.0958 -0.1466
15943TIP3    H169244   4.745   1.662   0.566 -0.1607  0.0263  0.1825
15943TIP3    H269245   4.602   1.653   0.615 -0.6615 -0.5172 -1.3216
15944TIP3   OH269246   1.029   0.608   4.734 -0.4716 -0.1022 -0.4749
15944TIP3    H169247   1.119   0.600   4.764 -0.5239 -1.6720 -0.6813
15944TIP3    H269248   0.995   0.685   4.781  1.2515  1.1439 -1.1666
15945TIP3   OH269249   5.563   2.377  15.476 -0.3949  0.0631 -0.3179
15945TIP3    H169250   5.634   2.314  15.459 -0.8643 -0.8549  0.9223
15945TIP3    H269251   5.598   2.434  15.544 -0.6606 -0.0759 -0.0631
15946TIP3   OH269252   1.479   1.673   1.610 -0.3986  0.0611  0.9044
15946TIP3    H169253   1.471   1.635   1.698 -0.3776 -2.1243  0.0406
15946TIP3    H269254   1.567   1.709   1.607  0.3404 -1.6120  1.2017
15947TIP3   OH269255   1.127   5.287   3.157 -0.3451  0.5978  0.1187
15947TIP3    H169256   1.125   5.292   3.253 -2.7799  0.8267  0.1078
15947TIP3    H269257   1.088   5.370   3.128 -1.8749 -0.4729 -0.9981
15948TIP3   OH269258   0.168   5.912  11.317 -0.1900  0.0597  0.1147
15948TIP3    H169259   0.226   5.937  11.389 -1.1861  2.0651  0.2970
15948TIP3    H269260   0.197   5.824  11.292  0.1464 -0.7668  3.0254
15949TIP3   OH269261   0.432   4.911   0.182  0.9055 -0.4569 -0.1948
15949TIP3    H169262   0.497   4.969   0.221  1.1088 -1.0080  0.3077
15949TIP3    H269263   0.472   4.824   0.186  0.3757 -0.7153 -0.4064
15950TIP3   OH269264   4.385   5.074   0.382 -0.0707  0.0266 -0.4601
15950TIP3    H169265   4.428   5.156   0.357  1.0853 -1.4061 -3.7372
15950TIP3    H269266   4.456   5.010   0.388 -1.1774 -1.2332 -0.2732
15951TIP3   OH269267   6.252   2.120   2.436 -0.6436  0.9412 -0.2132
15951TIP3    H169268   6.263   2.031   2.402  1.1062  1.3090 -0.7088
15951TIP3    H269269   6.208   2.168   2.366 -1.9642  0.4068  0.2116
15952TIP3   OH269270   1.640   4.899  14.127  0.0845 -0.0005 -0.2931
15952TIP3    H169271   1.730   4.867  14.134  0.7619  0.8763 -3.3957
15952TIP3    H269272   1.648   4.994  14.137 -0.9930 -0.0811  2.1956
15953TIP3   OH269273   0.868   6.685   5.721 -1.0487  0.4053  0.1305
15953TIP3    H169274   0.808   6.744   5.767 -0.0919  1.1571  0.4461
15953TIP3    H269275   0.900   6.737   5.647 -1.7993 -0.4499 -0.8201
15954TIP3   OH269276   1.479   0.116   3.364 -0.3220  0.2924  0.1605
15954TIP3    H169277   1.431   0.193   3.333  0.2390  0.6907  0.2645
15954TIP3    H269278   1.569   0.132   3.338  0.3851  1.1328  2.7828
15955TIP3   OH269279   2.825   0.322  16.320  0.1840  0.0872  0.1226
15955TIP3    H169280   2.874   0.395  16.282 -1.1362  0.3131 -1.2642
15955TIP3    H269281   2.859   0.244  16.275  0.0750  0.1186 -0.0178
15956TIP3   OH269282   2.939   0.876   2.479  0.2497 -0.0850 -0.0510
15956TIP3    H169283   2.935   0.958   2.529 -0.6927 -0.7207  0.9808
15956TIP3    H269284   2.997   0.820   2.530 -2.8052 -1.6939  1.9367
15957TIP3   OH269285   2.659   1.473   9.972  0.2670  0.0791 -0.2915
15957TIP3    H169286   2.743   1.451  10.013  0.1823  0.4496  0.0837
15957TIP3    H269287   2.639   1.561  10.003  0.1083  0.2870 -0.9848
15958TIP3   OH269288   2.419   4.465  13.769  0.3105  0.0875  0.7538
15958TIP3    H169289   2.451   4.522  13.699  0.4862  1.0709  1.6069
15958TIP3    H269290   2.476   4.389  13.767 -0.6755 -0.6625 -1.1995
15959TIP3   OH269291   0.698   2.054  14.487 -0.4455  0.5217 -0.2970
15959TIP3    H169292   0.731   2.055  14.397 -0.7742  0.6792 -0.4182
15959TIP3    H269293   0.699   1.961  14.512 -0.2031  0.4942 -0.4052
15960TIP3   OH269294   5.455   1.853   4.116  0.1788  0.6874  0.3559
15960TIP3    H169295   5.468   1.941   4.079  2.1599  0.3917  0.2843
15960TIP3    H269296   5.509   1.852   4.195 -0.2034 -0.3327  0.6160
15961TIP3   OH269297   4.015   4.436  15.751 -0.0781  0.3666 -0.2099
15961TIP3    H169298   4.039   4.353  15.710 -1.3756 -1.3488  2.2867
15961TIP3    H269299   3.955   4.477  15.689  0.9601 -0.2728 -1.6998
15962TIP3   OH269300   5.863   6.449   0.183  0.2856  0.0164  0.5263
15962TIP3    H169301   5.768   6.457   0.171  0.4639 -0.3652 -1.5349
15962TIP3    H269302   5.874   6.428   0.275 -1.6860 -0.4617  0.6943
15963TIP3   OH269303   0.603   1.937   4.747  0.2803  0.0948  0.1637
15963TIP3    H169304   0.513   1.938   4.715  0.9490  0.3726 -1.8363
15963TIP3    H269305   0.598   1.974   4.835 -1.7281 -1.1569  0.6502
15964TIP3   OH269306   2.775   0.821   4.143 -0.1000  0.6545  0.1191
15964TIP3    H169307   2.737   0.809   4.231 -0.4076  0.0608 -0.0882
15964TIP3    H269308   2.867   0.843   4.160 -0.5146  2.1051  0.6246
15965TIP3   OH269309   2.898   6.371  16.452 -0.3913 -0.4355 -0.3298
15965TIP3    H169310   2.893   6.289  16.405 -1.7392 -0.0464 -0.9168
15965TIP3    H269311   2.809   6.385  16.487  0.0809  0.2365  0.6720
15966TIP3   OH269312   3.668   4.439   2.587  0.4805  0.1666 -0.2810
15966TIP3    H169313   3.633   4.359   2.625  1.5167 -0.2443 -0.1662
15966TIP3    H269314   3.635   4.509   2.642  1.7187 -0.3891  1.2449
15967TIP3   OH269315   1.655   5.582  16.809 -0.3423 -0.5678 -0.2276
15967TIP3    H169316   1.724   5.542  16.756  1.8440  2.2640  0.2351
15967TIP3    H269317   1.650   5.527  16.887  0.2874 -1.6986 -0.9575
15968TIP3   OH269318   2.722   0.973   3.806 -0.4343  0.8372 -0.3181
15968TIP3    H169319   2.695   0.890   3.845 -1.3311  0.9655 -0.6348
15968TIP3    H269320   2.660   0.987   3.734 -0.5341  1.9562 -0.0370
15969TIP3   OH269321   1.422   4.233   1.420  0.3646 -0.0706 -0.4498
15969TIP3    H169322   1.334   4.269   1.426  0.8863  0.9749  1.4432
15969TIP3    H269323   1.447   4.211   1.510  1.0384 -2.9330 -1.2150
15970TIP3   OH269324   4.393   4.271  12.189 -1.0107 -0.0474 -0.3786
15970TIP3    H169325   4.314   4.281  12.243 -1.1001  1.9396 -0.7933
15970TIP3    H269326   4.451   4.342  12.218  0.4108 -1.1110 -0.4875
15971TIP3   OH269327   0.422   3.397   2.122 -0.5082 -0.4042  0.0698
15971TIP3    H169328   0.408   3.445   2.203  1.0205 -0.3584  0.3324
15971TIP3    H269329   0.379   3.313   2.136 -2.3993  0.4780 -0.0463
15972TIP3   OH269330   0.358   0.190  16.899  0.8030  0.1415 -0.0088
15972TIP3    H169331   0.424   0.231  16.843  0.4569  0.2732 -0.3184
15972TIP3    H269332   0.280   0.185  16.845 -0.4046  2.7743  1.3097
15973TIP3   OH269333   3.048   3.028  10.997 -0.1516  0.2725 -0.2351
15973TIP3    H169334   3.085   3.079  10.925 -1.1485  0.8301 -0.3696
15973TIP3    H269335   3.029   2.943  10.958 -0.5302  0.5178 -0.6079
15974TIP3   OH269336   3.369   5.258  14.321  0.0242 -0.0827  0.3344
15974TIP3    H169337   3.293   5.216  14.280  0.4543  0.5900 -1.1880
15974TIP3    H269338   3.443   5.202  14.299  0.0763 -0.4349  1.3485
15975TIP3   OH269339   0.361   5.080  13.531  0.3344  0.3578 -0.2502
15975TIP3    H169340   0.405   5.068  13.615  1.4504  1.0813 -0.7055
15975TIP3    H269341   0.304   5.004  13.522  0.3607  0.1667  1.0575
15976TIP3   OH269342   2.441   2.682   1.939  0.1718  0.0086  0.2041
15976TIP3    H169343   2.525   2.648   1.909  0.5944  0.1402  1.1781
15976TIP3    H269344   2.376   2.634   1.889  0.8170 -0.4099 -0.2534
15977TIP3   OH269345   2.099   2.969  12.195 -0.1022  0.0162  0.0850
15977TIP3    H169346   2.131   3.052  12.159  1.5540 -0.2405  0.8545
15977TIP3    H269347   2.153   2.903  12.151 -2.5539 -0.8624 -1.8269
15978TIP3   OH269348   3.752   3.431   4.810  0.3027 -0.0027 -0.3566
15978TIP3    H169349   3.720   3.420   4.721 -1.5711  1.6435  0.0509
15978TIP3    H269350   3.804   3.352   4.827  0.8325 -0.2759 -2.9235
15979TIP3   OH269351   5.546   4.230   3.033 -0.0712  0.6781 -0.0754
15979TIP3    H169352   5.542   4.163   2.966  0.5471 -2.1518  2.4982
15979TIP3    H269353   5.607   4.295   2.998  3.0841 -2.4282 -0.9216
15980TIP3   OH269354   5.407   4.175   0.797 -0.1775 -0.1937 -0.4144
15980TIP3    H169355   5.373   4.086   0.809  2.1303 -0.9555  1.1104
15980TIP3    H269356   5.346   4.230   0.847  0.6015 -1.4915  2.1931
15981TIP3   OH269357   0.596   2.918   2.614 -0.2082 -0.1595  0.2072
15981TIP3    H169358   0.570   2.836   2.573  1.1524  0.2726 -1.6533
15981TIP3    H269359   0.683   2.901   2.650 -0.6651 -0.0211  1.4244
15982TIP3   OH269360   5.545   1.070  12.928 -0.1592 -0.5057 -0.1513
15982TIP3    H169361   5.505   1.003  12.872  0.7736 -1.0929 -0.1482
15982TIP3    H269362   5.486   1.145  12.922 -3.4181 -2.5113  2.9280
15983TIP3   OH269363   2.803   3.991   0.109 -0.0995  0.0771 -0.3631
15983TIP3    H169364   2.818   4.037   0.026 -2.8633  1.5201 -0.1741
15983TIP3    H269365   2.729   3.934   0.092  0.9032 -1.5657  0.4937
15984TIP3   OH269366   2.451   1.398   3.187  0.1878  0.0865  0.0317
15984TIP3    H169367   2.362   1.374   3.162  0.1472 -0.8308  1.0022
15984TIP3    H269368   2.499   1.402   3.104 -0.5661 -0.2368 -0.4264
15985TIP3   OH269369   3.932   0.099   5.764  0.9112 -0.3568 -0.2860
15985TIP3    H169370   3.943   0.131   5.854  2.3773 -0.5052 -0.3837
15985TIP3    H269371   3.864   0.155   5.727  0.3658 -0.2243  0.8845
15986TIP3   OH269372   2.206   4.307  16.809 -0.2254  0.1612 -0.7362
15986TIP3    H169373   2.248   4.381  16.764 -2.1080  1.7205 -0.0995
15986TIP3    H269374   2.115   4.335  16.820 -0.9843 -2.2494 -0.3562
15987TIP3   OH269375   2.136   5.549  15.186 -0.7247 -0.4601 -0.5425
15987TIP3    H169376   2.041   5.549  15.193 -0.6273  0.0008  1.3279
15987TIP3    H269377   2.158   5.463  15.150 -1.8549 -0.3902 -1.4385
15988TIP3   OH269378   4.458   1.929   4.484 -0.3253  0.4126  0.3068
15988TIP3    H169379   4.488   1.838   4.483  1.3845  0.9571  0.1300
15988TIP3    H269380   4.410   1.937   4.567 -0.3004 -0.5762  0.4337
15989TIP3   OH269381   0.194   3.437  14.251 -0.0081  0.1335 -0.6256
15989TIP3    H169382   0.218   3.465  14.162  1.2969 -0.7391 -0.5696
15989TIP3    H269383   0.149   3.354  14.239 -1.1805  0.7380 -0.5609
15990TIP3   OH269384   2.496   3.751   1.023  0.2020  0.0798  0.4076
15990TIP3    H169385   2.433   3.723   1.090 -0.8129  1.1095 -0.0878
15990TIP3    H269386   2.558   3.806   1.071 -2.0199  3.0443  0.1481
15991TIP3   OH269387   2.937   2.485  13.459  0.0808 -0.1960 -0.7520
15991TIP3    H169388   2.951   2.432  13.381 -0.9077 -2.0324  0.2392
15991TIP3    H269389   2.843   2.477  13.477  0.2633  0.2762  0.5266
15992TIP3   OH269390   1.809   0.178  11.072  0.6340  0.0561  0.2922
15992TIP3    H169391   1.715   0.187  11.088  0.3994  1.1651 -1.4389
15992TIP3    H269392   1.817   0.166  10.978  2.2783  1.1910  0.2388
15993TIP3   OH269393   0.222   6.218   3.295  0.2562  0.1160 -0.2185
15993TIP3    H169394   0.256   6.307   3.291 -0.6869  0.6847  2.2692
15993TIP3    H269395   0.127   6.229   3.291  0.1091 -0.6870  0.6551
15994TIP3   OH269396   1.176   3.992   1.287 -0.3562  0.2724 -0.1322
15994TIP3    H169397   1.125   3.989   1.206  0.3767  1.2789 -0.6515
15994TIP3    H269398   1.266   3.976   1.259 -0.1968 -0.1424  0.5971
15995TIP3   OH269399   4.650   1.260  12.016  0.2954 -0.3896  0.3351
15995TIP3    H169400   4.686   1.349  12.017 -0.0662 -0.2404  0.8300
15995TIP3    H269401   4.584   1.261  11.946 -1.8891  0.6518  2.2568
15996TIP3   OH269402   5.441   1.613   4.928  0.6052  0.3333 -0.5605
15996TIP3    H169403   5.383   1.542   4.956  0.7590 -0.2341 -1.6276
15996TIP3    H269404   5.416   1.630   4.837  1.2130  1.0026 -0.6112
15997TIP3   OH269405   5.338   4.880   2.680 -0.4369 -0.4856  0.3638
15997TIP3    H169406   5.382   4.795   2.686 -0.5441 -0.6974 -1.3083
15997TIP3    H269407   5.297   4.879   2.593 -1.4395  0.8038  0.8045
15998TIP3   OH269408   3.899   4.318   4.807  0.1126 -0.3491  0.8753
15998TIP3    H169409   3.840   4.277   4.744  0.1168 -1.2879  1.4738
15998TIP3    H269410   3.911   4.407   4.773 -0.4945 -0.5945 -0.0279
15999TIP3   OH269411   3.679   4.843   1.698  0.1104  0.3948  0.2188
15999TIP3    H169412   3.739   4.894   1.752 -0.9737  2.1390 -0.1272
15999TIP3    H269413   3.620   4.800   1.761  0.1161  0.7723  0.4818
16000TIP3   OH269414   2.651   2.844   3.697  0.3615 -0.5683  0.4514
16000TIP3    H169415   2.716   2.779   3.722  0.9693  0.1330  0.7445
16000TIP3    H269416   2.610   2.808   3.619  0.6834 -1.3007  0.6081
16001TIP3   OH269417   3.356   6.562   2.454 -0.0063 -0.4586  0.3853
16001TIP3    H169418   3.328   6.639   2.503 -0.9510 -0.6383  0.1513
16001TIP3    H269419   3.372   6.496   2.522 -0.6091 -0.4871  0.5111
16002TIP3   OH269420   3.162   2.609  16.684 -0.0925  0.2573 -0.3737
16002TIP3    H169421   3.182   2.520  16.715 -0.5142 -0.1063 -1.0986
16002TIP3    H269422   3.078   2.630  16.724 -1.2864 -0.7257 -2.1693
16003TIP3   OH269423   6.354   2.668  11.935 -0.2375 -0.2117 -0.1272
16003TIP3    H169424   6.448   2.670  11.916  0.0757 -0.0386  1.2665
16003TIP3    H269425   6.317   2.609  11.870  0.7432  0.1709 -1.0645
16004TIP3   OH269426   2.648   2.526  13.772  0.0855  0.2062 -0.2180
16004TIP3    H169427   2.645   2.622  13.774  1.9211  0.3123  2.0309
16004TIP3    H269428   2.633   2.500  13.863 -2.0914 -1.7855 -1.0441
16005TIP3   OH269429   3.109   6.500   3.773 -0.4733 -0.1059  0.0862
16005TIP3    H169430   3.028   6.526   3.817 -0.4970 -0.2020  0.0993
16005TIP3    H269431   3.084   6.491   3.681 -0.2447  0.8744 -0.0748
16006TIP3   OH269432   1.575   2.946  15.581 -0.0090  0.5692 -0.0201
16006TIP3    H169433   1.641   3.005  15.543 -1.7470  1.1845 -2.2595
16006TIP3    H269434   1.581   2.867  15.528 -1.4495  0.8604 -0.6467
16007TIP3   OH269435   2.423   1.897   1.505  0.2781 -0.0573 -0.2538
16007TIP3    H169436   2.410   1.815   1.552  0.5896 -0.5642 -1.0296
16007TIP3    H269437   2.518   1.903   1.493  0.0989 -1.4210 -3.2971
16008TIP3   OH269438   1.863   0.967   1.833  0.3445  0.0601  0.3424
16008TIP3    H169439   1.828   1.043   1.786 -0.6949  0.2917  1.4332
16008TIP3    H269440   1.955   0.989   1.848  0.1139  1.0083  0.4454
16009TIP3   OH269441   2.046   3.582   0.163 -0.1782  0.1727  0.1118
16009TIP3    H169442   2.071   3.497   0.199  0.6311  0.0657 -0.6446
16009TIP3    H269443   1.957   3.570   0.131  0.6673 -1.1093 -2.0166
16010TIP3   OH269444   0.004   5.930  13.006 -0.0274  0.0964  1.0411
16010TIP3    H169445   0.064   6.004  13.001  2.0201 -1.5392 -0.5152
16010TIP3    H269446   0.015   5.897  13.096  2.2927 -0.7828  0.5009
16011TIP3   OH269447   5.609   6.436   1.385  0.2663  0.2457  0.0974
16011TIP3    H169448   5.638   6.345   1.390  0.8633  0.4697  0.9270
16011TIP3    H269449   5.632   6.464   1.297 -3.0843 -1.4125 -1.4865
16012TIP3   OH269450   6.194   3.623  12.842 -0.5498  0.5089 -0.2004
16012TIP3    H169451   6.159   3.672  12.769  0.4146  0.7891 -0.4867
16012TIP3    H269452   6.280   3.593  12.813 -0.5699 -0.2336  0.4477
16013TIP3   OH269453   3.551   0.179   1.328 -0.1808  0.1260  0.0324
16013TIP3    H169454   3.475   0.122   1.334 -2.2459  2.6718 -0.1543
16013TIP3    H269455   3.586   0.164   1.240 -0.4129 -1.0765  0.1305
16014TIP3   OH269456   0.053   2.985   5.058 -0.1042  0.5669 -0.0189
16014TIP3    H169457   0.066   3.030   4.974 -1.3327 -0.2586 -0.6796
16014TIP3    H269458  -0.005   2.912   5.037 -0.1305  0.1285  1.4953
16015TIP3   OH269459   2.555   6.010  16.071  0.2546 -0.5114 -0.5161
16015TIP3    H169460   2.558   6.006  15.976  0.9336  0.6737 -0.5662
16015TIP3    H269461   2.623   6.074  16.095  0.6100 -1.3438  0.8021
16016TIP3   OH269462   3.709   2.679  16.444 -0.1623  1.0179  0.4776
16016TIP3    H169463   3.737   2.743  16.509  1.5459  0.6131  0.2055
16016TIP3    H269464   3.790   2.635  16.417 -1.2260 -1.1025  0.4746
16017TIP3   OH269465   1.255   4.374  16.785  0.1942 -0.3273  0.2653
16017TIP3    H169466   1.343   4.337  16.776  0.1310 -0.5873  0.6812
16017TIP3    H269467   1.204   4.333  16.715  0.7988  1.0776 -1.0590
16018TIP3   OH269468   3.300   4.172   0.312 -0.2124  0.1556 -0.0149
16018TIP3    H169469   3.215   4.181   0.354  1.3061 -0.7252  3.5847
16018TIP3    H269470   3.337   4.092   0.349  1.5907 -0.4531 -2.7806
16019TIP3   OH269471   3.436   5.871  15.949  0.1692  0.2312  0.1526
16019TIP3    H169472   3.386   5.850  16.028  0.2290 -1.6100 -0.2465
16019TIP3    H269473   3.527   5.862  15.976  0.2086 -2.8148 -0.6081
16020TIP3   OH269474   5.476   1.028   5.551  0.4864  0.3671 -0.3864
16020TIP3    H169475   5.526   0.950   5.524  0.9253  1.1030 -1.8253
16020TIP3    H269476   5.461   1.075   5.469  1.5038  2.5433  0.5959
16021TIP3   OH269477   4.893   5.951   6.119 -0.3804  0.0194  0.3950
16021TIP3    H169478   4.931   6.038   6.131 -0.9935  0.1281  1.8160
16021TIP3    H269479   4.954   5.892   6.164 -0.5302 -0.1379  0.3944
16022TIP3   OH269480   4.650   4.334   3.907 -0.2457  0.3417 -0.1101
16022TIP3    H169481   4.641   4.345   3.813  2.4883  3.9136 -0.1638
16022TIP3    H269482   4.718   4.267   3.917 -0.9148 -0.4253 -0.6144
16023TIP3   OH269483   3.323   3.332   0.768 -0.3762  0.4190  0.1242
16023TIP3    H169484   3.257   3.343   0.836  0.9546 -2.0488  1.9344
16023TIP3    H269485   3.359   3.420   0.756 -2.8573  1.5413  0.1566
16024TIP3   OH269486   4.872   6.196   0.815  0.9973  0.5111 -0.1253
16024TIP3    H169487   4.934   6.145   0.762  1.0564  1.0182 -0.5482
16024TIP3    H269488   4.928   6.258   0.862  0.7714  1.3005 -0.8803
16025TIP3   OH269489   3.639   0.927  14.031  0.5757  0.1126  0.5695
16025TIP3    H169490   3.602   0.901  13.947  0.9311  2.2312 -0.2903
16025TIP3    H269491   3.566   0.922  14.092 -0.3011  0.9463 -0.3933
16026TIP3   OH269492   1.039   4.164  12.115 -0.1387  0.7416 -0.3547
16026TIP3    H169493   0.982   4.204  12.049 -0.4694  1.3444  0.2728
16026TIP3    H269494   1.041   4.071  12.092 -0.1590  0.9561 -1.2670
16027TIP3   OH269495   5.614   4.229   2.674  0.2713  0.0869  0.5992
16027TIP3    H169496   5.581   4.237   2.584 -1.4655  0.2385  1.2087
16027TIP3    H269497   5.565   4.156   2.711  1.0417 -0.0376  1.4123
16028TIP3   OH269498   6.580   2.674  11.436 -0.2709  0.2157 -0.7196
16028TIP3    H169499   6.564   2.718  11.353 -1.5843  0.0240 -0.5923
16028TIP3    H269500   6.544   2.587  11.425 -0.1537  0.0777 -0.0572
16029TIP3   OH269501   6.666   0.443  10.597 -0.2850  0.6079  0.1877
16029TIP3    H169502   6.683   0.493  10.517 -0.3628  1.6783  0.8281
16029TIP3    H269503   6.753   0.423  10.632 -0.2522  0.2056 -0.1111
16030TIP3   OH269504   4.053   3.232   4.266  0.0314 -0.1156 -0.2228
16030TIP3    H169505   4.108   3.309   4.277  0.2998 -0.3940  0.4540
16030TIP3    H269506   4.067   3.204   4.176 -0.7878  1.1685 -0.7767
16031TIP3   OH269507   3.037   6.507  15.945 -0.0945 -0.5136  0.5614
16031TIP3    H169508   3.059   6.429  15.893  2.4962  1.0206 -0.8632
16031TIP3    H269509   3.079   6.491  16.030  2.1333  0.0585 -0.3629
16032TIP3   OH269510   1.043   1.148  12.466 -0.0968  0.2285  0.2602
16032TIP3    H169511   1.041   1.186  12.378 -3.3195  2.2602  1.0759
16032TIP3    H269512   1.005   1.061  12.455  0.7665 -0.0703 -0.5221
16033TIP3   OH269513   5.795   2.723  14.136  0.2855 -0.4460 -0.4481
16033TIP3    H169514   5.780   2.797  14.195 -2.3324 -1.6132  0.4731
16033TIP3    H269515   5.881   2.741  14.098  0.8534  1.7775  1.6061
16034TIP3   OH269516   1.096   3.316   0.116  0.1668 -0.1188  0.4790
16034TIP3    H169517   1.082   3.222   0.102 -2.6253 -0.2888  3.3451
16034TIP3    H269518   1.101   3.325   0.211 -0.1478  2.6967  0.2968
16035TIP3   OH269519   0.362   4.500  16.358 -0.3594 -0.0985  0.2181
16035TIP3    H169520   0.416   4.481  16.434 -1.5291  2.5485  1.8468
16035TIP3    H269521   0.278   4.459  16.377 -0.6344  0.5136  0.3532
16036TIP3   OH269522   2.242   1.858   3.046  0.1526  0.0277 -0.4839
16036TIP3    H169523   2.231   1.917   3.120 -0.3628 -1.2015  0.4623
16036TIP3    H269524   2.336   1.858   3.028  0.6415 -1.4192  1.7206
16037TIP3   OH269525   4.609   5.307  13.096  0.2823 -0.7629  0.3182
16037TIP3    H169526   4.628   5.361  13.173  0.7378  1.7500 -1.4333
16037TIP3    H269527   4.689   5.256  13.083  2.6124  2.8554 -1.5097
16038TIP3   OH269528   4.100   0.443  12.324 -0.4188 -0.2466 -0.3401
16038TIP3    H169529   4.145   0.459  12.240 -2.1937  0.8660 -1.1269
16038TIP3    H269530   4.137   0.508  12.383 -0.5886  0.3052 -0.8277
16039TIP3   OH269531   2.748   3.092  16.279  0.5131 -0.8024  0.0163
16039TIP3    H169532   2.818   3.040  16.319  1.1891 -0.6052 -0.8724
16039TIP3    H269533   2.667   3.049  16.306  1.0002 -1.4057  0.5447
16040TIP3   OH269534   2.863   1.900  10.968  0.0112 -0.7506 -0.3827
16040TIP3    H169535   2.867   1.805  10.964 -0.1434 -0.7295 -1.0597
16040TIP3    H269536   2.901   1.922  11.053 -1.5128 -1.5103  0.5264
16041TIP3   OH269537   3.166   3.817  15.793  0.0171 -0.5494 -0.2225
16041TIP3    H169538   3.231   3.758  15.831  0.3717 -0.5099 -0.7583
16041TIP3    H269539   3.115   3.761  15.734 -1.1654 -0.8281  1.0301
16042TIP3   OH269540   1.121   3.187  17.008 -0.5285 -0.2630  0.5154
16042TIP3    H169541   1.105   3.150  17.095  0.8224 -0.3639  0.7444
16042TIP3    H269542   1.090   3.120  16.947 -0.6656 -0.5687  0.9167
16043TIP3   OH269543   3.282   0.961  12.578 -0.7210 -0.1504  0.0703
16043TIP3    H169544   3.195   1.001  12.583  0.2721  2.2501 -0.6918
16043TIP3    H269545   3.278   0.907  12.498 -1.3954  0.2410 -0.1738
16044TIP3   OH269546   6.296   6.326  12.434  0.7010 -0.0184  0.2504
16044TIP3    H169547   6.264   6.353  12.348 -0.0316 -0.0957  0.4930
16044TIP3    H269548   6.221   6.336  12.492 -0.4683 -4.8125 -0.0538
16045TIP3   OH269549   1.274   6.392  11.280 -0.1588 -0.3492  0.8424
16045TIP3    H169550   1.208   6.348  11.226  1.7543 -0.2493 -1.7991
16045TIP3    H269551   1.344   6.327  11.289  0.6054  0.4791  1.0728
16046TIP3   OH269552   2.637   4.038  16.214 -0.6013  0.0497  0.1394
16046TIP3    H169553   2.603   4.115  16.259  0.6096  0.3909  0.4816
16046TIP3    H269554   2.705   4.072  16.156  1.8018 -1.0165  2.1945
16047TIP3   OH269555   3.719   3.086  12.944  0.0566  0.1764 -0.2780
16047TIP3    H169556   3.629   3.105  12.972  0.1625  0.7191 -0.2862
16047TIP3    H269557   3.770   3.160  12.977  0.5628 -0.2960  0.0215
16048TIP3   OH269558   4.642   1.490   1.751 -0.1048 -0.3085 -0.6652
16048TIP3    H169559   4.595   1.559   1.798 -1.0731 -1.2203 -0.2752
16048TIP3    H269560   4.677   1.434   1.820  0.0847 -0.5977 -0.9977
16049TIP3   OH269561   6.695   0.727  14.202 -0.1023  0.6541 -0.7473
16049TIP3    H169562   6.771   0.744  14.146 -0.0946  0.5144 -0.7794
16049TIP3    H269563   6.629   0.789  14.171 -0.5852 -0.3613 -1.8575
16050TIP3   OH269564   1.409   3.811   1.912  0.2989  0.2277  0.2678
16050TIP3    H169565   1.484   3.797   1.854  1.0342  2.9891  0.3704
16050TIP3    H269566   1.447   3.854   1.989 -1.2917  1.2157  0.5466
16051TIP3   OH269567   0.743   5.606  11.162 -0.3731 -0.2796  0.0891
16051TIP3    H169568   0.796   5.666  11.108 -0.7879 -0.3068 -0.3550
16051TIP3    H269569   0.778   5.519  11.142  0.4156 -0.1747  0.9437
16052TIP3   OH269570   3.604   3.903  11.231 -0.0834  0.0604  0.0444
16052TIP3    H169571   3.629   3.870  11.317  1.0175  0.9840  0.0913
16052TIP3    H269572   3.575   3.993  11.247 -2.2436 -0.5201 -0.2072
16053TIP3   OH269573   4.168   1.668   0.560  0.2021  0.6834  0.1116
16053TIP3    H169574   4.144   1.752   0.520 -0.5386  1.0909  1.3607
16053TIP3    H269575   4.088   1.616   0.556  0.5737  0.1374 -0.3740
16054TIP3   OH269576   1.049   1.711   2.692 -0.2932  0.1283  0.1990
16054TIP3    H169577   1.097   1.750   2.765  0.0202  0.9482 -0.4170
16054TIP3    H269578   0.968   1.762   2.688 -0.2990  0.0995 -0.0373
16055TIP3   OH269579   0.916   1.463   0.180 -0.4009 -0.7440  0.1899
16055TIP3    H169580   0.879   1.376   0.196 -0.7513 -0.4825  0.8761
16055TIP3    H269581   1.010   1.450   0.184 -0.4196 -0.6708  2.9558
16056TIP3   OH269582   1.765   2.039  13.075  0.1802 -0.1324 -0.2248
16056TIP3    H169583   1.834   2.049  13.010  0.0514  0.4058 -0.2784
16056TIP3    H269584   1.811   2.038  13.159  0.2491  0.3052 -0.2556
16057TIP3   OH269585   1.423   1.770  13.564 -0.1273  0.4020 -0.0026
16057TIP3    H169586   1.381   1.686  13.582 -1.6368  1.1675  0.1490
16057TIP3    H269587   1.362   1.836  13.597  1.2991  1.5730  0.4494
16058TIP3   OH269588   2.266   4.826   2.163  0.5529 -0.3382 -0.0148
16058TIP3    H169589   2.257   4.919   2.185  1.2353 -0.6783  1.8968
16058TIP3    H269590   2.226   4.818   2.077 -0.3950  1.5523  0.1944
16059TIP3   OH269591   6.499   5.492   4.064 -0.1447 -0.4391  0.3461
16059TIP3    H169592   6.526   5.404   4.037 -0.0059 -0.1136 -0.6192
16059TIP3    H269593   6.557   5.551   4.015 -1.4530  0.2271 -0.4570
16060TIP3   OH269594   3.690   4.358  11.929  0.2275  0.1199 -0.3876
16060TIP3    H169595   3.663   4.383  12.017  0.7903  0.1743 -0.2218
16060TIP3    H269596   3.655   4.270  11.916  1.8081 -0.7132  0.6619
16061TIP3   OH269597   2.360   1.090  14.233 -0.1348 -0.0625 -0.5796
16061TIP3    H169598   2.357   1.124  14.322  0.3687 -1.8643  0.1780
16061TIP3    H269599   2.383   0.998  14.243 -0.8610 -0.5166 -2.5370
16062TIP3   OH269600   6.035   4.871   4.176  0.1954 -0.4377 -0.4363
16062TIP3    H169601   6.011   4.910   4.260 -2.4777 -1.0253 -0.8221
16062TIP3    H269602   6.130   4.875   4.173  0.2279  2.1086  1.3878
16063TIP3   OH269603   0.159   2.591  14.274  0.2789  0.4656 -0.9958
16063TIP3    H169604   0.090   2.652  14.301  0.6993  0.9419 -0.9624
16063TIP3    H269605   0.235   2.648  14.257  1.7247 -0.2661  2.2630
16064TIP3   OH269606   2.095   3.947   5.235  0.2507  0.1365 -0.0754
16064TIP3    H169607   2.059   3.926   5.148 -0.6494 -2.3523  0.8312
16064TIP3    H269608   2.169   3.887   5.245 -0.9170 -1.0824  1.6634
16065TIP3   OH269609   5.085   3.142   5.969 -0.0808 -0.1236  0.1073
16065TIP3    H169610   5.029   3.077   6.011 -1.2233  0.5743 -0.2782
16065TIP3    H269611   5.044   3.157   5.883 -0.1872  1.4960  0.3987
16066TIP3   OH269612   5.022   5.743  16.102  0.8564 -0.4276 -0.1639
16066TIP3    H169613   5.005   5.822  16.154  1.9408 -0.2839  0.0037
16066TIP3    H269614   5.001   5.671  16.162  1.4788 -0.2595  0.2702
16067TIP3   OH269615   6.653   6.655   4.613  0.0736  0.3599 -0.0913
16067TIP3    H169616   6.610   6.652   4.527  0.4556 -1.5455 -0.2525
16067TIP3    H269617   6.590   6.613   4.672  1.1018 -1.2518 -0.0814
16068TIP3   OH269618   0.747   6.161   2.458  0.5068  0.4405 -0.2878
16068TIP3    H169619   0.818   6.134   2.399 -0.4788  2.3566 -2.5068
16068TIP3    H269620   0.695   6.082   2.471  3.0204 -1.0622  1.5346
16069TIP3   OH269621   3.446   6.331  14.735 -0.3306  0.3724 -0.4910
16069TIP3    H169622   3.513   6.377  14.684  1.8818 -1.9208  0.1386
16069TIP3    H269623   3.394   6.285  14.669  0.9939 -0.6443 -0.8814
16070TIP3   OH269624   2.168   1.548   1.542 -0.0882  0.1606  0.1131
16070TIP3    H169625   2.217   1.559   1.623  1.3737  0.1869 -0.7489
16070TIP3    H269626   2.185   1.627   1.492  0.2295 -0.4902 -0.8361
16071TIP3   OH269627   5.386   3.678  11.324  0.1729  0.1602 -0.3244
16071TIP3    H169628   5.434   3.673  11.242 -2.0468  2.5549 -1.9108
16071TIP3    H269629   5.425   3.752  11.371  0.9307 -0.7258  0.4953
16072TIP3   OH269630   4.957   3.461   1.897 -0.1802  0.1375  0.8570
16072TIP3    H169631   4.927   3.371   1.911  2.2515 -0.8126  0.4320
16072TIP3    H269632   4.980   3.492   1.985  0.0267 -0.0590  0.8728
16073TIP3   OH269633   0.222   1.194  13.322  0.3565  0.2743  0.1634
16073TIP3    H169634   0.215   1.264  13.387 -1.6840 -1.1028  1.5755
16073TIP3    H269635   0.222   1.238  13.238 -1.0636  1.9869  0.9935
16074TIP3   OH269636   4.319   3.174  14.750 -0.3648  0.5446  0.3186
16074TIP3    H169637   4.230   3.147  14.728 -0.2982  0.4581  0.1522
16074TIP3    H269638   4.346   3.229  14.677  0.3987 -0.9467 -0.5763
16075TIP3   OH269639   6.001   0.884  16.099 -0.3572 -0.3069  0.0027
16075TIP3    H169640   6.033   0.798  16.126 -0.9225 -0.8440 -0.9846
16075TIP3    H269641   6.067   0.945  16.130  0.6617 -1.2097 -0.3372
16076TIP3   OH269642   6.250   6.227  16.177  1.3323 -0.0138 -0.1177
16076TIP3    H169643   6.332   6.210  16.223 -0.0544 -0.5836  2.2967
16076TIP3    H269644   6.187   6.166  16.216 -1.0440  2.6585  0.5165
16077TIP3   OH269645   5.988   4.302  12.974 -0.0869  0.0939 -0.4017
16077TIP3    H169646   5.942   4.226  13.009 -1.9794  1.1500 -0.4437
16077TIP3    H269647   6.065   4.311  13.030 -0.5013 -1.0856  0.4006
16078TIP3   OH269648   3.821   1.529   0.162  0.3557 -0.0682  0.6005
16078TIP3    H169649   3.806   1.586   0.237  2.2853 -0.9738  1.7477
16078TIP3    H269650   3.819   1.588   0.086  0.3330  1.1855  1.5432
16079TIP3   OH269651   0.661   1.216  16.335  0.2623  0.0765  0.1699
16079TIP3    H169652   0.613   1.141  16.300 -0.2063  0.4437  0.0145
16079TIP3    H269653   0.593   1.282  16.353  0.7220  0.6610 -0.1924
16080TIP3   OH269654   3.748   1.880  15.480 -0.4865 -0.4401 -0.0608
16080TIP3    H169655   3.758   1.795  15.522 -0.1555 -0.5297 -0.3129
16080TIP3    H269656   3.703   1.934  15.545 -0.2018 -0.6453  0.3090
16081TIP3   OH269657   0.807   3.854   0.151 -0.3082  0.2331 -0.2406
16081TIP3    H169658   0.876   3.834   0.088  2.4952  1.5680  2.1642
16081TIP3    H269659   0.777   3.942   0.127  1.7374  1.3302  0.9542
16082TIP3   OH269660   3.902   0.813   1.318 -0.0698  0.4427  0.2341
16082TIP3    H169661   3.990   0.808   1.355 -0.3880  0.5314  1.0348
16082TIP3    H269662   3.847   0.844   1.391 -1.0397 -1.2157  0.2657
16083TIP3   OH269663   2.173   3.291   5.657  0.1816 -0.1881 -0.4280
16083TIP3    H169664   2.229   3.301   5.734 -0.3612  0.8666 -0.1513
16083TIP3    H269665   2.195   3.365   5.600 -1.4556  0.7244  0.0490
16084TIP3   OH269666   4.211   0.011  16.926 -0.2086 -0.3239  0.6024
16084TIP3    H169667   4.263   0.002  17.006 -0.5326 -1.0807  0.7389
16084TIP3    H269668   4.121   0.017  16.957 -0.3337 -0.6073  0.2981
16085TIP3   OH269669   5.148   4.888  13.131 -0.3008  0.9748  0.0650
16085TIP3    H169670   5.171   4.898  13.038  0.5553  0.5809  0.2273
16085TIP3    H269671   5.226   4.917  13.178 -0.3055  0.0617  0.6480
16086TIP3   OH269672   5.177   2.959   3.903  0.2085 -0.5061  0.4326
16086TIP3    H169673   5.244   2.909   3.857 -0.8022 -1.4815 -0.0421
16086TIP3    H269674   5.214   3.046   3.912  0.7629 -0.4777 -1.5904
16087TIP3   OH269675   4.590   0.824  14.337  0.6395  0.5418  0.3120
16087TIP3    H169676   4.547   0.804  14.420 -1.7094 -1.1045 -1.1911
16087TIP3    H269677   4.669   0.770  14.337  1.2856  1.4192  1.8982
16088TIP3   OH269678   0.901   2.053  13.937 -0.1810 -0.0584 -0.1981
16088TIP3    H169679   0.821   2.091  13.901  0.4283  3.0040  1.3417
16088TIP3    H269680   0.962   2.051  13.864 -1.1509 -0.9198 -1.0104
16089TIP3   OH269681   5.610   0.132   2.254 -0.1511 -0.3471 -0.0481
16089TIP3    H169682   5.690   0.182   2.234 -0.4082  0.0708 -0.0413
16089TIP3    H269683   5.573   0.111   2.169  0.4509 -1.3427 -0.0763
16090TIP3   OH269684   0.979   0.337   3.901  0.2793 -0.6210 -0.0943
16090TIP3    H169685   1.033   0.348   3.823 -2.5669 -0.2583 -2.1625
16090TIP3    H269686   0.965   0.426   3.933  1.1649 -0.7471  0.7125
16091TIP3   OH269687   1.858   0.631  17.060 -0.4530  0.5589 -0.2148
16091TIP3    H169688   1.829   0.648  17.150 -2.4907  0.3672 -0.7869
16091TIP3    H269689   1.938   0.578  17.071 -1.4554 -0.7352  1.4963
16092TIP3   OH269690   0.019   5.249  12.416  0.3540 -0.7988  0.0332
16092TIP3    H169691  -0.023   5.164  12.402  0.1616 -0.9425  1.3699
16092TIP3    H269692   0.082   5.233  12.487  1.4441 -0.1837 -0.7687
16093TIP3   OH269693   1.577   5.235  15.423  0.0641  0.1353 -0.7066
16093TIP3    H169694   1.485   5.256  15.405 -0.2650 -0.2470  0.4537
16093TIP3    H269695   1.575   5.146  15.457  0.7270  0.5490  0.4439
16094TIP3   OH269696   0.002   5.419   3.074 -0.1643 -0.2482  0.2001
16094TIP3    H169697  -0.080   5.448   3.033  0.5247  0.3461 -0.8158
16094TIP3    H269698   0.049   5.500   3.093  0.9334 -0.6078 -0.8467
16095TIP3   OH269699   2.464   3.516   1.877  0.8704  0.1251  0.1901
16095TIP3    H169700   2.459   3.421   1.890 -2.8516  0.3533  1.6717
16095TIP3    H269701   2.485   3.527   1.784  0.1258 -2.1705 -0.3117
16096TIP3   OH269702   4.744   3.445  15.405 -0.5385  0.2848 -0.3708
16096TIP3    H169703   4.753   3.539  15.419 -2.1903  0.1636  2.3341
16096TIP3    H269704   4.664   3.422  15.453  0.6034 -2.7270  0.3056
16097TIP3   OH269705   2.616   1.864  14.901  0.5770  0.5051  0.1367
16097TIP3    H169706   2.650   1.914  14.827 -0.0559 -0.3311 -0.7501
16097TIP3    H269707   2.652   1.907  14.978  1.8781  0.9313 -0.6881
16098TIP3   OH269708   0.324   0.736   1.800  0.0242 -0.5841 -0.1616
16098TIP3    H169709   0.346   0.654   1.755 -0.4423 -0.4540 -0.6449
16098TIP3    H269710   0.252   0.773   1.748 -3.1939 -2.2486  2.6590
16099TIP3   OH269711   4.779   2.560  12.364 -0.5904 -0.1372  0.0208
16099TIP3    H169712   4.795   2.604  12.280 -1.2607 -1.2653 -0.7228
16099TIP3    H269713   4.720   2.488  12.342 -1.4280  0.0325  1.6036
16100TIP3   OH269714   0.173   1.181   3.068 -0.2215  0.2461  0.0905
16100TIP3    H169715   0.233   1.213   3.135 -0.3102  0.5789  0.0148
16100TIP3    H269716   0.091   1.228   3.084 -0.3091  0.1658 -0.1120
16101TIP3   OH269717   6.180   4.415   5.999  0.1026 -0.1100  0.1832
16101TIP3    H169718   6.230   4.375   6.071 -2.1024 -1.2655  1.1741
16101TIP3    H269719   6.197   4.509   6.008  1.6908 -0.4122  0.7422
16102TIP3   OH269720   0.461   4.328  14.479  0.7177  0.2039  0.1726
16102TIP3    H169721   0.394   4.349  14.543 -0.2107  0.4021 -0.8362
16102TIP3    H269722   0.478   4.234  14.491  0.5394  0.2376  0.6813
16103TIP3   OH269723   1.486   5.224  16.666  0.1420 -0.1398  0.1594
16103TIP3    H169724   1.517   5.185  16.748 -0.2844  1.4531  1.1113
16103TIP3    H269725   1.393   5.240  16.681  0.0453  0.1128 -0.6766
16104TIP3   OH269726   5.962   0.437   0.360 -0.1116 -0.1082 -0.4747
16104TIP3    H169727   5.954   0.351   0.401 -0.0628  0.6838  1.2711
16104TIP3    H269728   6.051   0.465   0.379 -0.9345  1.4598  1.3787
16105TIP3   OH269729   2.024   5.742   4.955  0.1571 -0.0040  0.5587
16105TIP3    H169730   1.943   5.789   4.937  1.3156  1.3668 -1.4750
16105TIP3    H269731   2.064   5.729   4.869  2.1604 -0.5122  1.5072
16106TIP3   OH269732   5.328   2.432  14.472 -0.3357 -0.3644  0.6875
16106TIP3    H169733   5.396   2.466  14.530 -1.3913  0.4692  1.4805
16106TIP3    H269734   5.361   2.449  14.384  0.9610 -0.9690  1.0314
16107TIP3   OH269735   6.678   4.636   0.263  0.2467  0.3093 -0.3794
16107TIP3    H169736   6.637   4.683   0.335 -0.8289  0.3761 -1.0157
16107TIP3    H269737   6.702   4.704   0.200 -1.4726  0.0338 -1.3821
16108TIP3   OH269738   3.478   3.177   3.913  0.7874  0.2008  0.2359
16108TIP3    H169739   3.568   3.145   3.924  1.9344  2.4068 -1.7741
16108TIP3    H269740   3.428   3.101   3.885  2.1637 -0.9328  0.7606
16109TIP3   OH269741   0.125   0.869   0.614 -0.1544 -0.3693 -0.1952
16109TIP3    H169742   0.211   0.827   0.603  0.3886  0.3327  1.1372
16109TIP3    H269743   0.139   0.935   0.682 -1.0860  1.6493 -1.8228
16110TIP3   OH269744   0.513   1.021  16.209  0.5742 -0.3575  0.3464
16110TIP3    H169745   0.491   1.087  16.143  1.7897 -0.1461  0.1235
16110TIP3    H269746   0.443   0.956  16.202 -0.3713  0.6479  0.2191
16111TIP3   OH269747   6.279   0.438  16.867 -0.1323  0.6147 -0.1499
16111TIP3    H169748   6.310   0.455  16.778  1.0319 -0.3742  0.0371
16111TIP3    H269749   6.335   0.367  16.899 -0.4391  1.0413  1.4261
16112TIP3   OH269750   1.856   2.695  12.094  0.1958  0.4084 -0.6708
16112TIP3    H169751   1.871   2.614  12.046 -0.0971  0.3073 -0.5918
16112TIP3    H269752   1.850   2.762  12.026  0.6849  0.4040 -0.7230
16113TIP3   OH269753   2.273   5.945   1.994 -0.1073 -0.0374  1.2292
16113TIP3    H169754   2.205   5.911   1.936 -1.0787  1.6651  1.3114
16113TIP3    H269755   2.347   5.962   1.936 -0.6710  0.5726  0.6772
16114TIP3   OH269756   3.886   5.573   0.869  0.0757  0.1405  0.3344
16114TIP3    H169757   3.901   5.666   0.849 -0.6369  0.8786  2.8275
16114TIP3    H269758   3.802   5.553   0.827 -0.2134  0.9050  0.5215
16115TIP3   OH269759   5.330   4.934   0.602 -0.4623  0.4078  0.0696
16115TIP3    H169760   5.262   4.973   0.548 -1.1675  0.9339  1.2967
16115TIP3    H269761   5.311   4.840   0.602 -1.9504  0.6781  1.3890
16116TIP3   OH269762   4.795   6.640  13.202 -0.1855  0.1767  0.0104
16116TIP3    H169763   4.799   6.672  13.292  1.3909  1.8926 -0.6118
16116TIP3    H269764   4.706   6.663  13.173  0.0638  1.7661  0.4158
16117TIP3   OH269765   0.261   6.762   5.479 -0.1298 -0.4507  0.5923
16117TIP3    H169766   0.199   6.698   5.514 -0.0854 -1.4211 -0.9938
16117TIP3    H269767   0.214   6.802   5.405 -0.3270  1.7249  1.8273
16118TIP3   OH269768   4.626   6.439   3.728 -0.3808  0.6830 -0.5965
16118TIP3    H169769   4.615   6.359   3.779  1.8811  0.9579  0.4613
16118TIP3    H269770   4.558   6.498   3.762  1.0743  0.8805  2.2725
16119TIP3   OH269771   0.390   5.686   3.857 -0.5406 -0.4008  0.0764
16119TIP3    H169772   0.466   5.627   3.857 -0.0956  0.0384 -2.5794
16119TIP3    H269773   0.315   5.628   3.868 -0.0656 -1.4922 -1.8564
16120TIP3   OH269774   5.623   4.510  12.212 -0.5567 -0.3807  0.3001
16120TIP3    H169775   5.622   4.421  12.176  0.4683 -0.2410 -0.1069
16120TIP3    H269776   5.708   4.546  12.186 -0.5611  0.3892  1.2822
16121TIP3   OH269777   4.841   5.221  12.855 -0.4155  0.5203  0.4209
16121TIP3    H169778   4.784   5.267  12.793  0.4491  0.8362 -0.1634
16121TIP3    H269779   4.928   5.259  12.840 -0.1274  0.3586  1.5977
16122TIP3   OH269780   3.399   1.957   3.594  0.3640  0.3503 -0.2165
16122TIP3    H169781   3.338   2.027   3.572 -0.2377 -0.4486 -1.2022
16122TIP3    H269782   3.420   1.971   3.686 -2.9159 -0.4810  0.8068
16123TIP3   OH269783   0.915   6.320   0.326 -0.0135  0.1378  0.5138
16123TIP3    H169784   0.829   6.346   0.295  0.2593  1.8339  1.0735
16123TIP3    H269785   0.902   6.300   0.419  0.1520  0.2148  0.5544
16124TIP3   OH269786   1.663   6.678   5.216 -0.2753 -0.7203  0.3769
16124TIP3    H169787   1.714   6.604   5.249 -0.7080 -1.0338  0.3534
16124TIP3    H269788   1.671   6.673   5.121  1.6876  0.6870  0.3971
16125TIP3   OH269789   2.445   3.001   1.759  0.4475  0.0890  0.0595
16125TIP3    H169790   2.417   2.974   1.672 -2.7035  0.1011  0.9325
16125TIP3    H269791   2.380   2.961   1.818  1.2799  1.7172  2.2202
16126TIP3   OH269792   3.522   5.149   3.087  0.0455 -0.4364 -0.7309
16126TIP3    H169793   3.477   5.108   3.160 -0.1490  2.0734  0.6756
16126TIP3    H269794   3.464   5.220   3.059  2.1285  1.6237 -0.1768
16127TIP3   OH269795   3.753   1.305  15.410 -0.4273  0.0396 -0.0745
16127TIP3    H169796   3.846   1.328  15.403 -0.8882  2.1228 -0.0228
16127TIP3    H269797   3.721   1.357  15.484 -1.2690 -2.1001  1.1844
16128TIP3   OH269798   4.223   0.035  11.698  0.1713  0.0020 -0.3174
16128TIP3    H169799   4.142   0.013  11.744 -0.2739  0.3101 -0.9369
16128TIP3    H269800   4.194   0.080  11.619  0.9310 -0.3797 -0.8258
16129TIP3   OH269801   5.852   5.319  14.618  0.0128 -0.2715  0.2895
16129TIP3    H169802   5.787   5.255  14.591  0.1170 -0.2571  0.0019
16129TIP3    H269803   5.808   5.371  14.685  0.0245 -0.8237  0.7326
16130TIP3   OH269804   2.958   0.464  14.719 -0.0158 -0.2981 -0.0582
16130TIP3    H169805   2.891   0.496  14.779  1.0980 -2.9244  2.8493
16130TIP3    H269806   2.914   0.397  14.668 -0.5324  0.7739 -1.0783
16131TIP3   OH269807   4.471   1.617   3.754 -0.0443  0.1128 -0.5328
16131TIP3    H169808   4.536   1.687   3.764 -1.2397  1.3043 -0.9039
16131TIP3    H269809   4.414   1.647   3.683  0.1136 -1.8037 -1.5616
16132TIP3   OH269810   6.106   0.355  14.411 -0.1542  0.2985 -0.3735
16132TIP3    H169811   6.061   0.345  14.496  1.3103  0.7784  0.4816
16132TIP3    H269812   6.055   0.300  14.351 -0.1857 -1.4963  1.2168
16133TIP3   OH269813   0.785   1.778   3.121  0.2655 -0.3714  0.1588
16133TIP3    H169814   0.704   1.740   3.156 -0.5883  0.9535 -0.3195
16133TIP3    H269815   0.854   1.722   3.156 -0.5108  0.6866  3.8216
16134TIP3   OH269816   4.161   4.545   4.349  0.7243  0.4099  0.5765
16134TIP3    H169817   4.095   4.524   4.416  0.0182  1.2816  0.1726
16134TIP3    H269818   4.170   4.465   4.299 -0.9597  0.6147 -0.1257
16135TIP3   OH269819   3.294   0.094   4.375  0.0957 -0.4525 -0.4079
16135TIP3    H169820   3.371   0.144   4.403 -1.0875  0.5869  1.1459
16135TIP3    H269821   3.222   0.156   4.382 -0.5815 -0.4571 -4.6642
16136TIP3   OH269822   0.985   0.035  14.382  0.2144 -0.4475  0.0583
16136TIP3    H169823   0.979   0.124  14.346  2.4313 -0.3908 -0.3271
16136TIP3    H269824   0.922   0.034  14.454 -0.0432  1.3669 -0.0894
16137TIP3   OH269825   2.676   0.435   2.396 -0.1483  0.0753  0.0431
16137TIP3    H169826   2.645   0.452   2.485 -0.4584 -0.1236 -0.0229
16137TIP3    H269827   2.725   0.513   2.372  1.0620 -0.3997  0.8736
16138TIP3   OH269828   1.019   3.224   0.981 -0.3231  0.0513  0.0566
16138TIP3    H169829   1.104   3.225   0.936  0.9020  0.6983  2.2082
16138TIP3    H269830   1.019   3.142   1.030 -0.5084  0.4826  0.7994
16139TIP3   OH269831   1.283   1.012   0.805 -0.7674  0.1119 -0.0356
16139TIP3    H169832   1.219   0.950   0.839 -1.3827  0.2122 -0.9726
16139TIP3    H269833   1.360   0.958   0.786 -1.0412 -0.2438 -0.1569
16140TIP3   OH269834   5.818   6.294   4.924  0.6710  0.3206 -0.2732
16140TIP3    H169835   5.883   6.223   4.928  0.2334 -0.1685 -1.4550
16140TIP3    H269836   5.852   6.353   4.856  0.3547  0.5461 -0.2352
16141TIP3   OH269837   1.499   6.196   2.966 -0.1505 -0.0892  0.0950
16141TIP3    H169838   1.490   6.262   2.897 -0.0808 -1.0169 -0.8358
16141TIP3    H269839   1.411   6.189   3.004 -0.2036  0.3928  0.0677
16142TIP3   OH269840   0.338   1.775  11.766  0.7584 -0.4159 -0.3972
16142TIP3    H169841   0.256   1.824  11.768  0.8641 -0.2392 -0.4206
16142TIP3    H269842   0.374   1.792  11.678  1.6637  0.8824  0.1860
16143TIP3   OH269843   6.072   0.467   3.642  0.1704 -0.7776  0.4925
16143TIP3    H169844   6.042   0.400   3.580 -0.1913  0.4286 -0.6782
16143TIP3    H269845   6.121   0.418   3.708 -1.4918 -2.4003  0.6035
16144TIP3   OH269846   4.940   4.997   1.795  0.4895 -0.3163  0.0451
16144TIP3    H169847   5.007   5.027   1.733  0.3194 -0.2645 -0.1171
16144TIP3    H269848   4.865   4.976   1.739  0.8875 -1.8802  0.0566
16145TIP3   OH269849   5.356   6.563   1.286  0.5838  0.5248  0.2528
16145TIP3    H169850   5.411   6.513   1.347  2.1182  0.7618 -0.8942
16145TIP3    H269851   5.392   6.543   1.200 -1.8975 -0.2582 -0.6891
16146TIP3   OH269852   3.152   5.825   1.423 -0.5963  0.7767 -0.3330
16146TIP3    H169853   3.237   5.867   1.414 -0.5665  0.7004 -0.4094
16146TIP3    H269854   3.099   5.887   1.474 -0.6218  1.0051 -0.6346
16147TIP3   OH269855   3.763   1.655   2.211  0.5071  0.1260 -0.5190
16147TIP3    H169856   3.748   1.683   2.120 -0.0479 -0.3002 -0.5664
16147TIP3    H269857   3.807   1.729   2.252  1.9308 -0.1493 -1.4670
16148TIP3   OH269858   5.461   5.430   2.320  0.1614  0.0824  0.2040
16148TIP3    H169859   5.469   5.443   2.415 -1.3228  2.0021  0.1044
16148TIP3    H269860   5.399   5.357   2.311  1.7532 -1.4019  0.6768
16149TIP3   OH269861   4.126   0.562  16.031 -0.3128  0.7396  0.1149
16149TIP3    H169862   4.154   0.608  16.110 -1.1277  0.5295  0.5350
16149TIP3    H269863   4.102   0.474  16.061 -0.0688  0.4698 -0.4624
16150TIP3   OH269864   2.633   0.427   2.869 -0.4817 -0.3599 -0.0247
16150TIP3    H169865   2.607   0.518   2.875 -2.0725 -0.6469 -1.7732
16150TIP3    H269866   2.692   0.414   2.943 -0.3892  2.0072  0.3787
16151TIP3   OH269867   3.473   3.480  13.042 -0.3486  0.4252 -0.1356
16151TIP3    H169868   3.500   3.473  12.950  0.9533 -0.1632  0.2656
16151TIP3    H269869   3.438   3.393  13.064  1.6481 -0.2434  0.5904
16152TIP3   OH269870   2.435   3.504   0.443  0.0467 -0.1390 -0.0980
16152TIP3    H169871   2.354   3.460   0.417  0.8182 -0.8179 -1.4024
16152TIP3    H269872   2.505   3.445   0.416  0.9898 -0.1399  2.1215
16153TIP3   OH269873   6.356   2.794  16.791 -0.0643  0.1908  0.2629
16153TIP3    H169874   6.332   2.709  16.828  0.6304 -1.0531 -1.9364
16153TIP3    H269875   6.449   2.804  16.814 -0.1317  0.3275  0.4742
16154TIP3   OH269876   3.642   3.836   5.687 -0.8408 -0.1361  0.1789
16154TIP3    H169877   3.693   3.834   5.606 -1.4961  0.0265 -0.2466
16154TIP3    H269878   3.684   3.903   5.740 -0.5482 -0.0802 -0.1195
16155TIP3   OH269879   3.362   5.678  15.327  0.7063 -0.3738 -0.0760
16155TIP3    H169880   3.327   5.627  15.400 -0.0023  0.9259  0.5265
16155TIP3    H269881   3.315   5.762  15.331  1.8327  0.3387 -1.0289
16156TIP3   OH269882   6.527   2.424  10.360  0.1099  0.1397 -0.0068
16156TIP3    H169883   6.606   2.373  10.379 -0.5421 -0.1596  2.2003
16156TIP3    H269884   6.539   2.506  10.409 -0.6573  0.3798 -0.2006
16157TIP3   OH269885   4.915   2.860  15.092 -0.0054 -0.0511  0.5854
16157TIP3    H169886   4.924   2.782  15.146 -1.3599 -0.6841 -0.0409
16157TIP3    H269887   4.961   2.838  15.011 -0.5082 -0.2618  0.3546
16158TIP3   OH269888   2.312   1.329  14.671 -0.1320  0.2822  0.3881
16158TIP3    H169889   2.223   1.301  14.690 -0.2375 -1.2770 -1.8974
16158TIP3    H269890   2.308   1.424  14.671 -1.7054  0.2483  0.7006
16159TIP3   OH269891   6.437   4.754  16.091  0.4705 -0.2286 -0.1443
16159TIP3    H169892   6.345   4.727  16.091 -0.4463  2.6250  0.2033
16159TIP3    H269893   6.463   4.749  15.999  0.1127 -1.3758 -0.2009
16160TIP3   OH269894   5.342   2.807   6.074  0.3112  0.2620 -0.5719
16160TIP3    H169895   5.375   2.856   6.149  2.7845 -1.8774 -0.1297
16160TIP3    H269896   5.420   2.793   6.019 -0.9805 -0.2861 -2.3397
16161TIP3   OH269897   0.605   5.224  11.129  0.3384 -0.0359 -0.5350
16161TIP3    H169898   0.639   5.138  11.152 -1.5911 -0.4985  0.8327
16161TIP3    H269899   0.682   5.281  11.129  1.1954 -0.9896  2.5237
16162TIP3   OH269900   5.754   6.634  16.326 -0.5943 -0.4571  0.3915
16162TIP3    H169901   5.737   6.695  16.254  0.1756 -1.1336 -0.3749
16162TIP3    H269902   5.841   6.658  16.358 -0.4769 -0.8798  0.3818
16163TIP3   OH269903   2.105   4.033  13.018  0.3966  0.2676  0.5036
16163TIP3    H169904   2.088   4.124  12.995 -0.6692 -0.2315 -0.8114
16163TIP3    H269905   2.063   3.982  12.948  0.1905 -1.2538  1.6845
16164TIP3   OH269906   6.451   0.927  11.447  0.4592  0.4092  0.5317
16164TIP3    H169907   6.462   0.948  11.540 -0.2493 -1.3689  1.0642
16164TIP3    H269908   6.358   0.904  11.440  0.6395 -0.0028 -0.5085
16165TIP3   OH269909   6.755   4.391  13.729 -0.3791  0.0773  1.0671
16165TIP3    H169910   6.843   4.425  13.718  0.2202 -1.3401  1.3381
16165TIP3    H269911   6.767   4.299  13.753 -1.9531 -0.5809 -0.4464
16166TIP3   OH269912   1.707   0.722  14.305 -0.0203 -0.1220  0.0819
16166TIP3    H169913   1.732   0.643  14.353 -2.1242 -1.0849 -0.2859
16166TIP3    H269914   1.687   0.691  14.217 -0.7695  0.8296 -0.1041
16167TIP3   OH269915   3.654   6.088   4.631 -0.0541 -0.3561 -0.1616
16167TIP3    H169916   3.648   5.993   4.640  1.1560 -0.4414 -0.1287
16167TIP3    H269917   3.671   6.120   4.719  0.8168 -0.2287 -0.3687
16168TIP3   OH269918   4.418   6.682  12.648  0.4740  0.1603  0.2645
16168TIP3    H169919   4.502   6.717  12.677  0.3616  0.2755  0.4487
16168TIP3    H269920   4.420   6.589  12.673  0.0420  0.4380  1.3993
16169TIP3   OH269921   1.058   1.688   5.155 -0.3654 -0.2038  0.6316
16169TIP3    H169922   1.006   1.658   5.081  0.4985 -0.7525  0.2232
16169TIP3    H269923   1.109   1.761   5.121 -1.3516  0.7859  1.2172
16170TIP3   OH269924   0.042   4.035  11.392  0.2471 -0.4171 -0.5249
16170TIP3    H169925   0.066   3.961  11.336  0.4299 -0.6208 -0.1789
16170TIP3    H269926   0.101   4.106  11.364  0.6547 -0.6547 -0.2832
16171TIP3   OH269927   6.665   0.807   1.222 -0.0617 -0.3023 -0.0492
16171TIP3    H169928   6.599   0.851   1.169  0.5272 -0.4150 -0.9135
16171TIP3    H269929   6.748   0.826   1.177  0.5173 -0.0357  1.0909
16172TIP3   OH269930   2.444   2.843  12.762 -0.2467  0.8990  0.4911
16172TIP3    H169931   2.354   2.844  12.729  0.2100  1.2372 -0.8104
16172TIP3    H269932   2.497   2.815  12.687  0.5911 -0.8829  1.6759
16173TIP3   OH269933   6.388   4.896   2.083 -0.2615  0.9451  0.0180
16173TIP3    H169934   6.319   4.960   2.063 -1.9806 -0.7203  0.3477
16173TIP3    H269935   6.358   4.852   2.162 -0.5086 -2.0355 -1.5778
16174TIP3   OH269936   1.235   1.927  13.712 -0.0216 -0.5761 -0.5287
16174TIP3    H169937   1.197   2.015  13.703  1.0544 -0.0819 -0.4345
16174TIP3    H269938   1.184   1.886  13.782  0.6331  0.6508  0.7142
16175TIP3   OH269939   0.092   2.845   1.551 -0.0113 -0.0347 -0.2343
16175TIP3    H169940   0.136   2.763   1.525 -0.2424 -0.0933 -0.4485
16175TIP3    H269941   0.006   2.839   1.510 -0.8050 -0.6372  1.4428
16176TIP3   OH269942   3.214   5.738   5.097 -0.0958 -0.1338  0.2827
16176TIP3    H169943   3.273   5.679   5.144 -0.6008 -1.4065 -0.6046
16176TIP3    H269944   3.242   5.731   5.006  0.0986  1.3514  0.2185
16177TIP3   OH269945   6.245   6.015  15.073 -0.8999 -0.7119  0.2750
16177TIP3    H169946   6.208   6.012  14.984  0.0991 -1.3739 -0.1425
16177TIP3    H269947   6.177   5.976  15.128 -1.1025 -1.3116 -0.3724
16178TIP3   OH269948   2.945   2.407  12.595 -0.1925  0.5088 -0.0426
16178TIP3    H169949   2.876   2.361  12.643 -0.1823 -0.4784 -0.9281
16178TIP3    H269950   2.901   2.482  12.556 -0.2203  1.2728  1.3818
16179TIP3   OH269951   5.057   6.380  15.023  0.0771  0.0066  0.2958
16179TIP3    H169952   5.026   6.455  15.074 -0.6757  1.2125 -1.8069
16179TIP3    H269953   5.148   6.402  15.003  0.1157 -0.0554  0.4029
16180TIP3   OH269954   3.476   3.674  13.230  0.3761  0.1757 -0.2644
16180TIP3    H169955   3.484   3.605  13.165  1.2471  1.2158 -1.2966
16180TIP3    H269956   3.518   3.638  13.308 -0.9016 -1.1794 -0.1553
16181TIP3   OH269957   2.852   2.436   1.226 -0.7344  0.0004  0.3003
16181TIP3    H169958   2.887   2.360   1.271  1.7261  0.0120 -1.3713
16181TIP3    H269959   2.902   2.440   1.144 -1.4690  2.8142 -0.1154
16182TIP3   OH269960   1.971   4.134  15.526  0.0434  0.2332  0.7414
16182TIP3    H169961   2.019   4.053  15.510 -0.1079  0.2050  0.4212
16182TIP3    H269962   1.890   4.106  15.569  0.0494  0.2283  0.7500
16183TIP3   OH269963   0.994   6.022   2.631  0.0524  0.2593 -0.5980
16183TIP3    H169964   0.930   6.088   2.607  0.0063  0.1696 -0.7202
16183TIP3    H269965   0.962   5.986   2.714  0.6149  1.1089  0.0122
16184TIP3   OH269966   4.135   6.420   2.353  0.5085  0.1915 -0.3300
16184TIP3    H169967   4.222   6.415   2.392  0.4238 -0.3438 -0.2089
16184TIP3    H269968   4.086   6.349   2.394 -0.3189  1.1636  0.4356
16185TIP3   OH269969   6.687   0.105   6.326 -0.1533 -0.5874 -0.1205
16185TIP3    H169970   6.755   0.151   6.276 -0.9004 -0.0335 -0.6436
16185TIP3    H269971   6.667   0.027   6.273 -1.6296  0.4820 -1.2454
16186TIP3   OH269972   5.437   0.531  12.682 -0.1925  0.1510 -0.0010
16186TIP3    H169973   5.419   0.445  12.643 -2.7389  0.7185 -0.2416
16186TIP3    H269974   5.390   0.530  12.765 -0.1481  1.2509  0.0483
16187TIP3   OH269975   1.377   4.125  12.896  0.3159  0.3485  0.4387
16187TIP3    H169976   1.381   4.197  12.833  1.1578  0.3541  0.4934
16187TIP3    H269977   1.295   4.081  12.875  0.3786  0.5955 -0.3964
16188TIP3   OH269978   0.737   0.739   0.642  0.1151  0.2009  0.4318
16188TIP3    H169979   0.716   0.829   0.666  0.4525  0.3131  0.3114
16188TIP3    H269980   0.784   0.704   0.718  0.2497  0.2214  0.3583
16189TIP3   OH269981   5.753   5.168  14.376  0.8508 -0.6228 -0.4143
16189TIP3    H169982   5.821   5.216  14.329  0.1012 -0.7799 -1.6915
16189TIP3    H269983   5.750   5.082  14.334  2.0053 -1.7797  1.6807
16190TIP3   OH269984   3.564   1.524   1.819 -0.2865  0.0106 -0.6338
16190TIP3    H169985   3.606   1.583   1.756 -0.0268 -2.3633 -2.8869
16190TIP3    H269986   3.474   1.555   1.824 -0.3640  0.1904 -2.3701
16191TIP3   OH269987   0.345   0.388   0.523 -0.2481 -0.5661 -0.5363
16191TIP3    H169988   0.312   0.412   0.610 -0.0041 -1.5894 -0.1519
16191TIP3    H269989   0.350   0.293   0.524 -1.9505 -0.7490 -2.2943
16192TIP3   OH269990   6.554   1.089  15.766  0.0644 -0.4698  0.4391
16192TIP3    H169991   6.558   1.177  15.802 -2.2893  0.6358 -1.6728
16192TIP3    H269992   6.488   1.044  15.819  0.6138 -0.6832  0.9494
16193TIP3   OH269993   0.958   6.069  14.163  0.6059 -0.0311  0.1596
16193TIP3    H169994   0.929   6.072  14.071  2.9251  0.2861 -0.6278
16193TIP3    H269995   0.920   6.147  14.203  0.4416  0.4016 -0.8151
16194TIP3   OH269996   6.016   0.331  11.213  0.1592  0.0270 -0.3130
16194TIP3    H169997   5.985   0.245  11.242  0.7608  0.0093  0.2935
16194TIP3    H269998   5.937   0.385  11.208 -0.1398 -0.3871 -0.1017
16195TIP3   OH269999   6.342   1.544   5.975 -0.2332  0.1845  0.0160
16195TIP3    H170000   6.419   1.541   5.918 -0.6993  0.9241 -0.6732
16195TIP3    H270001   6.359   1.478   6.042  1.5186  1.1181  0.5465
16196TIP3   OH270002   4.489   0.236  11.637  0.0819  0.2532  0.1038
16196TIP3    H170003   4.444   0.285  11.568 -0.2575  0.7928  0.6918
16196TIP3    H270004   4.430   0.242  11.712 -0.2354 -1.5637  0.0330
16197TIP3   OH270005   2.039   0.791  10.618 -0.0766 -0.3028  0.9053
16197TIP3    H170006   2.013   0.785  10.525  1.5193  1.6548  0.2826
16197TIP3    H270007   1.956   0.794  10.665 -0.9401 -0.1469 -0.5493
16198TIP3   OH270008   5.724   0.209  12.564  0.1850 -0.6814  0.2796
16198TIP3    H170009   5.746   0.116  12.558  0.9879 -0.4574 -0.3226
16198TIP3    H270010   5.801   0.255  12.533 -1.0323  0.1242 -1.7752
16199TIP3   OH270011   5.412   2.165  13.700  0.4065  0.7827  0.0052
16199TIP3    H170012   5.505   2.144  13.707  0.3600  0.7175  0.4449
16199TIP3    H270013   5.375   2.094  13.647  0.6777  1.0234 -0.5083
16200TIP3   OH270014   1.728   6.196   3.680  0.3687  0.0871 -0.0639
16200TIP3    H170015   1.730   6.107   3.716 -2.7265 -0.2754 -0.5764
16200TIP3    H270016   1.718   6.253   3.756 -1.5952 -0.3490  0.0544
16201TIP3   OH270017   2.731   2.028   3.834 -0.4194 -0.8389 -0.4343
16201TIP3    H170018   2.703   2.086   3.764 -0.9684 -1.1531 -0.4778
16201TIP3    H270019   2.744   2.086   3.909 -0.7344 -0.6273 -0.5421
16202TIP3   OH270020   6.351   5.598  14.687 -0.1088  0.2783 -0.5122
16202TIP3    H170021   6.325   5.690  14.693 -3.3372 -0.4365 -1.4728
16202TIP3    H270022   6.329   5.561  14.772 -1.4070 -0.1019 -0.9801
16203TIP3   OH270023   4.738   1.436  16.926  0.0469  0.5564  0.3701
16203TIP3    H170024   4.795   1.503  16.888 -1.6532  1.7458 -0.2125
16203TIP3    H270025   4.761   1.356  16.879 -0.6901  1.5999 -1.9331
16204TIP3   OH270026   2.702   5.442  14.633 -0.4233  0.4556  0.2448
16204TIP3    H170027   2.796   5.429  14.644 -0.4519 -0.5289 -0.5387
16204TIP3    H270028   2.679   5.507  14.699  0.6932  0.2595  0.8495
16205TIP3   OH270029   0.220   0.768  11.164 -0.3127  0.0576  0.3499
16205TIP3    H170030   0.133   0.727  11.165 -0.2256 -0.1300  0.3742
16205TIP3    H270031   0.262   0.732  11.086 -0.3943  0.4406  0.1287
16206TIP3   OH270032   1.213   4.279   4.760 -0.2554 -0.1987  0.8478
16206TIP3    H170033   1.154   4.333   4.812 -0.5920 -0.2926  0.5648
16206TIP3    H270034   1.213   4.194   4.803 -0.3570 -0.2101  0.8245
16207TIP3   OH270035   4.843   1.012   0.119 -0.3282 -0.0120 -0.1142
16207TIP3    H170036   4.894   1.053   0.188  0.8451 -0.7901 -0.4822
16207TIP3    H270037   4.857   1.068   0.042 -0.1674 -0.1215 -0.1663
16208TIP3   OH270038   4.051   4.074  16.550 -0.3162  0.4859 -0.2107
16208TIP3    H170039   4.121   4.016  16.517 -0.9192 -0.2766 -0.1754
16208TIP3    H270040   4.095   4.131  16.613 -0.1013 -1.4609  1.5209
16209TIP3   OH270041   1.542   0.676   3.320 -1.1347 -0.4328  0.0236
16209TIP3    H170042   1.635   0.683   3.343 -0.3149 -0.2991 -2.9148
16209TIP3    H270043   1.520   0.762   3.284 -2.3172 -0.5984  0.3132
16210TIP3   OH270044   6.026   2.997  11.642  0.3335 -0.2225 -0.0764
16210TIP3    H170045   5.972   2.936  11.692  0.3419  0.8638  1.3269
16210TIP3    H270046   6.027   2.961  11.553  1.3416 -2.9366  0.9065
16211TIP3   OH270047   3.033   2.074   2.060  0.0448 -0.2906 -0.1097
16211TIP3    H170048   2.974   2.148   2.077  0.0679 -0.2992  0.0036
16211TIP3    H270049   3.041   2.029   2.144 -0.0905 -0.5104 -0.2136
16212TIP3   OH270050   2.835   3.648   6.609  0.0376  0.0763 -0.3532
16212TIP3    H170051   2.742   3.650   6.632 -0.3978  0.9327 -2.0187
16212TIP3    H270052   2.860   3.740   6.607  0.8939 -0.1465 -0.0591
16213TIP3   OH270053   5.491   6.624  14.560  0.5302 -0.0121 -0.1501
16213TIP3    H170054   5.475   6.589  14.473 -0.5889  1.3064 -0.5019
16213TIP3    H270055   5.586   6.631  14.566  0.6013  0.4409 -1.4915
16214TIP3   OH270056   4.966   1.889   2.265 -0.4764 -0.0045 -0.3548
16214TIP3    H170057   5.008   1.877   2.180 -0.4097  0.1691 -0.3465
16214TIP3    H270058   5.025   1.947   2.313 -0.7748  0.3226 -0.3810
16215TIP3   OH270059   3.999   5.728   1.094 -0.6385 -0.4625  0.4018
16215TIP3    H170060   4.000   5.659   1.028 -1.5277  0.4640 -0.6176
16215TIP3    H270061   3.929   5.786   1.066  0.8511  1.4985  0.5833
16216TIP3   OH270062   5.782   1.899  17.098 -0.0397 -0.4360 -0.4241
16216TIP3    H170063   5.831   1.979  17.113  1.4392 -1.4838  0.6226
16216TIP3    H270064   5.822   1.861  17.020  2.2594 -2.2455  1.4907
16217TIP3   OH270065   2.204   1.424  12.605 -0.0730  0.1581  0.2052
16217TIP3    H170066   2.118   1.421  12.564  1.2054  0.6196 -2.7323
16217TIP3    H270067   2.224   1.333  12.626 -1.2962  0.0626  1.0232
16218TIP3   OH270068   4.903   2.636  17.187 -0.1988  0.1277 -0.7444
16218TIP3    H170069   4.824   2.689  17.175  0.5472  1.9880  1.8333
16218TIP3    H270070   4.975   2.693  17.160  0.4279 -0.7746 -1.0210
16219TIP3   OH270071   0.096   5.916  11.650  0.4106 -0.1501 -0.3733
16219TIP3    H170072   0.131   5.859  11.582  0.8404  0.5117 -0.7138
16219TIP3    H270073   0.173   5.953  11.693  0.1978  2.0460 -1.7399
16220TIP3   OH270074   6.213   0.680   0.755  0.3171  0.4360 -0.0585
16220TIP3    H170075   6.282   0.746   0.750  0.2625  0.3711 -2.8534
16220TIP3    H270076   6.136   0.723   0.717 -0.8486  0.0444  1.7273
16221TIP3   OH270077   2.188   1.632  13.058  0.3442 -0.6500  0.5362
16221TIP3    H170078   2.276   1.648  13.024  0.1173 -1.2779 -0.4036
16221TIP3    H270079   2.201   1.611  13.150  1.0563  0.3935  0.6996
16222TIP3   OH270080   3.168   5.178   3.068 -0.4156 -0.0837  0.6826
16222TIP3    H170081   3.202   5.252   3.119  1.4263 -2.1759  2.7309
16222TIP3    H270082   3.126   5.122   3.132  1.6012 -2.6228 -0.0393
16223TIP3   OH270083   0.252   6.080   5.835  0.9474 -0.5585 -0.2284
16223TIP3    H170084   0.247   6.000   5.783 -0.2781  0.4437 -1.7387
16223TIP3    H270085   0.296   6.053   5.915 -0.6584 -3.0775 -0.0686
16224TIP3   OH270086   1.594   2.955   4.871  0.1354 -0.0823 -0.4331
16224TIP3    H170087   1.580   2.924   4.960  0.2406  1.1355  0.0193
16224TIP3    H270088   1.636   2.881   4.826  0.5096 -0.5327  0.6441
16225TIP3   OH270089   6.056   3.633   5.055  0.2633  0.5484 -0.9917
16225TIP3    H170090   6.099   3.699   5.109  1.2021 -1.9664  1.5758
16225TIP3    H270091   5.963   3.643   5.075  0.4076  0.9695 -0.4970
16226TIP3   OH270092   5.251   5.750  17.158 -0.3765  0.0209 -0.2594
16226TIP3    H170093   5.219   5.712  17.240 -1.8489 -0.1122 -0.8684
16226TIP3    H270094   5.225   5.687  17.091 -0.1305  0.6426 -0.9457
16227TIP3   OH270095   1.809   4.493  17.100 -0.3592 -0.2418 -0.3243
16227TIP3    H170096   1.788   4.477  17.008  0.8754 -2.3218 -0.3119
16227TIP3    H270097   1.900   4.464  17.110 -0.4246  0.0194  1.5428
16228TIP3   OH270098   1.221   4.080  13.895  0.3351 -0.0078 -0.2106
16228TIP3    H170099   1.193   4.127  13.816 -0.1198  1.3880  0.7516
16228TIP3    H270100   1.151   4.017  13.911  0.6616 -0.6429 -1.1752
16229TIP3   OH270101   3.086   0.720  16.518  0.3765  0.1774 -0.3477
16229TIP3    H170102   3.088   0.693  16.609 -1.6854 -0.9433 -0.5676
16229TIP3    H270103   3.036   0.802  16.518 -1.7622 -1.0499 -0.6509
16230TIP3   OH270104   0.523   6.549  16.603  0.0596  0.0566  0.3015
16230TIP3    H170105   0.457   6.601  16.560 -0.6183 -0.1080  1.1130
16230TIP3    H270106   0.483   6.523  16.687  1.4064  0.5715  1.1379
16231TIP3   OH270107   0.391   1.657  11.473 -0.7605 -0.0687 -0.3316
16231TIP3    H170108   0.333   1.650  11.398  0.7172  1.0566 -1.6290
16231TIP3    H270109   0.425   1.747  11.470 -0.5995 -0.0228  1.6272
16232TIP3   OH270110   1.691   2.648   5.191  0.2036  0.1331  0.1190
16232TIP3    H170111   1.763   2.641   5.128 -0.2898 -0.6671 -0.3705
16232TIP3    H270112   1.645   2.565   5.184  0.3502 -0.1317  1.8173
16233TIP3   OH270113   0.724   2.702  11.448 -0.3980 -0.8543 -0.3430
16233TIP3    H170114   0.731   2.677  11.355 -1.1373 -1.0841 -0.3432
16233TIP3    H270115   0.736   2.797  11.448 -1.2626 -0.7323 -0.7869
16234TIP3   OH270116   3.523   5.615  11.444  0.1390  0.6118  0.9658
16234TIP3    H170117   3.458   5.547  11.428  1.2683 -0.2775 -0.1011
16234TIP3    H270118   3.477   5.697  11.428 -0.7178  0.0068  0.2418
16235TIP3   OH270119   1.237   3.497  11.890 -0.0970  0.4209 -0.1974
16235TIP3    H170120   1.207   3.510  11.980  0.0116  2.1893 -0.3847
16235TIP3    H270121   1.173   3.437  11.851  0.4177 -1.1855  1.3179
16236TIP3   OH270122   6.644   2.997  11.516 -0.6183 -0.3171  0.0741
16236TIP3    H170123   6.642   3.000  11.612  2.8403 -0.7479  0.2999
16236TIP3    H270124   6.659   2.904  11.496  2.7947  0.2348 -0.5285
16237TIP3   OH270125   5.776   4.255  14.321 -0.0340 -0.0478 -0.6482
16237TIP3    H170126   5.743   4.287  14.237 -1.8978  0.7199  0.3304
16237TIP3    H270127   5.702   4.209  14.360  0.9893 -0.9072  0.3418
16238TIP3   OH270128   2.945   1.618  15.513  0.5463  0.5575  0.0635
16238TIP3    H170129   2.907   1.587  15.596 -1.0758  0.8722 -0.5136
16238TIP3    H270130   2.967   1.538  15.466 -0.1605  0.3397  0.0913
16239TIP3   OH270131   5.197   1.462   4.786 -0.2434  0.4340 -0.0566
16239TIP3    H170132   5.263   1.407   4.829 -1.2020  0.9503  2.1999
16239TIP3    H270133   5.244   1.502   4.712  1.2973 -1.0104  0.0758
16240TIP3   OH270134   1.870   0.747  16.054 -0.3015  0.0891 -0.2211
16240TIP3    H170135   1.959   0.743  16.088  0.2119 -1.9689 -1.6300
16240TIP3    H270136   1.831   0.823  16.097  1.3713 -0.3337  2.2315
16241TIP3   OH270137   5.921   5.238  14.176  0.2502  0.5602 -0.0030
16241TIP3    H170138   5.971   5.175  14.125 -0.6668 -0.1468 -0.0522
16241TIP3    H270139   5.905   5.310  14.115  1.1079  0.7484 -0.0161
16242TIP3   OH270140   2.705   1.288   3.897 -0.0093 -0.3349  0.1651
16242TIP3    H170141   2.785   1.328   3.931 -0.1669  0.2111 -0.0812
16242TIP3    H270142   2.702   1.317   3.805  1.0663 -2.7821 -0.7334
16243TIP3   OH270143   1.407   4.842   3.456 -0.3476  0.2964 -0.4902
16243TIP3    H170144   1.468   4.801   3.395 -0.7340 -0.5947 -0.3017
16243TIP3    H270145   1.324   4.846   3.408 -0.4305  0.4047 -0.3400
16244TIP3   OH270146   6.460   5.331   5.227 -0.6291  0.8556  0.2635
16244TIP3    H170147   6.450   5.420   5.259  0.8396  1.0963  0.1104
16244TIP3    H270148   6.473   5.278   5.306 -1.5151  0.7538  0.3553
16245TIP3   OH270149   2.516   6.733   1.580  0.5363 -0.2530  0.0309
16245TIP3    H170150   2.483   6.735   1.670 -1.4030 -1.8314 -0.5562
16245TIP3    H270151   2.534   6.824   1.559  2.1457  0.0379  2.3630
16246TIP3   OH270152   5.833   5.225   0.397  0.4694 -0.4528 -0.1958
16246TIP3    H170153   5.740   5.206   0.412  0.2580  1.4432  1.2347
16246TIP3    H270154   5.862   5.155   0.338 -0.5910 -4.1244  3.1256
16247TIP3   OH270155   1.356   4.786   3.907 -0.2187 -0.0861 -0.1761
16247TIP3    H170156   1.447   4.793   3.937 -0.6472 -0.8072  1.4305
16247TIP3    H270157   1.342   4.863   3.852  1.0434  0.6188  0.4523
16248TIP3   OH270158   4.859   4.484  12.847  0.5242  0.1554  0.0672
16248TIP3    H170159   4.933   4.424  12.855 -0.2584 -0.8871 -0.4249
16248TIP3    H270160   4.863   4.537  12.927  0.9369 -0.8627  0.7433
16249TIP3   OH270161   6.124   4.299  14.680 -0.4648  0.0597 -0.1690
16249TIP3    H170162   6.193   4.295  14.614  0.5893 -2.6555  0.9576
16249TIP3    H270163   6.043   4.287  14.630  0.2981 -1.8235 -1.0455
16250TIP3   OH270164   2.318   1.770  15.439  0.0240 -0.2317 -0.5925
16250TIP3    H170165   2.359   1.827  15.374  0.1312 -0.4569 -0.7224
16250TIP3    H270166   2.238   1.817  15.464  1.3945  1.2926  1.2534
16251TIP3   OH270167   6.145   6.721   0.617  0.1605 -0.7731  0.3674
16251TIP3    H170168   6.218   6.696   0.673 -0.0780  1.3767  1.7511
16251TIP3    H270169   6.071   6.732   0.677 -0.5093  0.0650 -0.5724
16252TIP3   OH270170   6.151   2.300  17.125  1.1840  0.5340 -0.3905
16252TIP3    H170171   6.210   2.225  17.119 -0.4918 -0.8445 -0.2030
16252TIP3    H270172   6.149   2.321  17.218  1.1535  0.4004 -0.3608
16253TIP3   OH270173   3.517   2.794  16.178  0.0397 -0.1193  0.3657
16253TIP3    H170174   3.442   2.829  16.130  0.5458  1.9381  0.9801
16253TIP3    H270175   3.593   2.827  16.130  0.5401  0.0980  1.2930
16254TIP3   OH270176   3.029   4.737   6.127  0.1498  0.4722 -0.7136
16254TIP3    H170177   2.945   4.692   6.132 -0.6477  2.0060  0.5095
16254TIP3    H270178   3.030   4.794   6.204  1.7664  1.3950 -1.3820
16255TIP3   OH270179   0.580   5.906   5.825  0.0340  0.1898  0.2229
16255TIP3    H170180   0.550   5.870   5.741  2.4016  1.6719 -1.3827
16255TIP3    H270181   0.509   5.887   5.886 -1.2414 -2.1123 -1.7924
16256TIP3   OH270182   2.465   2.670  10.641  0.0067  0.0047  0.1902
16256TIP3    H170183   2.383   2.664  10.690 -0.5342  1.8527 -0.4050
16256TIP3    H270184   2.455   2.748  10.586  1.4209 -0.7993 -1.3148
16257TIP3   OH270185   3.044   6.445   3.165 -0.3683  0.0732 -0.1312
16257TIP3    H170186   2.980   6.465   3.234 -1.8932  0.5007 -1.5948
16257TIP3    H270187   3.021   6.504   3.094 -0.4279 -1.9605 -1.9141
16258TIP3   OH270188   5.425   2.764   0.637 -0.1709 -0.2058  0.4118
16258TIP3    H170189   5.498   2.712   0.670  1.3790 -0.6740 -3.3283
16258TIP3    H270190   5.374   2.703   0.584 -0.0848  1.3350 -1.5403
16259TIP3   OH270191   5.072   6.044  13.975  0.2672 -0.2508  0.1355
16259TIP3    H170192   5.045   5.957  14.006  0.6423 -0.0874  0.9704
16259TIP3    H270193   5.041   6.104  14.043 -2.1067  0.5760 -1.5866
16260TIP3   OH270194   3.688   5.582  13.122 -0.7499  0.2297  0.0867
16260TIP3    H170195   3.729   5.511  13.073  0.0771  0.4649  0.4253
16260TIP3    H270196   3.641   5.539  13.193  0.5901  0.0494  0.9123
16261TIP3   OH270197   1.548   1.012   2.139 -0.1668 -0.2611 -0.4883
16261TIP3    H170198   1.492   1.077   2.182  0.8858  0.4208 -0.1043
16261TIP3    H270199   1.531   1.024   2.046  0.2396  0.7866 -0.4361
16262TIP3   OH270200   4.615   4.523   2.337  0.4152 -0.2004  0.3753
16262TIP3    H170201   4.663   4.461   2.281 -0.9174  0.0307 -1.0841
16262TIP3    H270202   4.532   4.537   2.292  0.1272  1.6169  1.3726
16263TIP3   OH270203   3.469   2.076   3.889 -0.2540  0.2063 -0.5463
16263TIP3    H170204   3.524   2.104   3.962 -1.1477  1.4107 -0.2906
16263TIP3    H270205   3.433   1.992   3.917  1.2754 -0.5227 -0.6514
16264TIP3   OH270206   6.562   6.622  11.388 -0.0228  0.7740  0.0112
16264TIP3    H170207   6.569   6.582  11.302  1.6936 -0.1719  0.5342
16264TIP3    H270208   6.644   6.598  11.432 -1.6493 -0.4289  2.6170
16265TIP3   OH270209   5.842   6.311   5.200 -0.4620 -0.6034 -0.1098
16265TIP3    H170210   5.850   6.323   5.105 -0.8067  2.8839  0.1739
16265TIP3    H270211   5.762   6.259   5.210 -0.7504 -0.5377 -1.6958
16266TIP3   OH270212   1.712   3.275   0.555 -0.4009  0.1944  1.2682
16266TIP3    H170213   1.725   3.191   0.600 -0.4458 -0.0653  0.8017
16266TIP3    H270214   1.671   3.331   0.621 -0.8529 -0.3097  1.4269
16267TIP3   OH270215   0.326   1.718   1.860 -0.3303  0.2549 -0.0156
16267TIP3    H170216   0.241   1.725   1.816 -1.1653 -1.5058  1.1959
16267TIP3    H270217   0.330   1.794   1.918 -0.3851  1.1551 -1.1499
16268TIP3   OH270218   4.408   0.530   0.521  0.0452  0.4336  0.0257
16268TIP3    H170219   4.335   0.476   0.549  0.5590 -1.5954 -2.2162
16268TIP3    H270220   4.462   0.472   0.467  2.1775  2.4389 -0.1672
16269TIP3   OH270221   1.866   0.987   5.254 -0.3544 -0.2797  0.1637
16269TIP3    H170222   1.853   1.028   5.168 -0.7361  0.7463  0.6863
16269TIP3    H270223   1.938   0.926   5.241  0.1454  0.4594 -0.7012
16270TIP3   OH270224   4.139   4.377  13.594  0.9184  0.5382 -0.5320
16270TIP3    H170225   4.214   4.373  13.654 -0.6759  3.4739  1.9495
16270TIP3    H270226   4.101   4.289  13.598  2.6871 -0.2487  0.1922
16271TIP3   OH270227   4.985   3.323   3.813 -0.3700  0.2340 -0.0648
16271TIP3    H170228   4.987   3.413   3.780 -0.0705  0.1990 -0.1398
16271TIP3    H270229   4.891   3.301   3.816 -0.3980  0.0230 -1.4925
16272TIP3   OH270230   0.022   3.677  12.802  0.3033  0.1193  0.1963
16272TIP3    H170231   0.060   3.750  12.753 -0.3914 -0.0946 -0.6822
16272TIP3    H270232  -0.039   3.636  12.741  0.7752 -1.2863  0.6364
16273TIP3   OH270233   3.026   0.696  12.528 -0.0942 -0.4704 -0.1663
16273TIP3    H170234   2.941   0.707  12.572  0.1316 -0.4913  0.2817
16273TIP3    H270235   3.050   0.605  12.545  0.4993 -0.1843  0.5869
16274TIP3   OH270236   4.945   3.898   3.228  0.1589 -0.3350 -0.3128
16274TIP3    H170237   4.965   3.991   3.237 -1.4821 -0.0044  0.3259
16274TIP3    H270238   4.911   3.889   3.139 -3.1852  0.4778  0.7297
16275TIP3   OH270239   5.577   0.262  16.729 -0.1262 -0.2607  0.1902
16275TIP3    H170240   5.624   0.180  16.744  0.1426 -0.2381 -0.5143
16275TIP3    H270241   5.620   0.325  16.787 -0.1575 -0.5477  0.5317
16276TIP3   OH270242   4.850   5.948  11.597 -0.0896  0.1388  0.1852
16276TIP3    H170243   4.777   5.925  11.541 -0.4024 -1.1196  1.0751
16276TIP3    H270244   4.889   6.025  11.556 -2.1774  1.1154 -0.0508
16277TIP3   OH270245   3.955   4.818   3.802 -0.0608 -0.1298  0.1825
16277TIP3    H170246   3.970   4.768   3.883 -2.5106 -1.2112  0.0653
16277TIP3    H270247   4.010   4.776   3.737 -0.4057 -1.2980  0.6140
16278TIP3   OH270248   2.536   0.357  10.658  0.4572  0.1154 -0.3280
16278TIP3    H170249   2.491   0.363  10.574 -0.3203 -0.3218  0.0541
16278TIP3    H270250   2.624   0.392  10.640  0.3107  0.0070 -1.3235
16279TIP3   OH270251   6.251   2.705   2.143 -0.9376  0.1881 -0.1943
16279TIP3    H170252   6.212   2.633   2.192 -0.3668 -0.3180 -0.4800
16279TIP3    H270253   6.208   2.702   2.057 -0.0306 -0.5857 -0.6275
16280TIP3   OH270254   5.343   0.058   5.754 -0.2021  0.0428  0.3103
16280TIP3    H170255   5.352   0.022   5.842  1.0822  0.6434  0.4607
16280TIP3    H270256   5.316  -0.015   5.700  0.0673 -0.5952  1.0207
16281TIP3   OH270257   2.785   0.183  13.905  0.3445  0.0566 -0.4237
16281TIP3    H170258   2.880   0.177  13.901  0.2525 -1.7881 -0.3745
16281TIP3    H270259   2.754   0.140  13.825 -0.4607  0.1501 -0.1734
16282TIP3   OH270260   5.812   3.959   2.108  0.1121  0.2738 -0.2940
16282TIP3    H170261   5.777   3.991   2.191 -0.6791 -0.9434 -0.1365
16282TIP3    H270262   5.819   3.864   2.119 -2.2326 -0.2497 -2.3577
16283TIP3   OH270263   6.013   5.178   4.907  0.2418  0.2594  0.0449
16283TIP3    H170264   6.020   5.255   4.851  0.2348  0.0274 -0.2787
16283TIP3    H270265   5.919   5.159   4.909  0.4456 -1.3216 -2.0662
16284TIP3   OH270266   0.238   6.526   2.339 -0.8310  0.3283 -0.1894
16284TIP3    H170267   0.209   6.438   2.361  1.2234 -0.3515  0.0069
16284TIP3    H270268   0.220   6.535   2.246 -1.2086 -0.2376 -0.1756
16285TIP3   OH270269   1.140   0.542  11.149  0.4551 -0.0733 -0.0583
16285TIP3    H170270   1.128   0.610  11.082  0.8633 -0.3531 -0.4198
16285TIP3    H270271   1.096   0.465  11.113  0.5172 -0.1726  0.0770
16286TIP3   OH270272   1.856   5.496  14.278  0.4670  0.2466  0.2863
16286TIP3    H170273   1.863   5.482  14.183 -2.1745  2.4164 -0.3209
16286TIP3    H270274   1.846   5.408  14.314  1.9806 -0.6680 -1.3462
16287TIP3   OH270275   3.357   2.644   0.933 -0.9358  0.0989 -0.1475
16287TIP3    H170276   3.327   2.661   0.843 -1.4176 -0.7962 -0.1658
16287TIP3    H270277   3.288   2.589   0.971 -0.9992  0.9187  0.9541
16288TIP3   OH270278   6.745   0.413   2.589  0.3774  0.4777  0.1211
16288TIP3    H170279   6.759   0.457   2.672  2.0314  0.1780  0.0350
16288TIP3    H270280   6.788   0.328   2.599  1.8277  0.9608 -1.4575
16289TIP3   OH270281   4.998   3.069   4.376 -0.2007 -0.1722  0.5959
16289TIP3    H170282   4.997   3.048   4.470 -0.4453  0.5001  0.7499
16289TIP3    H270283   4.946   3.149   4.369 -0.4148 -0.3757 -0.1566
16290TIP3   OH270284   6.701   1.683   4.455  0.1461 -0.3013 -0.2631
16290TIP3    H170285   6.757   1.755   4.482 -0.4268  1.4985 -3.3563
16290TIP3    H270286   6.617   1.700   4.498  0.1767  0.6256 -0.5382
16291TIP3   OH270287   1.922   5.760  16.870  0.2965 -0.8242 -0.5791
16291TIP3    H170288   1.828   5.772  16.887  0.0558 -1.7894 -1.1491
16291TIP3    H270289   1.965   5.803  16.944 -0.5616  0.4178 -0.7640
16292TIP3   OH270290   5.866   4.730   0.684 -0.6066 -0.0336  0.7915
16292TIP3    H170291   5.866   4.636   0.698 -1.0864 -0.5160 -1.8303
16292TIP3    H270292   5.773   4.752   0.672 -0.3019  0.1125 -1.8727
16293TIP3   OH270293   5.562   0.481  16.095  0.2048  0.0852  0.1980
16293TIP3    H170294   5.504   0.548  16.130 -0.5719 -0.5221  0.1058
16293TIP3    H270295   5.648   0.502  16.131 -0.2648  0.4166  1.1449
16294TIP3   OH270296   3.370   2.213   4.200 -0.3917 -0.0962 -0.1035
16294TIP3    H170297   3.333   2.268   4.269 -0.1498  1.3083 -1.0347
16294TIP3    H270298   3.416   2.275   4.143  2.6951 -1.6476  0.5058
16295TIP3   OH270299   6.180   0.171   1.662  0.0798 -0.1093  0.0570
16295TIP3    H170300   6.252   0.159   1.724 -0.9656  1.3217  1.6304
16295TIP3    H270301   6.121   0.232   1.706 -2.1537 -1.3051 -1.1326
16296TIP3   OH270302   3.216   0.970   3.504  0.4841 -0.2373 -0.2718
16296TIP3    H170303   3.200   1.039   3.568  1.8058 -0.8031  0.7115
16296TIP3    H270304   3.243   0.895   3.556  0.8096 -0.9527 -1.4447
16297TIP3   OH270305   4.681   4.972  11.508 -0.1736 -0.2800 -0.0887
16297TIP3    H170306   4.726   4.912  11.568 -0.2747 -0.8877 -0.6010
16297TIP3    H270307   4.611   5.010  11.560  1.1781  1.0246  0.8619
16298TIP3   OH270308   4.291   2.991   2.423 -0.2672 -0.7017 -0.7263
16298TIP3    H170309   4.315   2.970   2.333 -0.4471 -1.4663 -0.6045
16298TIP3    H270310   4.374   3.014   2.466 -0.0354 -1.3513 -0.8206
16299TIP3   OH270311   0.850   4.706   3.568  0.6793  0.7966  0.0711
16299TIP3    H170312   0.847   4.629   3.512 -0.6479  1.1134 -0.3315
16299TIP3    H270313   0.931   4.696   3.618  0.4111 -0.9798  0.2195
16300TIP3   OH270314   0.173   6.526   3.379 -0.2609  0.4431 -0.0524
16300TIP3    H170315   0.254   6.547   3.333 -0.6907 -0.2684 -1.1775
16300TIP3    H270316   0.120   6.480   3.315 -1.3513  0.4163  0.8280
16301TIP3   OH270317   1.919   0.982  12.639  0.1813 -0.2372  0.5842
16301TIP3    H170318   1.903   1.056  12.582  0.6318  0.7493  1.6928
16301TIP3    H270319   1.911   0.905  12.582  0.4978  0.6905 -0.7557
16302TIP3   OH270320   1.910   5.844  11.258 -0.1534  0.4609  0.5023
16302TIP3    H170321   1.930   5.930  11.222 -3.8529  1.3717  0.1823
16302TIP3    H270322   1.814   5.840  11.258 -0.1539 -3.2953  1.4323
16303TIP3   OH270323   2.026   3.994   0.753  0.2305  0.0944  0.3031
16303TIP3    H170324   2.093   3.944   0.799  0.9929  0.5216 -0.3080
16303TIP3    H270325   2.062   4.083   0.748 -0.5396  0.4158  0.2652
16304TIP3   OH270326   4.861   4.893  13.600  0.4477  0.0859  0.0833
16304TIP3    H170327   4.808   4.911  13.522 -0.8329  0.0773  0.9337
16304TIP3    H270328   4.868   4.978  13.644  1.7417  0.2346 -0.3540
16305TIP3   OH270329   3.102   3.771   0.319 -0.4710 -0.0558 -0.2878
16305TIP3    H170330   3.190   3.742   0.297  0.5093  2.0764  0.5669
16305TIP3    H270331   3.077   3.829   0.247 -1.5933 -1.3760 -0.9998
16306TIP3   OH270332   0.850   1.496   2.981 -0.2824 -0.3035  0.0238
16306TIP3    H170333   0.925   1.535   3.025 -1.1457  1.8283 -0.3139
16306TIP3    H270334   0.889   1.440   2.914  1.0053  0.4709  0.0917
16307TIP3   OH270335   5.195   3.986   4.068 -0.1341 -0.5978 -0.3235
16307TIP3    H170336   5.184   3.898   4.032  0.7749 -1.5685  1.6005
16307TIP3    H270337   5.125   3.993   4.134 -1.0684  0.6914 -1.4059
16308TIP3   OH270338   6.743   5.331   1.949 -0.1057 -0.2780 -0.4409
16308TIP3    H170339   6.804   5.277   1.899 -0.4396 -1.2701  0.1670
16308TIP3    H270340   6.775   5.325   2.039 -0.4925  0.0504 -0.2800
16309TIP3   OH270341   4.712   3.717  10.908  0.6157  0.0736  0.1322
16309TIP3    H170342   4.655   3.794  10.903  0.5411 -0.0173 -0.3962
16309TIP3    H270343   4.774   3.738  10.978 -0.1468  0.1220  0.8091
16310TIP3   OH270344   4.459   1.751  14.612  0.4897  0.1577 -0.0166
16310TIP3    H170345   4.473   1.817  14.679  0.9575  1.1716 -1.0800
16310TIP3    H270346   4.474   1.797  14.529 -0.4892 -0.9445 -0.8414
16311TIP3   OH270347   2.607   1.277  14.494  0.1581 -0.2721  0.5755
16311TIP3    H170348   2.530   1.221  14.493 -1.8027  2.1492 -2.1122
16311TIP3    H270349   2.582   1.351  14.549  1.1058 -0.0971  0.7803
16312TIP3   OH270350   0.461   5.383   2.911 -0.0640 -0.1470 -0.2742
16312TIP3    H170351   0.444   5.290   2.898  1.5686 -0.5937  0.5055
16312TIP3    H270352   0.407   5.407   2.986  0.5883 -0.8406  0.4364
16313TIP3   OH270353   4.671   5.750   0.956  0.4578 -0.9334  0.3862
16313TIP3    H170354   4.762   5.772   0.936 -0.2681  0.8832 -1.3127
16313TIP3    H270355   4.634   5.727   0.871 -1.7250  2.7900  0.1118
16314TIP3   OH270356   1.961   4.760   5.411  0.7025 -0.4212  0.0303
16314TIP3    H170357   1.892   4.765   5.345 -0.1394 -2.5280  0.6888
16314TIP3    H270358   1.936   4.827   5.475 -0.6376 -1.0098  0.1604
16315TIP3   OH270359   1.425   2.897   5.487  0.0790  0.1319 -0.1616
16315TIP3    H170360   1.488   2.959   5.449 -0.8454  0.5760 -1.0395
16315TIP3    H270361   1.479   2.830   5.529  1.1237  0.7619 -0.4561
16316TIP3   OH270362   5.704   4.875   5.374 -0.6992 -0.0792 -0.4092
16316TIP3    H170363   5.718   4.942   5.441 -0.9500  0.5817 -0.9980
16316TIP3    H270364   5.706   4.792   5.422 -1.4913  0.4112  0.5065
16317TIP3   OH270365   6.663   0.834  12.712 -0.7365  0.1811  0.1754
16317TIP3    H170366   6.709   0.760  12.753  1.0740  2.3442  2.3446
16317TIP3    H270367   6.571   0.807  12.712 -0.3714 -1.4079  2.5130
16318TIP3   OH270368   0.292   1.305  14.957  0.3470  0.1764  0.3741
16318TIP3    H170369   0.209   1.354  14.955 -0.1654 -0.6525 -1.8040
16318TIP3    H270370   0.266   1.213  14.951  1.4057 -0.0873 -0.5589
16319TIP3   OH270371   0.134   2.496  10.326 -0.5878 -0.4085 -0.4365
16319TIP3    H170372   0.067   2.456  10.382 -0.5647  0.5037  0.2646
16319TIP3    H270373   0.217   2.476  10.370 -0.6296  1.0840  0.3936
16320TIP3   OH270374   3.131   2.332  15.570 -0.4702  0.2348 -0.3700
16320TIP3    H170375   3.202   2.276  15.601  1.2117  1.9029 -1.0573
16320TIP3    H270376   3.072   2.273  15.524 -0.4277 -1.4715  1.6356
16321TIP3   OH270377   4.389   1.314  12.131 -0.2918  0.0879 -0.2788
16321TIP3    H170378   4.377   1.403  12.098 -0.6059 -0.4607 -1.7231
16321TIP3    H270379   4.483   1.307  12.150 -0.3459  0.8677  0.2977
16322TIP3   OH270380   0.050   2.355   5.074 -0.2767  0.3736 -0.1309
16322TIP3    H170381  -0.023   2.408   5.041 -1.0792  0.3304  1.5081
16322TIP3    H270382   0.018   2.265   5.071  0.9803 -0.0824 -2.6268
16323TIP3   OH270383   1.613   0.183  11.752  0.1772  0.0539  0.4031
16323TIP3    H170384   1.676   0.208  11.684 -0.1748  0.5960  0.2670
16323TIP3    H270385   1.528   0.183  11.707  0.0708 -0.6364  0.5923
16324TIP3   OH270386   4.668   1.871   5.382 -0.1018  0.2797  0.6243
16324TIP3    H170387   4.698   1.790   5.425  0.5889 -0.4865 -1.2172
16324TIP3    H270388   4.686   1.940   5.446 -1.7679 -1.1081  2.7294
16325TIP3   OH270389   5.578   1.678  15.046  0.3421  0.0896  0.1663
16325TIP3    H170390   5.609   1.766  15.025 -0.8829  0.4986 -0.0308
16325TIP3    H270391   5.580   1.631  14.963  1.3902 -0.2175  0.3467
16326TIP3   OH270392   2.843   3.247   0.393  0.5652  0.4510 -0.3340
16326TIP3    H170393   2.865   3.298   0.472  1.1676 -0.1733 -0.0899
16326TIP3    H270394   2.763   3.288   0.360 -0.6017 -0.2280  1.4914
16327TIP3   OH270395   4.455   5.219  15.785  0.0145 -0.2627  0.2574
16327TIP3    H170396   4.433   5.140  15.735  0.7819  0.2886 -1.0173
16327TIP3    H270397   4.388   5.282  15.762  1.4402  0.6314 -1.7112
16328TIP3   OH270398   6.069   0.544   5.326  0.3176  0.2888  0.4291
16328TIP3    H170399   6.050   0.505   5.241  2.3808 -0.2491  0.1529
16328TIP3    H270400   6.051   0.474   5.389 -1.5997  0.8123  0.5281
16329TIP3   OH270401   5.365   6.279   5.968 -0.1719  0.5855 -0.0384
16329TIP3    H170402   5.388   6.348   6.030 -0.9556 -0.0243  0.9610
16329TIP3    H270403   5.343   6.325   5.887 -0.6596  1.5001  0.5979
16330TIP3   OH270404   3.967   1.820  15.790  0.1617  0.0937 -0.2569
16330TIP3    H170405   3.894   1.814  15.852  1.2522 -2.1304  0.9191
16330TIP3    H270406   3.974   1.913  15.771 -1.8281  0.5684  0.9862
16331TIP3   OH270407   0.350   4.245  12.003 -0.4642 -0.3147  0.1157
16331TIP3    H170408   0.436   4.216  12.032 -0.3810 -0.4787 -0.2878
16331TIP3    H270409   0.368   4.316  11.942 -0.6434  0.1316  0.5787
16332TIP3   OH270410   0.455   4.631   1.703 -0.3966 -0.7221  0.1001
16332TIP3    H170411   0.376   4.612   1.652 -1.0783  0.5374  0.6298
16332TIP3    H270412   0.427   4.696   1.767  1.4608  1.2874 -0.9577
16333TIP3   OH270413   5.270   1.796  14.079  0.1595  0.0541  0.3198
16333TIP3    H170414   5.258   1.844  13.997 -0.1399  0.7505  0.7660
16333TIP3    H270415   5.186   1.803  14.124 -0.1377 -1.5256  0.0737
16334TIP3   OH270416   2.335   0.204  13.645  0.1947  0.4662 -0.7249
16334TIP3    H170417   2.306   0.202  13.554 -0.4361  0.5243 -0.5302
16334TIP3    H270418   2.263   0.246  13.692  1.9394  3.7007 -0.7028
16335TIP3   OH270419   6.438   6.106  12.314  0.4108  0.2562  0.3225
16335TIP3    H170420   6.428   6.024  12.266 -2.0826 -0.3396  1.6957
16335TIP3    H270421   6.349   6.136  12.331  1.2311  3.3481 -0.1760
16336TIP3   OH270422   2.041   6.235  15.566 -0.3652 -0.3661  0.0404
16336TIP3    H170423   2.059   6.158  15.618 -0.4479  0.4560  1.3280
16336TIP3    H270424   2.063   6.210  15.476  1.8106 -1.1630  0.7469
16337TIP3   OH270425   4.288   0.165   5.446  0.5037 -0.1019  0.1214
16337TIP3    H170426   4.333   0.217   5.512 -1.7800  2.2915 -0.0463
16337TIP3    H270427   4.356   0.141   5.384  1.9550  1.2491  1.1196
16338TIP3   OH270428   0.567   5.186  15.473  0.8274  1.1007  0.2782
16338TIP3    H170429   0.535   5.276  15.482  0.3333  0.8425  1.3631
16338TIP3    H270430   0.558   5.166  15.380  0.9506  2.1704  0.0273
16339TIP3   OH270431   4.960   4.879  10.737  0.0887  0.1627 -0.1952
16339TIP3    H170432   5.051   4.904  10.757  0.4413 -2.4744  1.9907
16339TIP3    H270433   4.964   4.848  10.646  1.3336  0.3132 -0.2118
16340TIP3   OH270434   1.331   4.735   1.415  0.5154 -0.3044  0.4752
16340TIP3    H170435   1.375   4.812   1.449  0.4965 -1.0792  2.3453
16340TIP3    H270436   1.274   4.705   1.486 -1.9525 -0.2094 -1.3279
16341TIP3   OH270437   1.839   1.156  16.065 -0.4622 -0.5752 -0.6922
16341TIP3    H170438   1.748   1.161  16.034  0.3897 -0.0704 -3.3714
16341TIP3    H270439   1.854   1.063  16.081 -1.0433 -0.8542 -1.6569
16342TIP3   OH270440   0.333   2.836  12.292 -0.1609  1.2549 -0.1505
16342TIP3    H170441   0.381   2.909  12.331  0.8486  0.3242  0.4091
16342TIP3    H270442   0.401   2.776  12.262 -0.9375 -0.4455  1.3363
16343TIP3   OH270443   5.709   6.171   2.492 -0.1106 -1.1455 -0.8459
16343TIP3    H170444   5.776   6.176   2.560 -0.1825  0.3029 -0.8643
16343TIP3    H270445   5.686   6.078   2.488 -0.5637 -1.1963  1.5394
16344TIP3   OH270446   4.657   1.529   6.088  0.4962 -0.5408 -0.0785
16344TIP3    H170447   4.610   1.601   6.130  0.9866 -1.4872  2.2688
16344TIP3    H270448   4.603   1.505   6.013 -0.2650  1.4737 -0.2331
16345TIP3   OH270449   0.658   6.685  14.432 -0.3385  0.1967 -0.4620
16345TIP3    H170450   0.708   6.722  14.360 -0.9059  1.7820 -0.0702
16345TIP3    H270451   0.576   6.656  14.392  1.0953 -3.2235 -1.2807
16346TIP3   OH270452   4.103   3.467  13.692 -0.6021  0.2118 -0.0183
16346TIP3    H170453   4.062   3.380  13.686 -0.0318 -0.1151  0.6662
16346TIP3    H270454   4.046   3.517  13.749 -0.8044  0.2155 -0.2201
16347TIP3   OH270455   0.881   6.675   0.729  0.3213 -0.7663  0.5549
16347TIP3    H170456   0.958   6.711   0.685 -0.3543 -1.0669 -0.9491
16347TIP3    H270457   0.880   6.717   0.814  0.8651  1.0233 -0.2769
16348TIP3   OH270458   0.953   5.594   0.345  0.5133 -0.8966  0.1897
16348TIP3    H170459   0.967   5.580   0.438 -0.4338  0.4455  0.5657
16348TIP3    H270460   1.039   5.617   0.310  1.2089 -2.9393  0.3810
16349TIP3   OH270461   1.790   0.265  14.090  0.1229 -0.4902  0.1815
16349TIP3    H170462   1.826   0.345  14.051  0.4963 -1.2953 -1.2317
16349TIP3    H270463   1.864   0.227  14.137  0.4245 -0.8291 -0.5472
16350TIP3   OH270464   4.351   4.902  11.389 -0.5052  0.3090  0.1098
16350TIP3    H170465   4.341   4.822  11.442 -1.7768  0.6317  0.3965
16350TIP3    H270466   4.336   4.973  11.451  1.2621  0.8191 -0.0077
16351TIP3   OH270467   5.862   6.732   1.678 -0.3534  0.4770 -0.3270
16351TIP3    H170468   5.846   6.810   1.732 -2.6795  0.3935 -0.7880
16351TIP3    H270469   5.805   6.743   1.602  0.9225 -0.6569 -1.4994
16352TIP3   OH270470   3.023   4.864  12.305 -0.2843 -0.1930 -0.0029
16352TIP3    H170471   2.956   4.801  12.332  0.0104 -1.2995 -1.7249
16352TIP3    H270472   2.987   4.904  12.225  0.3226  0.5306  0.0737
16353TIP3   OH270473   3.830   4.411  15.313  0.0068  0.1350 -0.7040
16353TIP3    H170474   3.856   4.455  15.232  2.0170  1.4637  0.5764
16353TIP3    H270475   3.824   4.481  15.378 -2.6603 -0.7444  0.1290
16354TIP3   OH270476   4.676   4.739   6.397 -0.1634 -0.0452 -0.3963
16354TIP3    H170477   4.767   4.728   6.371  0.0823  0.9245  0.0138
16354TIP3    H270478   4.680   4.777   6.485 -0.8317  4.0350 -1.8719
16355TIP3   OH270479   5.614   6.047   3.896  0.1774 -0.1648 -0.2889
16355TIP3    H170480   5.558   6.090   3.960  0.2920 -3.7808  2.5847
16355TIP3    H270481   5.694   6.100   3.895 -0.8854  1.5373  0.4046
16356TIP3   OH270482   1.942   0.461   2.336 -0.3314 -0.5725  0.0579
16356TIP3    H170483   1.927   0.543   2.289  1.1282  0.5811  1.4951
16356TIP3    H270484   1.885   0.466   2.413 -0.8660 -1.3072 -0.2798
16357TIP3   OH270485   4.386   4.158   0.344 -0.0031 -0.5593  0.2411
16357TIP3    H170486   4.479   4.161   0.364 -0.0519 -0.1024  0.4229
16357TIP3    H270487   4.347   4.112   0.418  0.0457 -0.4939  0.3086
16358TIP3   OH270488   3.460   4.487  17.108 -0.1264  0.2271 -0.2120
16358TIP3    H170489   3.545   4.507  17.145 -0.0754  1.6161 -1.0028
16358TIP3    H270490   3.472   4.497  17.013 -1.4334  1.7241 -0.2785
16359TIP3   OH270491   6.346   1.769  14.179  0.3849  0.5214  0.1345
16359TIP3    H170492   6.270   1.825  14.164 -0.1632 -0.4006 -0.6323
16359TIP3    H270493   6.373   1.740  14.092  0.7021 -0.3335  0.4994
16360TIP3   OH270494   1.809   0.540  12.442 -0.5803 -0.2573  0.6520
16360TIP3    H170495   1.822   0.627  12.481 -2.6882  0.1549  0.5772
16360TIP3    H270496   1.871   0.483  12.487  0.8850  1.2746  0.6730
16361TIP3   OH270497   2.954   0.752  11.222 -0.1473 -0.1996  0.4581
16361TIP3    H170498   3.007   0.831  11.207  1.6475 -1.8036 -2.7321
16361TIP3    H270499   2.988   0.715  11.304  2.5119 -0.1798 -0.5319
16362TIP3   OH270500   4.983   3.662  12.651  0.3815 -0.2939  0.2123
16362TIP3    H170501   4.890   3.679  12.633  0.7712  1.8396  0.0125
16362TIP3    H270502   4.981   3.597  12.721 -1.3682  1.4985  1.9778
16363TIP3   OH270503   3.801   4.504  11.090 -0.0621  0.0536  0.2297
16363TIP3    H170504   3.827   4.580  11.039  1.8409 -1.5873 -1.4357
16363TIP3    H270505   3.728   4.466  11.041 -0.3653  0.2534  0.5225
16364TIP3   OH270506   2.511   3.752  11.211 -1.2258 -0.2806 -0.2576
16364TIP3    H170507   2.603   3.755  11.235 -0.9070  0.7075 -1.4986
16364TIP3    H270508   2.506   3.689  11.140 -1.4075  0.0849 -0.5713
16365TIP3   OH270509   5.755   0.001   0.002  0.3122 -0.2303  0.5707
16365TIP3    H170510   5.802  -0.081  -0.010  0.8819  0.4361 -2.3488
16365TIP3    H270511   5.664  -0.025   0.014  0.5487 -1.3097  0.1457
16366TIP3   OH270512   3.556   5.974   5.491  0.0437  0.2803  0.3335
16366TIP3    H170513   3.512   5.917   5.553  0.6248 -1.6992 -0.9642
16366TIP3    H270514   3.518   6.060   5.506 -1.6911 -0.6494  1.6289
16367TIP3   OH270515   1.826   1.394   1.102  0.5919  0.1360 -0.3825
16367TIP3    H170516   1.873   1.452   1.161 -0.5130 -0.9184  1.6332
16367TIP3    H270517   1.824   1.310   1.147 -0.1995 -0.7629 -1.9948
16368TIP3   OH270518   3.977   1.555  14.466  0.1872 -0.1763 -0.6102
16368TIP3    H170519   3.947   1.636  14.424 -0.2257 -1.1173 -2.2349
16368TIP3    H270520   4.058   1.532  14.419 -0.1539 -1.1384 -0.7520
16369TIP3   OH270521   1.143   5.689  15.907 -0.4440  0.3273 -0.4907
16369TIP3    H170522   1.219   5.676  15.850 -0.8913  0.3076 -1.1037
16369TIP3    H270523   1.068   5.684  15.847 -0.9425  0.0228  0.1532
16370TIP3   OH270524   1.386   2.699   2.023  0.6222  0.1612  0.6954
16370TIP3    H170525   1.460   2.753   1.995  1.2743 -0.7262  0.6613
16370TIP3    H270526   1.417   2.655   2.103  0.5699 -1.1225  0.0362
16371TIP3   OH270527   5.521   0.816  12.519  0.0516 -0.4053 -0.3469
16371TIP3    H170528   5.428   0.839  12.514  0.2969  1.1048  1.2152
16371TIP3    H270529   5.522   0.720  12.519 -1.5950 -0.4548  0.8026
16372TIP3   OH270530   6.248   1.724   5.082 -0.8062  0.1262  0.2082
16372TIP3    H170531   6.217   1.689   4.998 -0.0799  0.3347 -0.1546
16372TIP3    H270532   6.304   1.798   5.058 -0.6525  0.2374  0.8834
16373TIP3   OH270533   1.939   2.801  11.257 -0.3181  0.4735 -0.1011
16373TIP3    H170534   2.034   2.794  11.251 -0.0928  0.8787  2.1722
16373TIP3    H270535   1.918   2.882  11.210  0.4152  0.3083 -0.7346
16374TIP3   OH270536   3.882   1.872  15.149  0.3938  0.0635 -0.1903
16374TIP3    H170537   3.811   1.840  15.204  0.8797  0.0691  0.4564
16374TIP3    H270538   3.871   1.827  15.065  0.3780 -0.8891  0.3204
16375TIP3   OH270539   4.900   6.575  12.558 -0.4706  0.5550  0.2495
16375TIP3    H170540   4.827   6.585  12.497  1.4240  1.2602 -2.0462
16375TIP3    H270541   4.913   6.480  12.564 -0.1755  0.4836 -1.1543
16376TIP3   OH270542   1.349   1.752   5.045  0.1925 -0.6337  0.2109
16376TIP3    H170543   1.397   1.748   5.128 -1.1322 -3.8246  0.9990
16376TIP3    H270544   1.388   1.683   4.992 -1.6904 -1.5289 -0.1131
16377TIP3   OH270545   6.073   1.084   1.470 -0.4818 -0.3128 -0.6689
16377TIP3    H170546   6.168   1.080   1.461  0.1101 -0.0092  3.5174
16377TIP3    H270547   6.046   0.994   1.488 -0.6067 -0.0352  0.5961
16378TIP3   OH270548   3.444   5.076   1.128  0.0561  0.2737  0.4955
16378TIP3    H170549   3.351   5.097   1.138  0.1120  0.5579  0.4397
16378TIP3    H270550   3.470   5.118   1.046 -0.0901 -0.9603 -0.1994
16379TIP3   OH270551   2.180   0.821   5.521 -0.2496 -0.4284  0.4916
16379TIP3    H170552   2.178   0.726   5.512  2.2237 -0.4638 -0.3814
16379TIP3    H270553   2.231   0.837   5.600 -1.5662  0.2158  1.2617
16380TIP3   OH270554   0.971   4.774   0.931  0.4902 -0.2091  0.0421
16380TIP3    H170555   1.046   4.823   0.897  0.1054  1.4920  1.4340
16380TIP3    H270556   0.948   4.821   1.012 -1.7342 -0.9971 -0.0810
16381TIP3   OH270557   0.070   3.823   2.060  0.0850 -0.1109 -0.3069
16381TIP3    H170558   0.118   3.795   2.137 -1.3381  1.1594  1.1133
16381TIP3    H270559   0.043   3.741   2.017  0.0069 -0.8684  1.1391
16382TIP3   OH270560   4.563   3.930  11.577  0.2996  0.6237  0.0707
16382TIP3    H170561   4.654   3.902  11.576  0.5456  1.1645  2.1530
16382TIP3    H270562   4.561   4.007  11.519  1.1015  0.4492 -0.1987
16383TIP3   OH270563   5.289   0.801  12.053  0.0745  0.4033 -0.5473
16383TIP3    H170564   5.308   0.715  12.015 -1.6060 -0.2054 -0.1012
16383TIP3    H270565   5.357   0.813  12.119  0.4858 -0.4902 -0.7871
16384TIP3   OH270566   5.393   1.359   3.581 -0.8257 -0.1107  0.1043
16384TIP3    H170567   5.422   1.349   3.672  0.9849 -0.4763 -0.4687
16384TIP3    H270568   5.390   1.453   3.567 -0.8277 -0.0551  0.4563
16385TIP3   OH270569   0.143   2.929  13.907  0.1234  0.1765 -0.5408
16385TIP3    H170570   0.084   2.926  13.982 -1.0680  2.0638 -1.3090
16385TIP3    H270571   0.228   2.903  13.942 -0.8223 -1.0413  0.9703
16386TIP3   OH270572   3.087   6.334  13.596  0.1826 -0.0927  0.2345
16386TIP3    H170573   3.004   6.314  13.639  0.2557 -0.5099  0.1827
16386TIP3    H270574   3.152   6.282  13.643  0.1334 -1.3014 -0.9535
16387TIP3   OH270575   0.778   6.456  14.717  0.0683 -0.5467 -0.4010
16387TIP3    H170576   0.714   6.456  14.646  0.3413 -1.4247 -0.6474
16387TIP3    H270577   0.853   6.503  14.681  0.3936 -1.4090 -0.8699
16388TIP3   OH270578   4.664   4.262   1.089  0.1134 -0.1423  0.0974
16388TIP3    H170579   4.674   4.233   1.180  0.7534 -0.2828 -0.0144
16388TIP3    H270580   4.661   4.358   1.095  1.7150 -0.0678  0.1438
16389TIP3   OH270581   4.255   2.406   2.419  0.0603  0.5395  0.4599
16389TIP3    H170582   4.270   2.480   2.478  0.1376 -0.6579  1.9971
16389TIP3    H270583   4.337   2.395   2.372  0.4312  0.7140  1.0604
16390TIP3   OH270584   0.169   1.279  13.053  0.2011 -0.3162 -0.3243
16390TIP3    H170585   0.180   1.374  13.062 -1.0082 -0.1786 -0.1286
16390TIP3    H270586   0.074   1.266  13.057  0.2406 -1.3577 -2.0045
16391TIP3   OH270587   1.986   4.965   2.987  0.3175 -0.1919  0.0212
16391TIP3    H170588   1.950   4.878   2.970 -1.2484 -0.1124  2.4159
16391TIP3    H270589   2.021   4.959   3.076 -0.5900  1.8476  0.5719
16392TIP3   OH270590   0.339   5.520   5.886  0.1963  0.4997  0.3478
16392TIP3    H170591   0.398   5.508   5.960  0.1727 -0.2546  0.2507
16392TIP3    H270592   0.330   5.615   5.878  2.7948  0.7488 -0.7349
16393TIP3   OH270593   6.388   4.278  16.299 -0.4651  0.5010  0.0432
16393TIP3    H170594   6.446   4.248  16.369 -0.1378  0.4508 -0.2515
16393TIP3    H270595   6.312   4.314  16.346 -1.0701 -1.1623  0.3846
16394TIP3   OH270596   4.462   6.020  11.962 -0.1513 -0.0846  0.6170
16394TIP3    H170597   4.484   6.069  12.041 -0.4711  2.7748 -0.9261
16394TIP3    H270598   4.366   6.012  11.964 -0.0902 -0.7805  0.9230
16395TIP3   OH270599   0.566   5.449   5.015 -0.0134  0.0867  0.0198
16395TIP3    H170600   0.517   5.367   5.017  0.5179 -0.3415 -1.8897
16395TIP3    H270601   0.553   5.482   4.926  2.0254  0.6553 -0.1187
16396TIP3   OH270602   5.001   3.890  11.244 -0.3351 -0.1209  0.0983
16396TIP3    H170603   4.983   3.866  11.335 -0.0454 -1.0716 -0.0882
16396TIP3    H270604   4.961   3.976  11.235  0.8692  0.6299  1.5235
16397TIP3   OH270605   4.012   6.505  16.944  0.2796  0.1293  0.1195
16397TIP3    H170606   4.076   6.525  16.875 -2.0047 -0.5199 -2.3494
16397TIP3    H270607   3.943   6.570  16.932 -1.5941 -1.8344 -0.2215
16398TIP3   OH270608   6.316   6.748   3.021  0.5032  0.2199 -0.2620
16398TIP3    H170609   6.240   6.801   2.993  0.7691  0.4606 -0.5365
16398TIP3    H270610   6.341   6.700   2.943  1.0408  0.6392 -0.3516
16399TIP3   OH270611   4.305   1.495   3.125 -0.0939 -0.2669 -0.0106
16399TIP3    H170612   4.223   1.541   3.144 -0.4807 -0.7123 -0.5488
16399TIP3    H270613   4.330   1.455   3.208 -0.3150  0.0332  0.2029
16400TIP3   OH270614   0.992   0.939   5.378 -0.2304  0.1993 -0.1367
16400TIP3    H170615   0.974   0.896   5.462 -0.8004  0.4129 -0.1458
16400TIP3    H270616   0.917   0.915   5.323 -0.2828  0.7644 -0.3136
16401TIP3   OH270617   6.244   4.604  11.734  0.3161 -0.1389  0.0128
16401TIP3    H170618   6.291   4.589  11.652 -0.2304  1.2081 -0.5791
16401TIP3    H270619   6.273   4.533  11.791  1.2640 -0.6909 -1.0981
16402TIP3   OH270620   2.427   2.349   1.463  0.3789 -0.2799 -0.5093
16402TIP3    H170621   2.444   2.256   1.452 -1.0525 -0.5985 -0.2244
16402TIP3    H270622   2.370   2.372   1.389  0.2852  0.2396 -0.2783
16403TIP3   OH270623   4.177   5.695   2.352  0.7460  0.3191 -0.1480
16403TIP3    H170624   4.201   5.661   2.266  0.4804  0.6367 -0.3519
16403TIP3    H270625   4.253   5.677   2.407  0.6294 -0.5721 -0.2530
16404TIP3   OH270626   0.745   2.066  14.203 -0.8504  0.3771 -0.5256
16404TIP3    H170627   0.809   2.130  14.171 -0.8665  0.7833  0.2204
16404TIP3    H270628   0.798   1.989  14.225  0.0396  1.8796  3.4592
16405TIP3   OH270629   2.626   5.853   1.178  0.3333 -0.2927  0.4630
16405TIP3    H170630   2.626   5.768   1.222 -2.2836  0.3461  1.9045
16405TIP3    H270631   2.696   5.902   1.220  0.4778 -1.0417  1.1152
16406TIP3   OH270632   2.591   4.323   2.292 -0.2219  0.0818 -0.4873
16406TIP3    H170633   2.669   4.298   2.242 -0.7639 -0.4146 -1.0959
16406TIP3    H270634   2.582   4.417   2.278 -0.0798  0.0332 -0.9053
16407TIP3   OH270635   2.719   0.035  15.633 -0.0885 -0.0024  0.4792
16407TIP3    H170636   2.746  -0.016  15.709 -0.7100  0.1275  0.7847
16407TIP3    H270637   2.629   0.061  15.651 -0.0764  0.4498 -0.0753
16408TIP3   OH270638   5.261   4.290  16.127  0.3942  0.9205 -0.2491
16408TIP3    H170639   5.286   4.382  16.139  0.4778  0.8508  0.1199
16408TIP3    H270640   5.166   4.290  16.138  0.2095  1.1868 -1.6647
16409TIP3   OH270641   4.398   6.050   5.912 -0.3841  0.1486 -0.4817
16409TIP3    H170642   4.486   6.086   5.898 -0.5234  1.0204  0.7664
16409TIP3    H270643   4.396   6.027   6.005 -0.9587 -1.3284 -0.8393
16410TIP3   OH270644   4.682   4.667   1.429  0.2082 -0.1053  0.2498
16410TIP3    H170645   4.665   4.591   1.485 -2.5040 -0.5048 -0.9863
16410TIP3    H270646   4.596   4.696   1.400  1.4023  0.8633 -2.7125
16411TIP3   OH270647   6.324   2.294  11.151 -0.5892 -0.4938  0.0492
16411TIP3    H170648   6.280   2.216  11.184  0.5306 -0.8191  0.8230
16411TIP3    H270649   6.361   2.267  11.067 -0.0701 -0.8649  0.3864
16412TIP3   OH270650   1.916   5.731   4.495  0.3477 -0.1182 -0.1746
16412TIP3    H170651   1.968   5.777   4.429 -0.4497  1.4209  0.2270
16412TIP3    H270652   1.847   5.688   4.444 -0.0161  0.7135 -0.4024
16413TIP3   OH270653   6.312   1.262  16.655  0.1448 -0.0627 -0.6634
16413TIP3    H170654   6.400   1.253  16.693  0.1098  3.3915  0.6234
16413TIP3    H270655   6.328   1.278  16.562  0.7234 -1.1460 -0.7696
16414TIP3   OH270656   3.558   2.852  14.617 -0.5265  0.4544 -0.4220
16414TIP3    H170657   3.544   2.897  14.700  2.0236  3.0481 -1.2558
16414TIP3    H270658   3.641   2.806  14.629 -1.3987 -1.3059 -0.7701
16415TIP3   OH270659   0.348   5.133   3.713 -0.7417  0.0493  0.1125
16415TIP3    H170660   0.285   5.124   3.784 -1.5878  0.7512 -0.5216
16415TIP3    H270661   0.300   5.103   3.635  0.0155 -0.2760 -0.2387
16416TIP3   OH270662   4.863   3.134   1.175  0.0956  0.0703 -0.4104
16416TIP3    H170663   4.844   3.200   1.108 -1.5685  0.4659  0.4006
16416TIP3    H270664   4.922   3.177   1.236 -1.3077  0.9959  0.3415
16417TIP3   OH270665   5.057   4.688   5.699  0.4992 -0.1908 -0.7113
16417TIP3    H170666   5.125   4.620   5.703  0.1839 -0.5101 -0.7482
16417TIP3    H270667   4.992   4.661   5.764  0.3510  0.0551 -0.7555
16418TIP3   OH270668   2.818   1.374  13.054 -0.1766 -0.4240  0.5367
16418TIP3    H170669   2.832   1.309  13.123  0.7795  0.1080  0.8641
16418TIP3    H270670   2.831   1.326  12.972 -1.2565 -1.0421  0.7081
16419TIP3   OH270671   1.751   4.663  16.187 -0.3726 -0.2656 -0.4646
16419TIP3    H170672   1.812   4.696  16.122 -2.1030  1.2984 -1.4164
16419TIP3    H270673   1.672   4.640  16.136 -1.3930 -0.0210  0.9481
16420TIP3   OH270674   5.649   4.315   0.056 -0.4658 -0.0292 -0.4180
16420TIP3    H170675   5.685   4.360  -0.020 -0.7107 -0.3655 -0.7314
16420TIP3    H270676   5.554   4.332   0.052 -0.4556  0.1335 -0.0682
16421TIP3   OH270677   1.957   0.807   2.544 -0.0737  0.0103 -0.0197
16421TIP3    H170678   2.037   0.755   2.549 -0.5219 -0.7016 -0.0107
16421TIP3    H270679   1.971   0.880   2.604  0.0788 -0.8099  0.9734
16422TIP3   OH270680   5.749   6.381  16.207 -0.5196  0.1040  0.2745
16422TIP3    H170681   5.768   6.469  16.238  3.2312 -1.0363  1.6909
16422TIP3    H270682   5.732   6.331  16.286  0.2703 -1.0055 -0.2315
16423TIP3   OH270683   0.729   2.580   5.307  0.0399  0.0962 -0.0263
16423TIP3    H170684   0.704   2.588   5.214  0.9953 -2.7848 -0.6379
16423TIP3    H270685   0.824   2.590   5.307 -0.0096  0.6583  0.7582
16424TIP3   OH270686   4.245   6.040   0.130 -0.4721 -0.3335 -0.0684
16424TIP3    H170687   4.214   6.103   0.064  1.5171  0.2440 -0.5058
16424TIP3    H270688   4.197   5.960   0.111 -0.5891  0.0853 -1.6670
16425TIP3   OH270689   3.755   4.531   4.001  0.2848  0.4335 -0.1850
16425TIP3    H170690   3.706   4.593   4.055  1.6162  0.3798  1.1294
16425TIP3    H270691   3.846   4.541   4.029  0.6698 -1.3520 -0.6958
16426TIP3   OH270692   2.290   4.787  14.778  0.5723  0.5203  0.3874
16426TIP3    H170693   2.265   4.767  14.688 -0.8649 -2.0437  1.2320
16426TIP3    H270694   2.352   4.718  14.802 -0.7174 -0.1803  1.9535
16427TIP3   OH270695   1.875   6.054  12.313  0.3659  0.7666 -0.0539
16427TIP3    H170696   1.809   6.117  12.285 -0.0218  1.1598  1.5975
16427TIP3    H270697   1.947   6.063  12.251  0.3251  2.8566  0.1447
16428TIP3   OH270698   6.633   5.043  11.562 -0.3436 -0.2612 -0.1605
16428TIP3    H170699   6.677   5.019  11.481  2.8408  2.2326  0.6262
16428TIP3    H270700   6.651   4.971  11.622  0.7566 -0.3060 -0.5354
16429TIP3   OH270701   5.022   4.479   1.425  0.0199  0.4746  0.1158
16429TIP3    H170702   5.059   4.542   1.487 -2.0095  0.9372  0.9488
16429TIP3    H270703   5.079   4.402   1.432 -0.2734  0.3841  2.8354
16430TIP3   OH270704   4.302   4.529  16.622  0.9575  0.0037  0.9502
16430TIP3    H170705   4.247   4.587  16.674 -0.9378  0.1479 -1.0813
16430TIP3    H270706   4.363   4.587  16.577  0.7290  0.1501  0.8313
16431TIP3   OH270707   4.568   1.026  11.530  0.5384  0.0752 -0.0869
16431TIP3    H170708   4.626   0.979  11.470 -0.1135 -0.0487 -0.6202
16431TIP3    H270709   4.518   0.957  11.574  0.5577  0.2022  0.1393
16432TIP3   OH270710   4.774   4.452   6.028 -0.2282 -0.1956 -0.0599
16432TIP3    H170711   4.704   4.443   6.093  0.0375 -1.8350  0.0530
16432TIP3    H270712   4.730   4.450   5.944 -0.4366  0.3226  0.0326
16433TIP3   OH270713   2.682   6.166   0.862 -0.0225  0.0869 -0.0091
16433TIP3    H170714   2.728   6.149   0.780  2.4562  0.0153  1.2731
16433TIP3    H270715   2.615   6.099   0.867  0.6023 -0.6823 -1.3955
16434TIP3   OH270716   2.443   1.207   0.524  0.1647  0.2382 -0.5559
16434TIP3    H170717   2.380   1.139   0.546 -0.6378  1.7335  2.3657
16434TIP3    H270718   2.400   1.257   0.454  0.0140 -1.1834 -1.5220
16435TIP3   OH270719   3.183   4.602  11.387  0.4244  0.3338 -0.0298
16435TIP3    H170720   3.154   4.547  11.460  0.8384 -0.4723 -0.4596
16435TIP3    H270721   3.138   4.685  11.401  1.0067  0.4352  1.5224
16436TIP3   OH270722   0.681   4.676  14.906  0.4079 -0.0628  0.2133
16436TIP3    H170723   0.678   4.631  14.822 -1.5534  0.5078 -0.0807
16436TIP3    H270724   0.589   4.688  14.930  0.9085 -0.2958  2.5063
16437TIP3   OH270725   3.628   4.206   1.116 -0.1632  0.2103 -0.1704
16437TIP3    H170726   3.534   4.211   1.100 -0.3083 -0.9297  0.2839
16437TIP3    H270727   3.641   4.252   1.199 -0.4706 -0.5032  0.2824
16438TIP3   OH270728   0.021   5.750   2.981 -0.4665 -0.2058 -0.5187
16438TIP3    H170729  -0.066   5.791   2.979  0.2948  1.4602 -2.2153
16438TIP3    H270730   0.054   5.757   2.891  1.2464 -1.2527 -0.0318
16439TIP3   OH270731   4.278   3.238  13.543 -0.4076  0.3152 -0.5033
16439TIP3    H170732   4.239   3.242  13.631  1.2710  1.6296  0.2651
16439TIP3    H270733   4.236   3.164  13.501 -1.4539 -0.2114  1.3392
16440TIP3   OH270734   6.704   4.392   3.022  0.3407 -0.3868  0.5091
16440TIP3    H170735   6.682   4.432   2.938  2.1983 -0.7367 -0.1992
16440TIP3    H270736   6.627   4.340   3.045 -0.9152  1.1489 -0.0485
16441TIP3   OH270737   5.793   5.306   3.947 -0.3802 -0.0374  0.0977
16441TIP3    H170738   5.809   5.385   3.997  1.4544 -1.1457  1.3842
16441TIP3    H270739   5.875   5.257   3.950 -0.8626 -1.1842 -2.1994
16442TIP3   OH270740   0.512   4.535   4.527  0.3681 -0.3995  0.2604
16442TIP3    H170741   0.547   4.501   4.609  0.4992  0.3272  0.5095
16442TIP3    H270742   0.483   4.457   4.479  1.8462 -0.9701  0.2589
16443TIP3   OH270743   4.050   4.812   3.279 -0.3921  0.3952 -0.0584
16443TIP3    H170744   4.048   4.906   3.260 -0.2410  0.4270  0.0829
16443TIP3    H270745   4.047   4.770   3.193  0.1596  0.5366 -0.1514
16444TIP3   OH270746   5.853   2.914  15.691 -0.3960  0.1330 -0.2594
16444TIP3    H170747   5.766   2.947  15.668 -0.8157 -0.3130  0.6465
16444TIP3    H270748   5.886   2.976  15.756 -0.7204 -0.5940  0.6119
16445TIP3   OH270749   2.469   3.243   1.889  0.3169  0.0100 -0.5262
16445TIP3    H170750   2.385   3.230   1.932  0.6884  0.6397  0.4320
16445TIP3    H270751   2.478   3.168   1.830 -1.2383  0.3226 -1.1991
16446TIP3   OH270752   4.343   0.712  15.805 -0.4442  0.4822  0.2916
16446TIP3    H170753   4.274   0.650  15.785 -0.3968  0.5364 -0.0614
16446TIP3    H270754   4.417   0.684  15.750 -0.0800  0.2310  0.9019
16447TIP3   OH270755   2.327   5.471  11.328 -0.1118 -0.6557  0.3564
16447TIP3    H170756   2.274   5.457  11.250  0.1391 -1.4283  0.3153
16447TIP3    H270757   2.271   5.445  11.401 -0.3562  0.0926  0.4451
16448TIP3   OH270758   3.568   3.308   0.162  0.0289 -0.1108  0.4053
16448TIP3    H170759   3.659   3.279   0.162  0.2352  0.5250 -0.0025
16448TIP3    H270760   3.517   3.227   0.158  0.5807 -0.4534  0.2331
16449TIP3   OH270761   4.313   3.626  14.422  0.2149  0.2402 -0.4387
16449TIP3    H170762   4.399   3.622  14.382  0.1523 -1.1183 -0.4921
16449TIP3    H270763   4.302   3.718  14.448  2.7177  0.0090  1.8919
16450TIP3   OH270764   5.641   3.625   4.223  0.0391 -0.1575  0.0227
16450TIP3    H170765   5.636   3.536   4.259 -0.3874 -0.3539 -0.5158
16450TIP3    H270766   5.553   3.644   4.192  0.2953  0.1822 -0.5198
16451TIP3   OH270767   2.946   5.387  13.538 -0.7026  0.1088 -0.5752
16451TIP3    H170768   2.885   5.399  13.466 -1.3397  0.7299  0.0456
16451TIP3    H270769   2.913   5.445  13.607  0.0385 -0.2744  0.1185
16452TIP3   OH270770   6.658   5.128  15.685 -0.2567  0.0661 -0.5145
16452TIP3    H170771   6.746   5.167  15.691  0.4390 -1.4612 -0.3428
16452TIP3    H270772   6.671   5.047  15.635 -1.3467 -0.8042  0.5533
16453TIP3   OH270773   3.530   4.104  11.970 -0.0778  0.0571  0.3983
16453TIP3    H170774   3.451   4.076  12.016 -0.8967 -0.7882 -1.4103
16453TIP3    H270775   3.598   4.046  12.002 -0.7076 -0.7486  0.3127
16454TIP3   OH270776   0.079   0.297   1.666 -0.2270 -0.1958  0.2871
16454TIP3    H170777   0.096   0.295   1.760 -0.0793  3.1625  0.4616
16454TIP3    H270778  -0.016   0.308   1.659 -0.0585  1.2959  0.1470
16455TIP3   OH270779   5.861   0.965  12.096 -0.1806  0.8262 -0.3595
16455TIP3    H170780   5.911   1.037  12.058 -1.5793  2.8418  1.3463
16455TIP3    H270781   5.790   1.008  12.144 -1.5367 -1.7533  0.1381
16456TIP3   OH270782   4.436   4.248   4.069  0.3547  0.2920 -0.2293
16456TIP3    H170783   4.462   4.158   4.087  1.1132  0.3280 -1.0644
16456TIP3    H270784   4.513   4.287   4.028  0.5576  1.7436  1.4172
16457TIP3   OH270785   4.029   6.792   0.757  1.0290 -0.0547 -0.6032
16457TIP3    H170786   4.082   6.866   0.787  0.8154 -0.1328 -0.0116
16457TIP3    H270787   4.092   6.731   0.720  1.3088  0.0177 -0.2504
16458TIP3   OH270788   3.485   4.794  10.869 -0.3058  1.0277 -0.0671
16458TIP3    H170789   3.486   4.699  10.881 -1.1956  0.9534 -0.4362
16458TIP3    H270790   3.577   4.818  10.858 -0.1160  0.1121 -0.6538
16459TIP3   OH270791   5.760   4.650   2.255  0.3199  0.4868  0.1522
16459TIP3    H170792   5.696   4.582   2.275  1.6297 -1.4337 -1.7434
16459TIP3    H270793   5.710   4.731   2.256 -1.3097 -0.4244  2.4994
16460TIP3   OH270794   1.303   1.451  11.645  0.5589  0.7551 -0.0687
16460TIP3    H170795   1.246   1.528  11.647  0.1993  0.4756  1.2323
16460TIP3    H270796   1.247   1.379  11.675  0.6351 -0.2101 -2.1097
16461TIP3   OH270797   5.239   5.087   4.210 -0.1485  0.3689  0.1644
16461TIP3    H170798   5.325   5.119   4.182  0.0141 -0.1348  0.0886
16461TIP3    H270799   5.258   5.034   4.288 -0.4990  1.0375  0.7158
16462TIP3   OH270800   0.279   5.291  15.917 -0.3981 -0.0345  0.2538
16462TIP3    H170801   0.317   5.361  15.864 -1.2091  0.8432  0.8055
16462TIP3    H270802   0.225   5.241  15.855 -0.7985  0.5822  0.0909
16463TIP3   OH270803   2.913   5.961  15.893  0.1625  0.3405 -0.2707
16463TIP3    H170804   2.867   5.877  15.886  0.7201  0.1177 -1.5308
16463TIP3    H270805   2.970   5.950  15.969 -0.1699 -0.2180 -0.0902
16464TIP3   OH270806   5.578   6.362   2.128  0.7460 -0.4387 -0.2465
16464TIP3    H170807   5.598   6.444   2.082  1.2097 -1.2566 -1.5571
16464TIP3    H270808   5.616   6.374   2.215  1.8406  0.3016 -0.8013
16465TIP3   OH270809   6.139   4.004   1.747  0.9469  0.2433  0.3971
16465TIP3    H170810   6.191   4.073   1.707  0.2128  0.6794  0.1624
16465TIP3    H270811   6.058   4.048   1.775  0.0422 -0.6958 -0.6350
16466TIP3   OH270812   6.606   6.162   6.582 -0.0254  0.0727  0.6398
16466TIP3    H170813   6.526   6.208   6.607  0.3596  2.1842 -1.6809
16466TIP3    H270814   6.674   6.230   6.581  1.6514 -1.4668  1.5717
16467TIP3   OH270815   5.756   0.361  15.606 -0.5337  0.3440  0.4362
16467TIP3    H170816   5.709   0.302  15.548 -0.6834  1.0971 -0.2306
16467TIP3    H270817   5.806   0.418  15.547  0.3880  0.2330  1.0985
16468TIP3   OH270818   1.289   0.335  13.350  0.0583 -0.4949 -0.0901
16468TIP3    H170819   1.224   0.402  13.330 -1.2645 -0.9934  2.1890
16468TIP3    H270820   1.358   0.382  13.397  0.0747 -0.3898 -0.2210
16469TIP3   OH270821   1.774   4.171  10.650 -0.3965  0.4510 -0.4503
16469TIP3    H170822   1.763   4.262  10.621  1.2587  0.6583 -0.5304
16469TIP3    H270823   1.856   4.143  10.610  0.8473  0.0222  2.1791
16470TIP3   OH270824   5.523   5.653  14.045 -0.1402  0.3332  0.2880
16470TIP3    H170825   5.607   5.680  14.009  0.4916 -0.1021  1.3914
16470TIP3    H270826   5.493   5.583  13.987  0.2991  0.4218 -0.0487
16471TIP3   OH270827   3.934   5.469   0.101  0.9741  0.0538 -0.1165
16471TIP3    H170828   3.894   5.442   0.184  0.0602  1.1315 -0.1835
16471TIP3    H270829   3.860   5.486   0.043  1.6090 -1.8154 -1.5681
16472TIP3   OH270830   3.275   2.973   0.890 -0.1489 -0.2554 -0.1906
16472TIP3    H170831   3.281   2.884   0.854 -0.4433 -0.0513 -0.7700
16472TIP3    H270832   3.363   3.009   0.880 -0.2188 -0.2119 -0.7014
16473TIP3   OH270833   2.076   0.794   4.048  0.7443  0.0519  0.0067
16473TIP3    H170834   2.139   0.849   4.094  2.0565  0.5426 -2.2160
16473TIP3    H270835   2.059   0.721   4.108  2.6129  0.4652  1.1056
16474TIP3   OH270836   2.177   5.156  15.587  0.0564  0.3969  0.4396
16474TIP3    H170837   2.146   5.083  15.533  1.0969 -0.3513  0.8254
16474TIP3    H270838   2.127   5.232  15.555 -0.9749 -0.4464 -0.0391
16475TIP3   OH270839   0.540   1.657   5.501  0.0614 -0.5658 -0.7197
16475TIP3    H170840   0.515   1.741   5.540  0.4972  0.1331 -1.8724
16475TIP3    H270841   0.470   1.638   5.439  0.2790 -0.7264 -0.9163
16476TIP3   OH270842   4.997   0.458   4.517 -0.1113  0.1418 -0.0552
16476TIP3    H170843   4.952   0.454   4.433  0.0021 -0.8013 -0.0803
16476TIP3    H270844   5.083   0.419   4.500 -0.8967 -2.2203  0.9857
16477TIP3   OH270845   6.596   3.452  12.923 -0.1343 -0.2114 -0.2150
16477TIP3    H170846   6.584   3.464  12.828 -0.5921 -2.2343 -0.4501
16477TIP3    H270847   6.609   3.541  12.956  0.1022  0.5471 -2.1774
16478TIP3   OH270848   4.200   3.498  16.776 -0.4914  0.3968 -0.3338
16478TIP3    H170849   4.278   3.510  16.830  0.0764  0.7079 -1.2019
16478TIP3    H270850   4.147   3.434  16.824  0.6808 -0.4702 -0.1555
16479TIP3   OH270851   2.055   1.206  14.699  0.0180 -0.0204  0.1920
16479TIP3    H170852   2.080   1.126  14.744 -1.3978 -1.3033 -1.1841
16479TIP3    H270853   1.963   1.219  14.721  0.0028  0.7673 -0.2698
16480TIP3   OH270854   0.011   5.447   0.316  0.3955  0.3524  0.0375
16480TIP3    H170855  -0.079   5.480   0.323  0.2519 -0.0450  0.1459
16480TIP3    H270856   0.004   5.376   0.252 -0.1513 -2.2549  2.7601
16481TIP3   OH270857   2.798   0.254   6.316  0.2435  0.1476 -0.2643
16481TIP3    H170858   2.842   0.169   6.320 -0.3377 -0.1206  1.1668
16481TIP3    H270859   2.869   0.318   6.305  0.5872 -0.5762 -2.8771
16482TIP3   OH270860   0.329   6.285  16.774 -0.2568 -0.6625 -0.2465
16482TIP3    H170861   0.298   6.196  16.753 -0.4411 -0.7449  0.3572
16482TIP3    H270862   0.328   6.289  16.870 -0.1423 -0.0425 -0.2666
16483TIP3   OH270863   1.106   3.426  13.118 -0.0427  0.1546 -0.8529
16483TIP3    H170864   1.049   3.363  13.162 -0.5316  0.7205 -0.6627
16483TIP3    H270865   1.151   3.470  13.190 -1.3364  1.5499 -0.8595
16484TIP3   OH270866   2.674   5.291  15.896  0.2718 -0.7323 -0.6288
16484TIP3    H170867   2.692   5.300  15.990 -0.9136 -1.8679 -0.2670
16484TIP3    H270868   2.627   5.208  15.888  0.1884 -0.5637 -2.2133
16485TIP3   OH270869   1.147   2.118   0.526 -0.4030 -0.1817  0.2049
16485TIP3    H170870   1.202   2.101   0.603  0.1089  0.9398  0.1149
16485TIP3    H270871   1.097   2.197   0.549  2.5207  2.5511 -1.9079
16486TIP3   OH270872   0.348   0.055   1.493  0.4739 -0.0187 -0.3729
16486TIP3    H170873   0.381  -0.021   1.542  1.7781  0.8332  0.1379
16486TIP3    H270874   0.268   0.080   1.540  0.2405 -0.8285 -0.3169
16487TIP3   OH270875   0.972   0.089   3.822  0.1650  0.0812 -0.5653
16487TIP3    H170876   0.982   0.176   3.860  1.5903  0.2145 -1.1924
16487TIP3    H270877   0.940   0.035   3.894  0.3624  0.8685  0.1252
16488TIP3   OH270878   4.481   5.929   3.755 -0.8843  0.4072 -0.3477
16488TIP3    H170879   4.497   5.835   3.749  0.8878  0.6823 -0.4638
16488TIP3    H270880   4.393   5.936   3.791 -0.6363 -1.2880  0.6966
16489TIP3   OH270881   3.447   3.124   2.106  0.0622 -0.5037  0.5181
16489TIP3    H170882   3.452   3.030   2.124  0.8211 -0.0724  2.8346
16489TIP3    H270883   3.502   3.164   2.173 -1.7820  1.7156  0.8049
16490TIP3   OH270884   0.053   3.236   5.895  0.0372 -0.0553 -0.3784
16490TIP3    H170885   0.032   3.166   5.957 -0.3884 -0.5524 -1.0702
16490TIP3    H270886  -0.006   3.308   5.918  0.5251  0.1153  0.3795
16491TIP3   OH270887   3.039   4.909   0.739 -0.2762 -0.1945  0.1217
16491TIP3    H170888   3.116   4.966   0.735 -0.9257  0.6464 -2.3530
16491TIP3    H270889   3.059   4.838   0.678 -1.1802 -0.3008 -0.0605
16492TIP3   OH270890   2.104   4.774  12.181  0.0627  0.3554  0.2166
16492TIP3    H170891   2.010   4.792  12.184  0.2063  1.4518 -1.0438
16492TIP3    H270892   2.115   4.697  12.237 -1.4881  0.5717  0.8733
16493TIP3   OH270893   0.178   1.032  14.911 -0.8516  0.4811  1.0057
16493TIP3    H170894   0.241   0.961  14.902 -2.2915 -0.7022 -0.1192
16493TIP3    H270895   0.157   1.057  14.821  0.0871  2.8258  1.3409
16494TIP3   OH270896   0.105   1.383   1.660 -0.0302  0.6368 -0.1628
16494TIP3    H170897   0.190   1.371   1.618  0.5774  0.3328  1.1110
16494TIP3    H270898   0.110   1.471   1.699  0.6375 -0.2309  1.8888
16495TIP3   OH270899   4.621   3.926   2.791 -0.5240  0.2294 -0.1172
16495TIP3    H170900   4.544   3.891   2.834 -1.0189 -0.7685 -1.7487
16495TIP3    H270901   4.668   3.849   2.758  1.0573  0.8288  0.6432
16496TIP3   OH270902   0.071   6.653   6.431 -0.8150 -0.6725 -0.4941
16496TIP3    H170903   0.050   6.744   6.411  0.7271  0.1400  1.2999
16496TIP3    H270904   0.120   6.657   6.514 -1.1448 -3.1796 -0.1078
16497TIP3   OH270905   2.736   3.487   2.384 -0.3141 -0.2817  0.1675
16497TIP3    H170906   2.818   3.472   2.430 -0.3166  1.4075  0.7578
16497TIP3    H270907   2.668   3.457   2.445 -0.2293  0.2055  0.5012
16498TIP3   OH270908   1.381   1.324   2.817 -0.6254  0.5813 -0.2208
16498TIP3    H170909   1.316   1.257   2.840 -0.8246  0.5638 -0.8216
16498TIP3    H270910   1.404   1.364   2.901 -1.1678  0.3641  0.0401
16499TIP3   OH270911   1.707   1.690  15.067 -0.9522  0.2551  0.2209
16499TIP3    H170912   1.699   1.648  15.153 -0.0629 -0.8921 -0.2291
16499TIP3    H270913   1.689   1.782  15.084  0.2622  0.2523  1.8607
16500TIP3   OH270914   3.354   2.847  12.952 -0.6333  0.0110  0.0214
16500TIP3    H170915   3.361   2.913  13.021 -0.0527 -2.5990  2.6473
16500TIP3    H270916   3.265   2.813  12.960 -0.5248 -0.3998 -0.4798
16501TIP3   OH270917   4.391   4.442  11.738 -0.5404  0.5031  0.2302
16501TIP3    H170918   4.467   4.390  11.766 -0.9054 -0.6515 -0.8254
16501TIP3    H270919   4.396   4.521  11.791 -0.5160 -1.0105  2.6515
16502TIP3   OH270920   1.589   2.519   4.492 -0.9788 -0.1345  0.1742
16502TIP3    H170921   1.566   2.463   4.567  1.5734 -0.6999  0.6376
16502TIP3    H270922   1.549   2.476   4.417 -0.8426 -1.4232  0.8113
16503TIP3   OH270923   2.404   3.958  16.049 -0.0126 -0.5568  0.6054
16503TIP3    H170924   2.480   3.951  16.106  0.1461 -0.4959  0.4014
16503TIP3    H270925   2.407   3.878  15.997 -0.4136 -0.8307  0.9960
16504TIP3   OH270926   3.831   3.191   4.866 -0.0956 -0.2705  0.0744
16504TIP3    H170927   3.788   3.132   4.804  0.2429  0.6464 -1.0777
16504TIP3    H270928   3.856   3.135   4.939 -2.7209 -0.9389  0.5573
16505TIP3   OH270929   5.139   2.048   5.867  0.4580  0.9316 -0.1922
16505TIP3    H170930   5.234   2.059   5.872  0.4905  0.8152 -0.5308
16505TIP3    H270931   5.121   2.035   5.774  0.2165 -0.0509 -0.0129
16506TIP3   OH270932   0.439   1.751  14.640  0.4245 -0.1683 -0.0694
16506TIP3    H170933   0.459   1.710  14.724 -1.2754 -0.7237  0.1159
16506TIP3    H270934   0.392   1.831  14.663 -2.1503 -1.4518 -0.3977
16507TIP3   OH270935   5.563   0.027  13.950 -0.2123 -0.7458  0.2654
16507TIP3    H170936   5.520  -0.040  13.897  1.7461 -0.8783 -1.2550
16507TIP3    H270937   5.569  -0.011  14.037 -1.0439 -1.6582 -0.0593
16508TIP3   OH270938   3.735   5.667   1.461  0.6317  0.1872 -0.1019
16508TIP3    H170939   3.704   5.734   1.400 -0.1456 -0.5013 -0.4703
16508TIP3    H270940   3.707   5.584   1.423  1.1313 -0.3248  0.6155
16509TIP3   OH270941   5.372   5.694   1.079 -0.7528 -0.3944 -0.1557
16509TIP3    H170942   5.402   5.608   1.110  0.4458  0.0767  0.0462
16509TIP3    H270943   5.439   5.755   1.109  0.5149  0.1205 -3.6520
16510TIP3   OH270944   0.273   0.265  11.762 -0.1864  0.4724  0.0772
16510TIP3    H170945   0.291   0.171  11.767  1.0489  0.5857 -1.5830
16510TIP3    H270946   0.341   0.305  11.817  0.9922  0.5191 -1.3489
16511TIP3   OH270947   3.158   3.918   4.959  0.2435  0.6237  0.6093
16511TIP3    H170948   3.089   3.905   5.025 -0.1493  1.8492  0.4612
16511TIP3    H270949   3.238   3.892   5.004  0.3609  3.7423  2.5285
16512TIP3   OH270950   4.991   4.459  12.324  0.0287  0.2475 -0.1026
16512TIP3    H170951   4.937   4.390  12.363  1.8601 -0.9676  0.3825
16512TIP3    H270952   5.059   4.413  12.277  0.4130  1.7449 -1.0869
16513TIP3   OH270953   2.907   1.614  11.011  0.1225  0.3683  0.3014
16513TIP3    H170954   2.970   1.673  11.054 -0.2465  1.3764 -0.4904
16513TIP3    H270955   2.958   1.537  10.988  0.1279 -0.6729  3.3875
16514TIP3   OH270956   4.086   6.205   3.122  0.3588  0.4364 -0.4037
16514TIP3    H170957   4.138   6.278   3.156  1.0933  0.2220 -1.0261
16514TIP3    H270958   4.133   6.127   3.149  0.1491  0.2260 -0.6375
16515TIP3   OH270959   5.504   5.287  16.747  0.0605 -0.0101 -0.2307
16515TIP3    H170960   5.443   5.309  16.676 -1.0994 -0.6315  0.5450
16515TIP3    H270961   5.455   5.225  16.801  1.2904 -0.2850  0.5808
16516TIP3   OH270962   4.202   3.033  15.738 -0.2560  0.2760 -0.2156
16516TIP3    H170963   4.255   3.049  15.817  0.9666 -0.4349 -0.8571
16516TIP3    H270964   4.115   3.064  15.761  0.0851  0.1351  1.3998
16517TIP3   OH270965   5.584   6.761  14.866 -0.7406 -0.2209 -0.5362
16517TIP3    H170966   5.670   6.735  14.898 -0.7210  0.3023 -0.1370
16517TIP3    H270967   5.587   6.744  14.772 -0.3344 -0.5521 -0.4691
16518TIP3   OH270968   1.103   6.128   4.056  0.4644  0.4186  0.6224
16518TIP3    H170969   1.038   6.197   4.041 -0.2175 -0.5222 -1.1286
16518TIP3    H270970   1.109   6.083   3.972  0.9922 -1.5801  1.6795
16519TIP3   OH270971   1.750   4.602   1.798 -0.4253 -0.1682 -0.4309
16519TIP3    H170972   1.676   4.546   1.822 -0.2599  0.0255  0.5532
16519TIP3    H270973   1.715   4.659   1.729 -0.8398 -0.8950 -0.8286
16520TIP3   OH270974   5.136   3.174   3.182 -0.3781 -0.1705 -0.0702
16520TIP3    H170975   5.205   3.214   3.128  0.4001  0.4730  1.3478
16520TIP3    H270976   5.161   3.082   3.190  0.4445  0.0985  0.5915
16521TIP3   OH270977   6.452   1.649   2.409  0.2933 -0.7815  0.1210
16521TIP3    H170978   6.472   1.598   2.331  0.5598 -2.2745  1.1230
16521TIP3    H270979   6.445   1.584   2.479  0.6622  0.5659  1.4610
16522TIP3   OH270980   5.826   0.245   2.141 -0.3031 -0.2343 -0.1249
16522TIP3    H170981   5.907   0.287   2.168 -2.2826  3.6388  0.5372
16522TIP3    H270982   5.809   0.279   2.053 -1.1278 -1.1058 -0.3161
16523TIP3   OH270983   3.003   5.015   2.440 -0.3819 -0.3405  0.1352
16523TIP3    H170984   2.916   4.976   2.451  0.3481 -1.6820  1.5050
16523TIP3    H270985   2.989   5.086   2.378 -2.5969 -0.0661  0.8321
16524TIP3   OH270986   0.663   4.308   4.319  0.3929 -0.1814  0.3061
16524TIP3    H170987   0.653   4.316   4.224  0.8341  1.3500  0.3625
16524TIP3    H270988   0.751   4.274   4.331  0.6889  0.5098  0.1699
16525TIP3   OH270989   0.871   3.227   1.732  0.1009  0.9086 -0.0639
16525TIP3    H170990   0.905   3.300   1.681  0.4075  1.7076  1.2500
16525TIP3    H270991   0.885   3.252   1.823 -0.2206 -0.5852  0.4271
16526TIP3   OH270992   0.146   4.632  16.617 -0.6143  0.4617  0.1381
16526TIP3    H170993   0.094   4.600  16.691  0.5401 -0.7580  0.4450
16526TIP3    H270994   0.082   4.645  16.547 -1.2686 -1.7352  0.2653
16527TIP3   OH270995   2.921   4.842  11.658  0.2877  0.1753  0.5716
16527TIP3    H170996   3.012   4.858  11.681 -0.8305  2.4327  4.3255
16527TIP3    H270997   2.883   4.929  11.646 -1.6792 -0.6115  0.5978
16528TIP3   OH270998   2.783   1.783  11.408 -0.2230 -0.5138 -0.0421
16528TIP3    H170999   2.717   1.719  11.380 -0.2841  0.0468 -1.2647
16528TIP3    H271000   2.751   1.866  11.372  0.2279  0.0801  0.9044
16529TIP3   OH271001   0.204   3.108  13.061 -0.6644 -0.0783  0.0757
16529TIP3    H171002   0.240   3.034  13.012 -1.7593 -0.9672  0.5434
16529TIP3    H271003   0.116   3.119  13.026 -1.0156  0.0708  0.9735
16530TIP3   OH271004   2.940   4.253  11.286 -0.4602 -0.1682  0.3521
16530TIP3    H171005   2.957   4.338  11.244  4.0915 -0.7841  0.4943
16530TIP3    H271006   2.925   4.275  11.378  0.4065  0.5587  0.3354
16531TIP3   OH271007   5.074   1.892  10.689 -0.8330 -0.0427 -0.1363
16531TIP3    H171008   5.083   1.876  10.595 -0.6707 -1.0156  0.0340
16531TIP3    H271009   5.045   1.809  10.725  1.2669 -0.3762  0.9767
16532TIP3   OH271010   6.121   4.761   1.717 -0.1778  0.7382 -0.0644
16532TIP3    H171011   6.128   4.854   1.695 -0.6677  0.9933  0.7997
16532TIP3    H271012   6.134   4.758   1.812  2.0382 -0.3315 -0.3201
16533TIP3   OH271013   2.261   1.870  17.098  0.1856  0.5749 -0.1795
16533TIP3    H171014   2.343   1.875  17.050 -0.0702 -0.7710 -0.8109
16533TIP3    H271015   2.199   1.921  17.046  0.2927  0.4230 -0.4581
16534TIP3   OH271016   2.860   1.108   4.066 -0.7912 -0.3734 -0.4448
16534TIP3    H171017   2.830   1.199   4.070  0.8374  0.1495  0.8232
16534TIP3    H271018   2.809   1.070   3.994 -1.1582  1.6634 -1.3533
16535TIP3   OH271019   0.916   2.083  17.160  0.2597  0.3657 -0.1524
16535TIP3    H171020   1.002   2.117  17.184  0.5514 -0.4369 -0.0281
16535TIP3    H271021   0.897   2.124  17.075  0.3043  1.3271  0.2913
16536TIP3   OH271022   2.183   3.897   4.433  0.0824  0.2251 -0.1184
16536TIP3    H171023   2.213   3.807   4.423  0.5672  0.2949  0.6303
16536TIP3    H271024   2.223   3.944   4.359  1.7319  0.2818  0.7561
16537TIP3   OH271025   5.930   3.926  11.766  0.1921 -0.4215  0.4821
16537TIP3    H171026   5.861   3.863  11.742  0.2004 -2.2471  4.4100
16537TIP3    H271027   6.012   3.882  11.745  0.1693 -1.3456  2.1232
16538TIP3   OH271028   2.735   5.432   1.879 -0.6499 -0.0082  0.3849
16538TIP3    H171029   2.776   5.347   1.865 -1.4721 -0.2780 -0.4819
16538TIP3    H271030   2.792   5.495   1.836 -0.6542 -0.2685 -0.0020
16539TIP3   OH271031   4.201   2.951   5.680 -0.4039 -0.4599  0.0291
16539TIP3    H171032   4.137   3.020   5.661  1.5587  2.2739  2.4723
16539TIP3    H271033   4.185   2.929   5.772  1.3914 -0.5439  0.3477
16540TIP3   OH271034   5.043   3.948   4.280  0.2502  0.3364  0.7199
16540TIP3    H171035   5.048   3.859   4.316  0.6468  0.7510  1.7308
16540TIP3    H271036   4.951   3.973   4.290 -0.2515 -0.5556 -1.1238
16541TIP3   OH271037   0.879   4.495   0.871 -0.1631  0.1354 -0.1690
16541TIP3    H171038   0.921   4.566   0.920 -1.6222  1.2378 -0.4602
16541TIP3    H271039   0.942   4.474   0.802 -0.5989  2.7484 -1.4989
16542TIP3   OH271040   0.901   1.585  12.941 -0.9499 -0.1808  0.1274
16542TIP3    H171041   0.881   1.674  12.969  1.1325  0.8734 -1.4822
16542TIP3    H271042   0.879   1.583  12.848 -1.4842 -1.5425  0.2577
16543TIP3   OH271043   0.234   2.345   2.195 -0.2806 -0.3238  0.1506
16543TIP3    H171044   0.272   2.432   2.182  1.5005 -1.1305 -0.5094
16543TIP3    H271045   0.187   2.351   2.278  0.5924  1.0050  0.5858
16544TIP3   OH271046   3.092   5.016   3.277 -0.4540  0.0624 -0.0596
16544TIP3    H171047   3.004   4.982   3.294  0.3930 -2.3914 -0.1926
16544TIP3    H271048   3.131   5.026   3.364  0.5977 -3.2486 -0.0156
16545TIP3   OH271049   4.761   5.458  11.661  0.0532  0.0342  0.4594
16545TIP3    H171050   4.686   5.416  11.617 -0.3952  0.3770  0.8878
16545TIP3    H271051   4.836   5.434  11.607 -0.4382  0.1525 -0.3012
16546TIP3   OH271052   0.431   3.281   1.026  0.5222 -0.3624  0.1833
16546TIP3    H171053   0.509   3.335   1.013 -0.4963  1.4734  1.3617
16546TIP3    H271054   0.464   3.204   1.072  1.6306  0.5018  0.9154
16547TIP3   OH271055   1.967   6.014   1.388  0.1412  0.2180 -0.2480
16547TIP3    H171056   2.016   5.937   1.360  0.6563 -0.4357  2.2171
16547TIP3    H271057   2.032   6.072   1.426 -0.7581 -0.3047  2.3235
16548TIP3   OH271058   0.494   3.777   4.545  0.2862 -0.2307 -0.2586
16548TIP3    H171059   0.561   3.708   4.550 -1.4760 -1.9767  1.7549
16548TIP3    H271060   0.543   3.859   4.546  2.4133 -1.4335  0.2439
16549TIP3   OH271061   5.725   3.454   1.355 -0.8803  0.0169  0.3366
16549TIP3    H171062   5.713   3.366   1.391 -1.2535  0.5975  1.7061
16549TIP3    H271063   5.819   3.462   1.343 -0.9730 -1.2767 -1.7578
16550TIP3   OH271064   2.575   3.043   2.507  0.7029  0.8923 -0.0643
16550TIP3    H171065   2.574   3.106   2.435 -2.7726 -0.8714 -1.7892
16550TIP3    H271066   2.530   3.087   2.579 -0.4320  0.9100 -0.7703
16551TIP3   OH271067   4.012   1.352  14.674 -0.1034 -0.5588  0.1304
16551TIP3    H171068   4.102   1.328  14.652  0.0320 -0.2816  0.3813
16551TIP3    H271069   3.995   1.432  14.624 -0.3957 -0.9015 -0.3352
16552TIP3   OH271070   0.645   3.774  16.726  0.0889  0.1346  0.2377
16552TIP3    H171071   0.565   3.802  16.770  0.4323 -2.2008  2.5731
16552TIP3    H271072   0.668   3.847  16.668 -2.8244  1.5168  0.6678
16553TIP3   OH271073   0.097   5.855  14.418  0.1636  0.3173 -0.3196
16553TIP3    H171074   0.028   5.835  14.354  1.5938  0.1309 -1.8837
16553TIP3    H271075   0.093   5.783  14.481 -2.2748  1.2902  0.7586
16554TIP3   OH271076   0.573   0.706   5.975 -0.7332  0.2141 -0.1047
16554TIP3    H171077   0.613   0.622   5.954 -0.9778 -0.0668  0.5182
16554TIP3    H271078   0.598   0.722   6.066  2.2742  2.5119 -1.1613
16555TIP3   OH271079   2.508   3.814   1.861 -0.2315 -0.2546  0.1362
16555TIP3    H171080   2.539   3.724   1.873  0.5625 -0.5469 -3.1389
16555TIP3    H271081   2.582   3.869   1.885  1.0272 -0.7576 -2.2589
16556TIP3   OH271082   5.664   4.932   0.381  0.0836 -0.0808 -0.1761
16556TIP3    H171083   5.671   4.853   0.435  0.0960  1.5838  2.4300
16556TIP3    H271084   5.743   4.931   0.327  0.5288 -1.3927  0.4558
16557TIP3   OH271085   2.275   5.649   0.666  0.2105 -0.6551 -0.1175
16557TIP3    H171086   2.263   5.685   0.578  0.6633 -0.4439 -0.0983
16557TIP3    H271087   2.218   5.701   0.722 -0.0106 -0.7300 -0.2722
16558TIP3   OH271088   6.319   1.462   1.565 -0.3683  0.1870 -0.0333
16558TIP3    H171089   6.366   1.383   1.593  0.4724  0.2084 -1.3218
16558TIP3    H271090   6.238   1.429   1.528  0.6004 -0.2341 -1.8966
16559TIP3   OH271091   4.659   6.504   0.391 -0.4294  0.2385  0.3861
16559TIP3    H171092   4.580   6.454   0.371  0.5458 -1.1162 -0.2245
16559TIP3    H271093   4.655   6.579   0.331 -0.6652 -0.4655 -0.5125
16560TIP3   OH271094   0.461   3.788  11.986 -0.0715 -0.1536 -0.2588
16560TIP3    H171095   0.400   3.823  11.921  2.1564  0.3667 -2.1948
16560TIP3    H271096   0.427   3.700  12.005 -1.8063  0.3867 -0.7075
16561TIP3   OH271097   3.257   1.119  14.187  0.0403 -0.3892 -0.3672
16561TIP3    H171098   3.319   1.181  14.227 -0.7942  0.0144  0.3235
16561TIP3    H271099   3.196   1.099  14.257  1.0574 -3.0674 -0.1333
16562TIP3   OH271100   4.514   0.376  13.241  0.8329  0.4335  0.1453
16562TIP3    H171101   4.552   0.307  13.295  1.2155  0.5001 -0.0403
16562TIP3    H271102   4.570   0.381  13.164  0.6350  0.7497  0.0178
16563TIP3   OH271103   4.767   3.965  15.998 -0.2765  0.1208 -0.0983
16563TIP3    H171104   4.724   4.042  16.036 -1.6141 -0.0762 -1.1345
16563TIP3    H271105   4.740   3.966  15.906  2.1955  0.1246 -0.8818
16564TIP3   OH271106   1.868   1.308  15.337 -0.0213  0.2072 -0.1315
16564TIP3    H171107   1.807   1.360  15.285  1.7411  2.6914  0.1377
16564TIP3    H271108   1.850   1.333  15.428  1.2965  0.9110 -0.0418
16565TIP3   OH271109   5.245   3.244  12.171  0.2939  0.2112  0.0407
16565TIP3    H171110   5.318   3.299  12.145 -0.0708 -0.1974 -2.0083
16565TIP3    H271111   5.250   3.168  12.113 -1.2178 -0.2709  0.4806
16566TIP3   OH271112   3.452   1.792  13.572  0.6342 -0.2086  0.3749
16566TIP3    H171113   3.452   1.888  13.583  0.1137 -0.2914  1.2408
16566TIP3    H271114   3.359   1.770  13.563  0.7151 -0.6700  0.6315
16567TIP3   OH271115   1.921   0.506  14.008 -0.0990 -0.4331 -1.1653
16567TIP3    H171116   1.991   0.500  14.073 -0.8427 -2.9950 -0.4710
16567TIP3    H271117   1.872   0.585  14.031  1.6174  0.5406 -0.7268
16568TIP3   OH271118   3.094   0.807   2.692  0.0391 -0.8395  0.3869
16568TIP3    H171119   3.175   0.803   2.742  1.7191  2.0950 -1.7929
16568TIP3    H271120   3.028   0.838   2.755  1.0594 -1.2486  1.7038
16569TIP3   OH271121   5.340   4.603  11.065  0.7237 -0.0098 -0.1710
16569TIP3    H171122   5.359   4.553  10.986 -1.1837  0.1147 -0.7572
16569TIP3    H271123   5.318   4.691  11.034 -0.8437 -0.1737  0.3888
16570TIP3   OH271124   3.306   6.434   3.324 -0.3436  0.1340  0.4704
16570TIP3    H171125   3.282   6.479   3.244  1.9080  1.1790  0.3022
16570TIP3    H271126   3.227   6.435   3.378 -2.1519 -1.2779 -1.9536
16571TIP3   OH271127   6.476   5.795   2.321 -0.0290  0.5798  0.0578
16571TIP3    H171128   6.563   5.768   2.349 -0.3750  0.1967  0.8067
16571TIP3    H271129   6.489   5.838   2.237  0.7544 -0.4751 -0.3852
16572TIP3   OH271130   6.383   0.183  12.667 -0.0393 -0.4342  0.3030
16572TIP3    H171131   6.342   0.147  12.746 -1.5410  1.4937  0.4703
16572TIP3    H271132   6.341   0.268  12.654 -0.7921 -1.1767 -3.2990
16573TIP3   OH271133   4.725   6.495  15.377 -0.5782 -0.3140 -0.0065
16573TIP3    H171134   4.735   6.414  15.427 -0.9958  0.0217  0.6358
16573TIP3    H271135   4.690   6.557  15.440 -3.3938 -0.5008 -1.2606
16574TIP3   OH271136   5.899   0.407  13.196 -0.0843 -0.0979  0.3848
16574TIP3    H171137   5.890   0.448  13.282  1.1783  0.4711  0.2545
16574TIP3    H271138   5.836   0.453  13.141 -0.7208 -0.2958  0.9302
16575TIP3   OH271139   2.269   5.358   3.503  0.3844 -0.2568  0.6916
16575TIP3    H171140   2.280   5.375   3.410 -0.5174 -0.7575  0.4873
16575TIP3    H271141   2.279   5.444   3.544  1.1087 -0.0861  0.1761
16576TIP3   OH271142   0.060   2.536   0.097 -0.1515 -0.1732 -0.0826
16576TIP3    H171143   0.000   2.608   0.074 -0.5899  0.5127  2.8486
16576TIP3    H271144   0.002   2.462   0.114 -0.4360  0.7215  3.6216
16577TIP3   OH271145   6.615   6.514   0.689  0.1828  0.2872 -0.1812
16577TIP3    H171146   6.681   6.550   0.629 -1.2255  1.7803 -0.9016
16577TIP3    H271147   6.560   6.459   0.633  0.5455 -0.6229  0.3359
16578TIP3   OH271148   1.461   3.608  12.878 -0.0106 -0.6008 -0.0896
16578TIP3    H171149   1.538   3.550  12.873  0.2751 -0.1600 -1.1781
16578TIP3    H271150   1.456   3.633  12.970  0.1449 -1.9737  0.3147
16579TIP3   OH271151   1.359   6.426  16.047  0.0957 -0.4877 -0.5828
16579TIP3    H171152   1.403   6.510  16.054  2.9654 -1.9791  1.4919
16579TIP3    H271153   1.387   6.392  15.962 -0.1974  0.1887 -0.9574
16580TIP3   OH271154   0.300   5.861   2.967  0.1909  0.4757  0.4295
16580TIP3    H171155   0.205   5.850   2.973  0.0611  1.2849  0.0052
16580TIP3    H271156   0.321   5.925   3.035  0.3565  0.7040  0.1664
16581TIP3   OH271157   2.246   3.952   4.138  0.1350  0.3983 -0.5100
16581TIP3    H171158   2.161   3.944   4.095  0.4786  2.1600 -1.6054
16581TIP3    H271159   2.306   3.905   4.080  0.2813  1.1539 -0.9822
16582TIP3   OH271160   0.956   3.451   5.391 -0.3805  0.0713 -0.5326
16582TIP3    H171161   0.952   3.370   5.341  0.8793 -1.3349  1.4750
16582TIP3    H271162   1.014   3.509   5.341  1.6458 -1.6429 -0.2958
16583TIP3   OH271163   5.931   4.472   0.772  0.2251 -0.3226 -0.6857
16583TIP3    H171164   5.881   4.421   0.836  0.7808  0.2679  0.2435
16583TIP3    H271165   5.997   4.517   0.824  0.6060  0.2798 -1.6685
16584TIP3   OH271166   5.628   5.975  13.697  0.1300  0.2786 -0.3028
16584TIP3    H171167   5.631   5.988  13.791 -0.9155  1.0840 -0.3547
16584TIP3    H271168   5.562   6.037  13.666 -0.0223 -0.4274 -1.4845
16585TIP3   OH271169   6.673   2.079  11.695  0.0893 -0.5176 -0.1004
16585TIP3    H171170   6.612   2.086  11.769 -0.1390  0.4491 -0.3682
16585TIP3    H271171   6.622   2.032  11.628 -1.3241  2.3805 -1.2332
16586TIP3   OH271172   2.768   1.567  13.520 -0.2871 -0.2662 -0.6935
16586TIP3    H171173   2.851   1.551  13.475 -0.7811 -1.8906 -1.0915
16586TIP3    H271174   2.784   1.536  13.610 -0.3344 -0.1947 -0.6607
16587TIP3   OH271175   0.007   1.465  14.480  0.6388 -0.1766  0.1639
16587TIP3    H171176   0.050   1.388  14.443  0.0852 -0.0546 -0.7665
16587TIP3    H271177  -0.086   1.442  14.484  0.4710  0.4235 -0.0854
16588TIP3   OH271178   2.323   2.751  14.846  0.0246 -0.0804 -0.0497
16588TIP3    H171179   2.347   2.833  14.802 -0.2337  0.2019  0.3291
16588TIP3    H271180   2.291   2.779  14.932 -2.3166 -0.3616 -0.7533
16589TIP3   OH271181   6.053   5.672  16.596 -0.0341 -0.3394 -0.0305
16589TIP3    H171182   5.983   5.692  16.535  0.9310  2.7777 -0.3126
16589TIP3    H271183   6.041   5.735  16.668  2.0738 -0.1261  0.2055
16590TIP3   OH271184   5.555   1.194  11.368  0.1453 -0.2566 -0.2323
16590TIP3    H171185   5.649   1.213  11.373 -0.2174  1.6094  1.2465
16590TIP3    H271186   5.538   1.177  11.276  1.9224 -0.5664 -0.5380
16591TIP3   OH271187   0.379   1.376   5.925  0.4798 -0.0060 -0.0458
16591TIP3    H171188   0.349   1.402   6.012 -0.5274  0.0985 -0.4078
16591TIP3    H271189   0.428   1.295   5.939 -0.0675 -0.2388  0.5697
16592TIP3   OH271190   4.403   0.833   1.073 -0.3914  0.2569  0.1104
16592TIP3    H171191   4.448   0.809   0.992  0.3241 -1.6483  0.9999
16592TIP3    H271192   4.331   0.890   1.045  0.2259  0.1697 -1.7746
16593TIP3   OH271193   6.786   4.281   4.630  0.1805 -0.0160 -0.2127
16593TIP3    H171194   6.858   4.292   4.693  0.1606 -2.5079  0.3668
16593TIP3    H271195   6.825   4.231   4.559 -0.8770 -1.1525 -0.0188
16594TIP3   OH271196   4.769   3.322  14.487 -0.6398 -0.0426 -0.2557
16594TIP3    H171197   4.694   3.318  14.428 -1.6394  1.5036  0.8367
16594TIP3    H271198   4.742   3.271  14.563 -0.2338 -0.1827 -0.2012
16595TIP3   OH271199   5.851   1.140  13.347 -0.0323 -0.5758  0.2875
16595TIP3    H171200   5.802   1.198  13.405 -0.8520 -1.3040  0.3421
16595TIP3    H271201   5.799   1.060  13.344 -0.8010 -0.0945 -2.5750
16596TIP3   OH271202   5.040   5.513   0.631  0.1192  0.7191 -0.1044
16596TIP3    H171203   5.130   5.535   0.654  0.8319 -1.9187 -0.0694
16596TIP3    H271204   5.046   5.474   0.544 -0.9117  0.1613  0.0508
16597TIP3   OH271205   6.715   5.164   1.284 -0.4508 -0.3776  0.9293
16597TIP3    H171206   6.806   5.158   1.256 -1.0676 -1.6783 -0.9555
16597TIP3    H271207   6.674   5.222   1.219 -0.9177  0.5363  1.9995
16598TIP3   OH271208   0.757   2.827   5.483 -0.0431  0.2245 -0.1760
16598TIP3    H171209   0.668   2.860   5.473 -0.1688 -0.1912 -0.4780
16598TIP3    H271210   0.746   2.743   5.528  0.1669  0.0264 -0.4901
16599TIP3   OH271211   3.346   1.615   3.190  0.2481  0.1248 -0.0881
16599TIP3    H171212   3.347   1.694   3.244  1.8477  0.2590 -0.2704
16599TIP3    H271213   3.424   1.567   3.217  0.3534 -0.4417 -1.3435
16600TIP3   OH271214   2.291   0.607  15.837 -0.0918 -0.1729  0.1654
16600TIP3    H171215   2.369   0.608  15.893 -0.3023  0.0946  0.4607
16600TIP3    H271216   2.233   0.673  15.877 -0.1193  0.2391 -0.5458
16601TIP3   OH271217   5.104   4.768  15.630 -0.2270 -0.3215 -0.1342
16601TIP3    H171218   5.134   4.852  15.662 -1.0624 -0.5792  1.4013
16601TIP3    H271219   5.019   4.786  15.590  0.1413 -0.2511 -0.9038
16602TIP3   OH271220   3.862   0.465   0.609  0.3522  0.3564  0.0906
16602TIP3    H171221   3.810   0.386   0.626  0.0088  0.5943  0.1504
16602TIP3    H271222   3.825   0.531   0.666  0.3917  0.6669 -0.2434
16603TIP3   OH271223   1.022   4.435   1.617 -0.2625 -0.8913  0.0322
16603TIP3    H171224   0.999   4.363   1.677  0.3064 -0.5235  0.7116
16603TIP3    H271225   1.036   4.392   1.533  1.4532 -1.8074  0.7235
16604TIP3   OH271226   3.457   3.770  15.234 -0.0136 -0.0417  0.4918
16604TIP3    H171227   3.463   3.838  15.301 -0.2513  0.1021  0.3679
16604TIP3    H271228   3.364   3.762  15.215  0.0811  0.1954 -0.0988
16605TIP3   OH271229   5.390   5.638  15.422  0.2174 -0.1121  0.4108
16605TIP3    H171230   5.443   5.625  15.500  0.4763  0.4749  0.3324
16605TIP3    H271231   5.438   5.702  15.370  0.8299 -1.6088 -0.9621
16606TIP3   OH271232   1.681   0.256   2.884 -0.3067  0.2187 -0.2228
16606TIP3    H171233   1.755   0.285   2.938  0.6635 -0.9701 -0.8627
16606TIP3    H271234   1.656   0.172   2.922 -1.0218  0.3849 -0.3218
16607TIP3   OH271235   5.296   4.828   4.846 -0.4646  0.1281  0.1166
16607TIP3    H171236   5.213   4.870   4.865  0.1500  0.6655  1.7961
16607TIP3    H271237   5.277   4.734   4.853 -0.4267  0.2561  3.1744
16608TIP3   OH271238   3.382   0.705  13.774  0.0874  0.0316  0.3660
16608TIP3    H171239   3.315   0.637  13.770  0.2767 -0.1355  0.0291
16608TIP3    H271240   3.438   0.678  13.846  0.1683 -0.1781  0.2269
16609TIP3   OH271241   3.735   3.729   0.988  0.5773  0.5690  0.0154
16609TIP3    H171242   3.776   3.794   1.046  0.2891 -0.2810  1.2002
16609TIP3    H271243   3.723   3.652   1.043 -2.0226  0.5506 -0.4430
16610TIP3   OH271244   2.794   4.490  12.046  0.2560 -0.4970 -0.8009
16610TIP3    H171245   2.770   4.399  12.027 -2.3227 -0.0273 -0.2724
16610TIP3    H271246   2.712   4.530  12.077  1.1133  2.2139 -1.7438
16611TIP3   OH271247   2.517   5.817  14.153  0.2543  0.3522  0.5520
16611TIP3    H171248   2.600   5.829  14.106  0.8057 -1.7068  0.9222
16611TIP3    H271249   2.464   5.892  14.126  1.8039  1.0935 -0.6123
16612TIP3   OH271250   5.040   1.399  11.757 -0.9379  0.1850 -0.3069
16612TIP3    H171251   5.016   1.491  11.768 -0.6987  0.2759 -0.5604
16612TIP3    H271252   5.075   1.373  11.842  0.2574  0.6975 -0.6314
16613TIP3   OH271253   4.983   2.698  15.299 -0.0656 -0.5169 -0.0541
16613TIP3    H171254   4.900   2.666  15.334 -0.5852  1.5331  0.7021
16613TIP3    H271255   5.026   2.739  15.374  0.6815  0.2904 -0.9116
16614TIP3   OH271256   5.466   0.701  10.538 -0.4318  0.1216  0.1576
16614TIP3    H171257   5.517   0.621  10.552 -1.1229 -0.1850  0.9637
16614TIP3    H271258   5.406   0.705  10.612 -2.4845 -0.1951 -1.4170
16615TIP3   OH271259   0.541   5.062  12.096 -0.1599 -0.1250  0.4246
16615TIP3    H171260   0.512   4.972  12.086  0.6017 -0.2157 -1.3311
16615TIP3    H271261   0.637   5.057  12.102 -0.0023  0.6262 -1.0378
16616TIP3   OH271262   0.038   5.323   4.027  0.0565  0.3971  0.1183
16616TIP3    H171263   0.130   5.317   4.000  0.3916  0.5835  1.1650
16616TIP3    H271264   0.040   5.308   4.121 -0.7614  2.3157  0.4841
16617TIP3   OH271265   3.111   2.361   4.353 -0.0503 -0.1894 -0.1632
16617TIP3    H171266   3.076   2.289   4.299 -0.8458 -0.7020  0.9806
16617TIP3    H271267   3.075   2.440   4.313 -2.2121 -0.6686  0.6644
16618TIP3   OH271268   6.695   5.562  13.069  0.3474 -1.2156 -0.3623
16618TIP3    H171269   6.604   5.583  13.045  1.1432  2.9020 -0.4651
16618TIP3    H271270   6.735   5.532  12.988 -0.1262  0.3644 -1.2253
16619TIP3   OH271271   4.913   0.118   1.952  0.2564 -0.0469  0.4261
16619TIP3    H171272   4.890   0.030   1.982  2.6723 -0.1626  2.2828
16619TIP3    H271273   4.872   0.177   2.015  0.9780 -0.0297  0.8995
16620TIP3   OH271274   1.348   0.058   5.086 -0.6222  0.1769 -0.4541
16620TIP3    H171275   1.268   0.024   5.046  1.5940 -3.0364 -2.6831
16620TIP3    H271276   1.369   0.136   5.035 -1.9276  0.6261 -0.3331
16621TIP3   OH271277   2.019   5.648  14.465 -0.1008 -0.1707  0.1905
16621TIP3    H171278   2.069   5.705  14.407  1.2968 -2.3504 -0.8975
16621TIP3    H271279   1.964   5.597  14.406 -0.7542 -0.4764  1.0527
16622TIP3   OH271280   1.366   0.961   1.240 -0.0778  0.3645  0.3226
16622TIP3    H171281   1.433   1.023   1.210 -1.1010  0.8981 -0.9046
16622TIP3    H271282   1.361   0.975   1.335 -0.9841  2.9003 -0.0390
16623TIP3   OH271283   0.204   1.750   5.357 -0.1425 -0.1626 -0.1064
16623TIP3    H171284   0.199   1.772   5.450  0.8918  1.0675 -0.3224
16623TIP3    H271285   0.262   1.673   5.354  1.2541  0.8392  0.1484
16624TIP3   OH271286   0.473   6.587   2.136 -0.0656  0.2929 -0.0748
16624TIP3    H171287   0.432   6.601   2.222  1.4477  0.1278  0.7056
16624TIP3    H271288   0.411   6.532   2.089 -1.8217  1.9347  0.1879
16625TIP3   OH271289   0.914   6.536   4.231  0.2778 -0.4066  0.1038
16625TIP3    H171290   0.945   6.491   4.152  0.5565 -1.8117  0.9764
16625TIP3    H271291   0.993   6.569   4.273  0.0268  1.4587 -0.8259
16626TIP3   OH271292   5.316   2.472   0.842 -0.0118 -0.1267  0.3110
16626TIP3    H171293   5.284   2.414   0.911  0.0027  1.2965  1.5665
16626TIP3    H271294   5.354   2.546   0.889 -2.8955  2.5114 -1.1359
16627TIP3   OH271295   3.119   0.644  15.954  0.2493  0.3923  0.0498
16627TIP3    H171296   3.038   0.594  15.962 -1.3767  2.2253 -2.9228
16627TIP3    H271297   3.154   0.619  15.869  1.5842  1.3089  0.3031
16628TIP3   OH271298   4.472   5.486   3.327 -0.3308 -0.2356  0.6858
16628TIP3    H171299   4.538   5.548   3.359 -2.1835  1.8262  0.7952
16628TIP3    H271300   4.462   5.423   3.398  2.0696 -1.1558  0.3153
16629TIP3   OH271301   5.915   0.302  12.803 -0.0671 -0.6714  0.5366
16629TIP3    H171302   5.936   0.210  12.819 -1.0364 -0.5963  2.5929
16629TIP3    H271303   5.928   0.314  12.709  0.7178 -2.7236  0.3306
16630TIP3   OH271304   0.822   4.575  11.562  0.5153  0.0607  0.7998
16630TIP3    H171305   0.769   4.563  11.484  0.3538 -0.7840  1.0262
16630TIP3    H271306   0.912   4.583  11.530  0.4643 -0.4145  0.5310
16631TIP3   OH271307   3.801   4.799   3.473  0.1098  0.8136  0.3607
16631TIP3    H171308   3.876   4.762   3.426  0.1570 -1.5139  2.1244
16631TIP3    H271309   3.810   4.894   3.461  1.8166  0.4678 -1.6775
16632TIP3   OH271310   4.903   4.985   3.069  0.1917  0.3969 -0.4568
16632TIP3    H171311   4.838   4.995   3.138 -0.9349 -0.7583 -1.2983
16632TIP3    H271312   4.936   4.895   3.081  1.5257  0.9023 -0.1556
16633TIP3   OH271313   0.182   3.570  16.861  0.5567  0.1149  0.3083
16633TIP3    H171314   0.219   3.482  16.854  0.6006  0.0539  1.1835
16633TIP3    H271315   0.102   3.558  16.911  0.6020  0.5845  0.4966
16634TIP3   OH271316   5.997   3.257   6.297 -0.2515  0.2689  0.0631
16634TIP3    H171317   6.011   3.340   6.251  0.7956 -0.2477 -0.5872
16634TIP3    H271318   6.008   3.280   6.390  0.3197  0.8091 -0.1280
16635TIP3   OH271319   0.187   3.480   1.680  0.7907 -0.4589  0.0623
16635TIP3    H171320   0.192   3.460   1.773  2.1387  0.9939  0.3456
16635TIP3    H271321   0.171   3.574   1.677  0.5113 -0.5280 -1.1899
16636TIP3   OH271322   3.305   1.335   3.941  0.0772 -0.3737 -0.1490
16636TIP3    H171323   3.360   1.340   4.019  0.4720 -0.3228 -0.4256
16636TIP3    H271324   3.239   1.270   3.963 -1.8033  1.9108  1.4444
16637TIP3   OH271325   4.202   3.483  15.368 -0.5144 -0.2733  0.1251
16637TIP3    H171326   4.294   3.478  15.393 -0.4326 -1.0375 -0.3064
16637TIP3    H271327   4.185   3.401  15.322 -1.5689 -0.4048  0.7090
16638TIP3   OH271328   1.773   2.305   0.329 -0.7381  0.2945 -0.0168
16638TIP3    H171329   1.730   2.229   0.289  0.8541 -0.8809  0.3775
16638TIP3    H271330   1.818   2.269   0.405 -2.1854  2.1580  1.8052
16639TIP3   OH271331   0.660   6.363   3.964 -0.9105 -0.1661  0.4774
16639TIP3    H171332   0.598   6.292   3.949  0.4239 -1.2414 -0.1565
16639TIP3    H271333   0.664   6.411   3.881 -3.2993  1.9780  1.4528
16640TIP3   OH271334   2.695   3.462  11.151 -0.5537 -0.2913 -0.4104
16640TIP3    H171335   2.783   3.466  11.115 -0.0115  0.0055  0.8888
16640TIP3    H271336   2.708   3.439  11.243 -1.6460  2.1132  0.4164
16641TIP3   OH271337   0.626   0.443   4.573  0.0956  0.5648 -0.2025
16641TIP3    H171338   0.626   0.538   4.588 -1.0443  1.1524 -3.1617
16641TIP3    H271339   0.562   0.409   4.635 -1.0595  2.0499 -0.5301
16642TIP3   OH271340   6.393   2.190  14.293  0.1914  1.1039  0.6153
16642TIP3    H171341   6.302   2.216  14.306 -0.9884 -2.3903  0.3347
16642TIP3    H271342   6.435   2.207  14.378 -1.3249  0.6221  1.4976
16643TIP3   OH271343   5.973   1.743  11.817 -0.1235  0.4297  0.5398
16643TIP3    H171344   6.048   1.685  11.820 -1.0134 -0.7760  0.2604
16643TIP3    H271345   5.988   1.799  11.741  0.1083 -0.3356  0.0150
16644TIP3   OH271346   3.835   0.294  11.191  0.1909  0.5125  0.0275
16644TIP3    H171347   3.894   0.349  11.141 -0.2621 -0.2850 -1.4605
16644TIP3    H271348   3.892   0.232  11.237  0.5939  0.9196  0.0778
16645TIP3   OH271349   1.523   2.300  11.853  1.2278 -0.3971 -0.5147
16645TIP3    H171350   1.564   2.347  11.926 -0.3880  2.0451 -1.0658
16645TIP3    H271351   1.526   2.361  11.780 -1.8496 -0.7131 -1.0198
16646TIP3   OH271352   3.283   5.507  14.369  0.0754 -0.5304  0.2467
16646TIP3    H171353   3.192   5.506  14.342  0.5565 -0.4085 -1.5017
16646TIP3    H271354   3.323   5.435  14.320  1.1240  0.0657  0.1996
16647TIP3   OH271355   3.737   2.128   0.312 -0.1300 -0.1305  0.3912
16647TIP3    H171356   3.729   2.183   0.390  1.2674  2.8034 -1.4155
16647TIP3    H271357   3.831   2.125   0.294 -0.5437  0.9587 -2.2766
16648TIP3   OH271358   3.822   3.393  14.336 -0.2509 -0.5218 -0.4002
16648TIP3    H171359   3.916   3.390  14.352 -0.2168 -1.0285 -0.6968
16648TIP3    H271360   3.785   3.431  14.416  0.3830  1.5676 -1.0163
16649TIP3   OH271361   0.495   5.675  15.772 -0.0428  0.7020 -0.4993
16649TIP3    H171362   0.497   5.585  15.802 -0.2973  0.8325 -0.0793
16649TIP3    H271363   0.480   5.727  15.851 -1.2836  1.0116 -0.8976
16650TIP3   OH271364   2.738   4.800  11.009 -0.3694  0.0593  0.5196
16650TIP3    H171365   2.697   4.715  11.025 -0.4472 -0.6906 -2.9292
16650TIP3    H271366   2.830   4.787  11.033 -0.2977 -1.1674 -0.3309
16651TIP3   OH271367   4.299   4.221  16.347  0.0208 -0.2409 -0.1756
16651TIP3    H171368   4.353   4.224  16.268  1.2404  1.7920  0.6494
16651TIP3    H271369   4.361   4.235  16.419 -1.5014  2.0284  0.8256
16652TIP3   OH271370   2.271   2.757   4.209  0.4480 -0.0983 -0.3113
16652TIP3    H171371   2.225   2.677   4.235  1.8642 -0.8334  0.0565
16652TIP3    H271372   2.204   2.825   4.210 -0.5214 -1.0337  0.6637
16653TIP3   OH271373   3.520   0.265  12.765 -0.0790 -0.0607  0.7676
16653TIP3    H171374   3.464   0.252  12.841  1.7556 -1.1926  2.0232
16653TIP3    H271375   3.557   0.352  12.776 -0.9421  0.3656  0.3621
16654TIP3   OH271376   3.166   5.365   0.039  0.3363 -0.0605  0.0074
16654TIP3    H171377   3.111   5.363  -0.039  1.2846  1.1024 -0.7256
16654TIP3    H271378   3.128   5.434   0.094  0.9282  0.6365 -0.4313
16655TIP3   OH271379   4.238   1.305  11.793  0.7114 -0.0931  0.2904
16655TIP3    H171380   4.179   1.365  11.838 -0.3085 -1.4711  0.8625
16655TIP3    H271381   4.238   1.226  11.847 -0.4008 -1.7400 -1.9634
16656TIP3   OH271382   4.883   6.079   6.522  0.0602  0.5031  0.1743
16656TIP3    H171383   4.822   6.152   6.521  1.5273  1.7615 -0.6524
16656TIP3    H271384   4.963   6.115   6.560  1.0530 -0.4618 -0.9271
16657TIP3   OH271385   3.411   2.582   5.124 -0.1063 -1.1527 -0.3063
16657TIP3    H171386   3.373   2.509   5.173 -0.4221 -0.7959 -0.0176
16657TIP3    H271387   3.445   2.641   5.191 -1.7836  0.0269 -0.4488
16658TIP3   OH271388   1.142   3.954  10.890 -0.3582 -0.2460  0.3804
16658TIP3    H171389   1.141   3.926  10.798  0.2356  1.5314 -0.1958
16658TIP3    H271390   1.063   4.007  10.900 -1.2149 -1.6126  1.3435
16659TIP3   OH271391   6.355   1.623   2.010 -0.1800  0.0344  0.2367
16659TIP3    H171392   6.287   1.620   1.942  0.4700 -2.8771 -0.4267
16659TIP3    H271393   6.311   1.662   2.086 -1.7491  0.7638 -0.9710
16660TIP3   OH271394   3.816   6.268   4.323 -0.0543 -0.1376 -0.0038
16660TIP3    H171395   3.724   6.242   4.319  0.3514 -1.5775 -0.9282
16660TIP3    H271396   3.862   6.189   4.353  0.8647  0.6208  0.6554
16661TIP3   OH271397   1.641   4.182  17.013  0.3034 -0.3272  0.1048
16661TIP3    H171398   1.604   4.199  17.099 -2.3992 -0.5876 -0.9198
16661TIP3    H271399   1.693   4.102  17.025 -1.8559 -1.6587  1.0702
16662TIP3   OH271400   6.396   2.284  13.264  0.0008  0.1083 -0.9033
16662TIP3    H171401   6.302   2.300  13.256 -0.6581 -2.2416  1.0739
16662TIP3    H271402   6.428   2.356  13.319 -1.0447 -0.1459  0.0740
16663TIP3   OH271403   6.450   4.874  16.372  0.4969  0.2883 -0.3031
16663TIP3    H171404   6.461   4.831  16.457 -0.2836 -0.5105 -0.5882
16663TIP3    H271405   6.473   4.807  16.308  0.3452  0.6494 -0.7403
16664TIP3   OH271406   4.671   0.351  15.296  0.5671  0.1468  0.3534
16664TIP3    H171407   4.658   0.446  15.289  1.4585  0.3825  1.6044
16664TIP3    H271408   4.754   0.335  15.252  0.3470 -0.0930  0.0161
16665TIP3   OH271409   5.087   1.190  13.360 -0.3503  0.5397  0.5913
16665TIP3    H171410   5.017   1.195  13.295  0.0056  0.7147  0.2214
16665TIP3    H271411   5.087   1.098  13.388  0.0558  0.2664 -0.2728
16666TIP3   OH271412   3.849   3.704   1.871 -0.2363  0.2970 -0.4275
16666TIP3    H171413   3.878   3.755   1.796 -0.6112 -0.6302 -1.2269
16666TIP3    H271414   3.926   3.653   1.897  0.0758  1.0805  0.2354
16667TIP3   OH271415   5.803   6.494   3.803 -0.0491  0.3126  0.4061
16667TIP3    H171416   5.726   6.464   3.753  0.1158 -0.3989  0.5686
16667TIP3    H271417   5.819   6.582   3.770 -0.8571  0.4236  0.2736
16668TIP3   OH271418   3.952   6.471  12.894  0.0716  0.3356  0.0483
16668TIP3    H171419   3.931   6.560  12.866  0.7690  0.5360  0.1378
16668TIP3    H271420   3.923   6.415  12.822  0.5676  0.7242 -0.4603
16669TIP3   OH271421   0.447   4.097  13.217  0.4977 -0.3448  0.5340
16669TIP3    H171422   0.369   4.048  13.242  0.4366 -1.0255 -0.8993
16669TIP3    H271423   0.432   4.122  13.126  1.0488  1.3513  0.8592
16670TIP3   OH271424   5.438   6.312  13.415  0.0190  0.3079 -0.2463
16670TIP3    H171425   5.347   6.323  13.389 -0.2306  2.1693  1.1997
16670TIP3    H271426   5.488   6.341  13.338 -0.6696  1.9101 -0.1413
16671TIP3   OH271427   6.692   0.868  17.016 -0.3361  0.1186 -0.9410
16671TIP3    H171428   6.649   0.858  16.930  1.3506 -0.1488 -1.8044
16671TIP3    H271429   6.665   0.790  17.065 -1.3092  0.2665 -1.2118
16672TIP3   OH271430   1.188   3.707   2.592  0.1563  0.3305 -0.2868
16672TIP3    H171431   1.099   3.676   2.603  0.2620 -0.3599 -1.2000
16672TIP3    H271432   1.231   3.691   2.676 -0.4298  0.1726 -0.0172
16673TIP3   OH271433   1.805   6.415   0.646 -0.4030  0.5806 -0.4775
16673TIP3    H171434   1.826   6.420   0.739 -2.8495  0.4101  0.1321
16673TIP3    H271435   1.771   6.501   0.624  0.4456  0.7143 -1.3092
16674TIP3   OH271436   1.486   2.357   2.901 -0.3640  0.0746  0.6996
16674TIP3    H171437   1.562   2.338   2.957  0.6624 -0.5230 -0.8285
16674TIP3    H271438   1.510   2.322   2.815 -0.0897  4.5667 -1.3397
16675TIP3   OH271439   3.053   5.219   0.520  0.2989 -0.2494  0.2086
16675TIP3    H171440   3.108   5.297   0.512  1.7627 -1.1264  1.2967
16675TIP3    H271441   2.963   5.253   0.513  0.9063  1.4598  0.1482
16676TIP3   OH271442   5.288   2.985   2.903  0.0903  0.5196 -0.0950
16676TIP3    H171443   5.303   3.058   2.964  0.9092 -0.3078  0.7281
16676TIP3    H271444   5.271   2.910   2.960  1.0528 -0.3168 -0.8839
16677TIP3   OH271445   4.796   3.018   0.115  0.1990  0.0626 -0.0942
16677TIP3    H171446   4.793   3.022   0.020  0.1205 -0.4076 -0.1144
16677TIP3    H271447   4.831   3.103   0.142  0.9663 -0.0907 -0.5827
16678TIP3   OH271448   0.954   3.215   6.185  0.4599 -0.4803 -0.3709
16678TIP3    H171449   1.020   3.249   6.125  1.0229  1.1872  1.0998
16678TIP3    H271450   0.887   3.283   6.188 -0.0012 -0.9504  0.1808
16679TIP3   OH271451   3.017   3.444  11.844 -0.1080  0.3186 -0.4231
16679TIP3    H171452   3.043   3.536  11.846  2.3968 -0.2363 -2.0143
16679TIP3    H271453   3.100   3.396  11.844 -1.3141 -1.9047 -0.8984
16680TIP3   OH271454   4.315   5.276  13.581  0.0390  0.2537  0.6886
16680TIP3    H171455   4.366   5.357  13.583 -1.3395  1.1324  2.5446
16680TIP3    H271456   4.365   5.215  13.635  0.3714  0.3087  0.4477
16681TIP3   OH271457   0.575   3.551  13.340  0.2058 -0.6202 -0.4770
16681TIP3    H171458   0.647   3.605  13.307  0.6174 -0.6717  0.3223
16681TIP3    H271459   0.496   3.589  13.300  0.3505  1.3003  0.9500
16682TIP3   OH271460   1.461   2.739   0.113 -0.7855 -0.6119  0.1799
16682TIP3    H171461   1.516   2.669   0.147  0.5051  0.9710  1.5011
16682TIP3    H271462   1.521   2.811   0.095 -2.1867  0.5145 -0.1929
16683TIP3   OH271463   2.440   3.255   0.832  0.1247  0.1701  0.0762
16683TIP3    H171464   2.456   3.161   0.827 -1.3889 -0.3141  2.7402
16683TIP3    H271465   2.527   3.295   0.832  0.7820 -1.1646 -1.2463
16684TIP3   OH271466   4.502   1.561   1.209  0.7368 -0.3095 -0.4977
16684TIP3    H171467   4.566   1.624   1.174 -0.5952  1.4447  0.0859
16684TIP3    H271468   4.455   1.529   1.132  0.7316  0.1893 -0.7032
16685TIP3   OH271469   5.450   3.408  11.047 -0.1210  0.2585 -0.3422
16685TIP3    H171470   5.418   3.379  10.961 -0.4508 -0.5391  0.0357
16685TIP3    H271471   5.434   3.333  11.104  2.4681 -0.2121 -0.1346
16686TIP3   OH271472   6.451   3.625  17.099  0.1662  0.0935  0.5492
16686TIP3    H171473   6.361   3.594  17.111  0.1991 -0.6966 -1.0265
16686TIP3    H271474   6.501   3.545  17.081  0.6799  0.7792 -1.2563
16687TIP3   OH271475   6.247   4.660  15.626  0.0087 -0.7333 -0.5679
16687TIP3    H171476   6.244   4.575  15.582  0.0503 -0.2231 -1.5758
16687TIP3    H271477   6.341   4.674  15.641  0.1614 -0.0992 -1.9612
16688TIP3   OH271478   1.587   1.586  10.634 -0.7561  0.7391  0.4687
16688TIP3    H171479   1.627   1.671  10.614  0.6221  0.2660  1.0593
16688TIP3    H271480   1.567   1.591  10.728 -1.6706  0.7872  0.2795
16689TIP3   OH271481   2.226   3.454  13.130 -0.0673  0.1738 -0.4069
16689TIP3    H171482   2.282   3.380  13.105 -0.4940  0.0383 -0.9798
16689TIP3    H271483   2.142   3.414  13.151 -0.2777  0.4867 -0.6469
16690TIP3   OH271484   4.423   2.216  14.712 -0.0699 -0.2384  0.2570
16690TIP3    H171485   4.392   2.127  14.727  0.0537 -0.5639 -1.2748
16690TIP3    H271486   4.343   2.268  14.702 -0.1825 -0.7324 -1.7782
16691TIP3   OH271487   4.684   0.332  10.822 -0.7641 -0.0804  0.5471
16691TIP3    H171488   4.759   0.345  10.880 -0.4606 -0.5201  0.2678
16691TIP3    H271489   4.629   0.408  10.835  1.2318  1.8769 -1.5103
16692TIP3   OH271490   6.488   1.299  11.005 -0.1185  0.1094  0.4461
16692TIP3    H171491   6.416   1.342  10.958 -1.3624  2.1498  3.8147
16692TIP3    H271492   6.560   1.361  11.000 -0.2698  0.3563  1.1455
16693TIP3   OH271493   5.593   4.461  11.124 -0.5056  0.0479  0.2501
16693TIP3    H171494   5.504   4.460  11.086  0.2004 -1.9665 -1.6118
16693TIP3    H271495   5.647   4.499  11.055  0.2588  0.0545  0.8496
16694TIP3   OH271496   5.935   0.463  15.820  0.4386 -0.5316 -0.0781
16694TIP3    H171497   6.017   0.415  15.808  0.5428  0.1637 -3.0043
16694TIP3    H271498   5.872   0.416  15.764 -0.2655  0.8667 -0.5005
16695TIP3   OH271499   0.537   3.535   5.698  0.0696  0.2240 -0.2684
16695TIP3    H171500   0.615   3.480   5.697 -1.8293 -2.6997  0.1529
16695TIP3    H271501   0.464   3.475   5.680 -1.9258  3.2244 -3.7219
16696TIP3   OH271502   1.368   6.349  13.502  0.1539  0.9349 -0.1246
16696TIP3    H171503   1.412   6.415  13.556 -0.4727  1.5518 -0.3551
16696TIP3    H271504   1.284   6.388  13.480 -0.5688 -0.2544  0.3804
16697TIP3   OH271505   3.649   1.551  16.130  0.1910 -0.0201  0.3444
16697TIP3    H171506   3.662   1.490  16.057  0.2770  0.9665 -0.4962
16697TIP3    H271507   3.717   1.528  16.193 -0.0350 -1.0428  0.2261
16698TIP3   OH271508   2.208   2.705  12.573 -0.0090 -0.0586 -0.3543
16698TIP3    H171509   2.144   2.634  12.562 -1.0849  0.8499 -0.2287
16698TIP3    H271510   2.195   2.734  12.663 -0.5279  1.1503 -0.7950
16699TIP3   OH271511   5.838   4.717  14.885  0.1800  0.2202  0.4531
16699TIP3    H171512   5.896   4.791  14.899 -0.9408  1.2597 -0.2154
16699TIP3    H271513   5.896   4.645  14.858  1.2476  0.9037  0.8712
16700TIP3   OH271514   6.154   6.521  11.754  0.4517 -0.2917 -0.4919
16700TIP3    H171515   6.204   6.543  11.832  1.0619 -1.1715 -0.6264
16700TIP3    H271516   6.130   6.429  11.765 -1.9660  0.3289  0.0196
16701TIP3   OH271517   5.680   5.819   6.239 -0.5010  0.1352  0.5253
16701TIP3    H171518   5.626   5.762   6.294  1.2538 -1.8296  0.3799
16701TIP3    H271519   5.638   5.816   6.153 -1.6040  0.8203  1.0164
16702TIP3   OH271520   4.457   0.626   1.891 -0.8730  0.0766 -0.2050
16702TIP3    H171521   4.507   0.591   1.817 -0.1769  1.1798 -0.2703
16702TIP3    H271522   4.372   0.582   1.886 -0.5451 -0.4615 -1.1708
16703TIP3   OH271523   1.017   4.903  12.487  0.5140 -0.7047 -0.0311
16703TIP3    H171524   1.095   4.936  12.532  0.9290 -1.3742 -0.2416
16703TIP3    H271525   0.958   4.978  12.483  1.4156 -0.0041 -0.4801
16704TIP3   OH271526   2.722   1.805   4.458  0.5317 -0.0036 -0.3787
16704TIP3    H171527   2.799   1.861   4.469  0.4704 -0.1444  0.9417
16704TIP3    H271528   2.670   1.820   4.537 -1.0373  0.4405 -1.4758
16705TIP3   OH271529   5.796   1.320  15.816  0.3909 -0.1348  0.5489
16705TIP3    H171530   5.719   1.345  15.764  1.3972  0.3449 -0.7664
16705TIP3    H271531   5.799   1.225  15.810 -1.8769 -0.5182  3.2814
16706TIP3   OH271532   2.605   6.057  15.019  0.1362 -0.5626 -0.1747
16706TIP3    H171533   2.554   6.135  15.000  0.1167 -0.6481 -0.4742
16706TIP3    H271534   2.637   6.027  14.934  0.5680 -0.5908 -0.0045
16707TIP3   OH271535   2.602   2.866   4.706  0.0847 -0.4822  0.0370
16707TIP3    H171536   2.568   2.804   4.641  1.2853 -0.4980 -0.6110
16707TIP3    H271537   2.584   2.952   4.668  1.8904 -0.4973 -0.9640
16708TIP3   OH271538   0.895   4.264   5.455  0.1352  0.0720  0.1309
16708TIP3    H171539   0.865   4.349   5.420 -1.6972 -0.0852  1.2062
16708TIP3    H271540   0.889   4.205   5.380  3.4118  1.1915 -1.2355
16709TIP3   OH271541   1.839   5.064  15.597  0.1950  0.2856  0.0999
16709TIP3    H171542   1.883   5.091  15.516  1.2157 -0.0159  0.5388
16709TIP3    H271543   1.909   5.028  15.651 -0.4128  0.8204  1.2678
16710TIP3   OH271544   2.657   4.584  13.458  0.3829 -0.1186 -0.2300
16710TIP3    H171545   2.738   4.602  13.410  0.0387  0.8916 -0.4367
16710TIP3    H271546   2.598   4.546  13.393 -0.2829  1.7727 -0.7906
16711TIP3   OH271547   2.154   6.767   2.251 -0.5757 -0.2635  0.7264
16711TIP3    H171548   2.216   6.835   2.224  1.9535 -2.6844 -0.1110
16711TIP3    H271549   2.076   6.783   2.197  0.5833  0.9403 -0.7049
16712TIP3   OH271550   4.238   4.187  12.631 -0.2073  0.2433 -0.4478
16712TIP3    H171551   4.311   4.168  12.573  0.8183 -2.2349  1.4564
16712TIP3    H271552   4.275   4.246  12.697 -0.2585  0.0300 -0.2237
16713TIP3   OH271553   5.828   3.021  12.790 -0.3733 -0.0645 -0.7140
16713TIP3    H171554   5.919   3.052  12.792 -0.2694 -0.3472 -0.9621
16713TIP3    H271555   5.830   2.945  12.732 -0.7501 -0.1362 -0.6349
16714TIP3   OH271556   1.558   2.736  14.155 -0.4451  0.8565 -0.0322
16714TIP3    H171557   1.509   2.795  14.097  1.1877  0.5219 -1.8723
16714TIP3    H271558   1.640   2.720  14.108  0.7757  0.1650  2.2027
16715TIP3   OH271559   4.357   4.874  14.914  0.2292  0.0144  0.5127
16715TIP3    H171560   4.295   4.838  14.976  1.2859 -0.5519  1.2690
16715TIP3    H271561   4.335   4.832  14.830  1.3205 -2.3632  1.3218
16716TIP3   OH271562   0.868   0.186   1.326  0.4644  0.1049 -1.0635
16716TIP3    H171563   0.912   0.266   1.298  0.4381  0.3789 -0.3407
16716TIP3    H271564   0.808   0.214   1.395 -1.3678 -0.1504 -2.4608
16717TIP3   OH271565   3.612   6.208  11.674  0.3433  0.0728  0.2532
16717TIP3    H171566   3.634   6.224  11.766 -0.2056 -2.1371  0.8403
16717TIP3    H271567   3.634   6.289  11.629  1.5621  0.8712  2.1710
16718TIP3   OH271568   0.647   3.256   2.124 -0.2587 -0.1756 -0.3592
16718TIP3    H171569   0.572   3.309   2.095  1.2748  2.0542 -0.5572
16718TIP3    H271570   0.661   3.282   2.215 -0.5732 -1.6670  0.1383
16719TIP3   OH271571   3.497   1.093  11.934 -0.3578  0.6339  0.8995
16719TIP3    H171572   3.485   1.117  12.026  1.4988  0.5476  1.2138
16719TIP3    H271573   3.420   1.041  11.912 -0.2364 -0.4354  2.8052
16720TIP3   OH271574   3.335   5.952   3.881 -0.0949  0.0731 -0.2932
16720TIP3    H171575   3.358   5.996   3.963 -0.0471  1.5015 -1.0314
16720TIP3    H271576   3.403   5.886   3.870  0.0539  0.0449  0.6732
16721TIP3   OH271577   2.272   1.124  11.675  0.5969  0.2414 -0.9840
16721TIP3    H171578   2.213   1.101  11.748  0.6742  1.9985 -0.3334
16721TIP3    H271579   2.356   1.084  11.699  1.0302  2.0082  0.6719
16722TIP3   OH271580   3.094   2.335  12.229 -0.0131 -0.3893  0.1379
16722TIP3    H171581   3.160   2.391  12.188 -2.2667  0.9797 -1.9106
16722TIP3    H271582   3.084   2.371  12.318  1.4391 -0.1629  0.2268
16723TIP3   OH271583   4.970   3.722   1.808  0.1691  0.5070  0.6799
16723TIP3    H171584   4.959   3.635   1.845 -1.0110  0.2661 -0.1559
16723TIP3    H271585   4.983   3.780   1.883  2.7403 -0.5941  1.1620
16724TIP3   OH271586   5.456   3.675  14.141 -0.5167  0.1006  0.3185
16724TIP3    H171587   5.384   3.695  14.081  0.7117  0.6507 -1.0390
16724TIP3    H271588   5.448   3.581  14.158 -0.7187 -0.1314 -0.9749
16725TIP3   OH271589   3.125   6.603  11.966 -0.2931  0.0410  0.0629
16725TIP3    H171590   3.145   6.675  11.907 -0.7436 -0.1282 -0.3038
16725TIP3    H271591   3.058   6.552  11.920  0.5670 -1.0459 -0.0278
16726TIP3   OH271592   5.336   0.648  15.546  0.4104 -0.0719  0.2499
16726TIP3    H171593   5.250   0.617  15.575  1.0318 -0.9568  1.1900
16726TIP3    H271594   5.397   0.579  15.571  1.5141  0.8784  0.2689
16727TIP3   OH271595   3.607   1.830  11.689  0.5436  0.7663 -0.3303
16727TIP3    H171596   3.558   1.798  11.613 -1.3400  1.4191  0.5540
16727TIP3    H271597   3.694   1.791  11.679 -0.4376 -1.3168 -1.4102
16728TIP3   OH271598   1.314   6.356   1.998 -0.3022  0.2913 -0.0245
16728TIP3    H171599   1.406   6.341   1.975 -0.4832  1.3040 -1.5768
16728TIP3    H271600   1.296   6.294   2.069  2.1885  1.6173  1.8882
16729TIP3   OH271601   1.355   2.467  15.411  0.5892  0.4575 -0.3245
16729TIP3    H171602   1.356   2.422  15.327  1.3680  1.6247 -0.9851
16729TIP3    H271603   1.427   2.530  15.405  1.5364 -0.3249  1.7272
16730TIP3   OH271604   4.439   5.153   2.186  0.2011 -0.4176 -0.0998
16730TIP3    H171605   4.355   5.196   2.168  0.0809 -0.2293  0.8420
16730TIP3    H271606   4.491   5.167   2.107 -0.0461  0.9649 -0.0405
16731TIP3   OH271607   0.596   2.959   5.271  0.2030  0.8541 -0.5072
16731TIP3    H171608   0.643   2.979   5.190 -1.5813  0.0222 -1.8249
16731TIP3    H271609   0.529   2.896   5.244  0.4851 -0.6049  1.9219
16732TIP3   OH271610   3.603   1.560   3.716  0.0327  0.3348 -0.2967
16732TIP3    H171611   3.586   1.520   3.631  0.5318 -0.3268 -0.0994
16732TIP3    H271612   3.651   1.493   3.765 -0.0821  0.7735  0.4416
16733TIP3   OH271613   5.139   6.386  15.435 -0.0140 -0.2630  0.1340
16733TIP3    H171614   5.104   6.328  15.368 -1.4996  0.2160  0.4493
16733TIP3    H271615   5.201   6.332  15.484 -0.7134 -1.3424 -0.1281
16734TIP3   OH271616   4.698   6.727   1.355 -0.1508 -0.1747  0.6564
16734TIP3    H171617   4.693   6.795   1.288 -1.3326  0.3315  1.2278
16734TIP3    H271618   4.706   6.775   1.438 -1.0777 -0.7163  1.0797
16735TIP3   OH271619   1.179   0.804   5.191  0.1241 -0.1592  0.0374
16735TIP3    H171620   1.098   0.847   5.215 -0.2218 -2.2122  3.1204
16735TIP3    H271621   1.219   0.778   5.275  2.5242 -1.7366 -1.4472
16736TIP3   OH271622   1.906   6.540   1.954 -0.0002 -0.1412  0.4274
16736TIP3    H171623   1.934   6.449   1.943 -0.3430 -0.0028 -2.0704
16736TIP3    H271624   1.854   6.559   1.876 -0.3706  2.0556  1.1467
16737TIP3   OH271625   5.496   1.108   4.794  0.0419 -0.5684 -0.2536
16737TIP3    H171626   5.431   1.042   4.768  0.6455 -1.1030 -0.4511
16737TIP3    H271627   5.576   1.057   4.809  0.8562  0.2519 -1.6039
16738TIP3   OH271628   6.664   4.206   0.866  0.4104  0.0669 -0.0049
16738TIP3    H171629   6.705   4.191   0.951  2.7150  0.8719 -0.9000
16738TIP3    H271630   6.589   4.263   0.886  0.7407  0.0233  1.5081
16739TIP3   OH271631   2.928   1.445   0.377 -0.7460  0.3552  0.0170
16739TIP3    H171632   2.895   1.497   0.451 -0.1768 -0.3773  0.8192
16739TIP3    H271633   3.022   1.436   0.396 -1.0800 -2.3063  0.7961
16740TIP3   OH271634   1.287   1.803  14.856 -0.1061 -0.3281  0.3926
16740TIP3    H171635   1.320   1.856  14.928 -1.0165  3.3823 -1.6378
16740TIP3    H271636   1.198   1.780  14.882 -0.9403  2.1754  0.0469
16741TIP3   OH271637   0.256   0.707   6.019 -0.0454  0.2959 -0.3789
16741TIP3    H171638   0.312   0.785   6.023  1.8202 -1.0065  0.2687
16741TIP3    H271639   0.251   0.676   6.109  0.2978 -1.0302 -0.7941
16742TIP3   OH271640   5.909   0.611  12.590  0.1115 -0.4687 -0.3633
16742TIP3    H171641   5.944   0.700  12.595 -0.5147  0.0712 -3.4821
16742TIP3    H271642   5.834   0.611  12.650 -0.8189  1.6191 -1.4475
16743TIP3   OH271643   4.203   2.975   5.984 -0.3212  0.2215 -0.5896
16743TIP3    H171644   4.151   2.977   6.064 -1.0074 -1.8973 -0.9133
16743TIP3    H271645   4.217   3.067   5.961 -1.0124  0.8506  1.3683
16744TIP3   OH271646   4.421   4.707  16.967 -0.0657  0.0546  0.3130
16744TIP3    H171647   4.411   4.792  17.009  0.5491  0.1682  0.2306
16744TIP3    H271648   4.358   4.708  16.895  0.8438  0.9383 -0.4894
16745TIP3   OH271649   5.004   5.995  15.765 -0.4846  0.4928 -0.3821
16745TIP3    H171650   5.060   6.043  15.826 -0.7956  1.6892 -1.0279
16745TIP3    H271651   5.064   5.957  15.701 -0.2031 -0.3547  0.3547
16746TIP3   OH271652   4.370   4.129  13.350 -0.3332 -0.0871 -0.9134
16746TIP3    H171653   4.437   4.197  13.358  0.3544 -0.6546 -1.7149
16746TIP3    H271654   4.412   4.058  13.302 -0.2962 -2.0458  1.7625
16747TIP3   OH271655   1.234   2.320   0.140  0.4937  0.5177  0.3083
16747TIP3    H171656   1.277   2.385   0.195  1.1650 -1.0093  1.7055
16747TIP3    H271657   1.142   2.325   0.165  0.6974  0.2694  1.1533
16748TIP3   OH271658   5.316   6.046   2.053  0.1508 -0.2534 -0.2912
16748TIP3    H171659   5.329   5.951   2.054  0.7656 -0.1818 -0.7187
16748TIP3    H271660   5.400   6.082   2.081 -0.4464  0.1486  1.0352
16749TIP3   OH271661   4.138   6.182  11.683  0.5044  0.1225  0.8382
16749TIP3    H171662   4.085   6.247  11.730 -0.1808  2.2633 -2.5577
16749TIP3    H271663   4.074   6.117  11.653  0.7897 -0.6683  1.8835
16750TIP3   OH271664   0.251   0.803  12.002  0.6137  0.1175 -0.0004
16750TIP3    H171665   0.301   0.721  11.989 -1.3874 -1.0509 -0.8090
16750TIP3    H271666   0.315   0.865  12.036  1.8353 -2.2937  2.4374
16751TIP3   OH271667   2.636   5.765   3.996  0.2179 -0.3050 -0.3975
16751TIP3    H171668   2.550   5.791   3.964  0.9934 -0.2455 -2.6374
16751TIP3    H271669   2.676   5.846   4.029  0.4823  0.2828 -2.0717
16752TIP3   OH271670   2.815   3.077   3.635  0.3124  0.0016  0.4730
16752TIP3    H171671   2.900   3.039   3.611  0.3976 -1.9220  3.3178
16752TIP3    H271672   2.761   3.002   3.661 -1.9393  1.2792 -0.2703
16753TIP3   OH271673   3.529   2.815   2.405 -0.0137  0.3089  0.3689
16753TIP3    H171674   3.598   2.825   2.471 -0.5414 -0.9114  1.1417
16753TIP3    H271675   3.472   2.746   2.440 -0.5523 -0.0684 -1.1609
16754TIP3   OH271676   4.964   5.311  12.482  0.2010  0.1176 -0.0965
16754TIP3    H171677   4.946   5.248  12.413  0.2060 -0.5060  0.4660
16754TIP3    H271678   5.016   5.379  12.439  1.6088 -1.0753 -0.3357
16755TIP3   OH271679   0.915   4.181   3.273  0.0704 -0.2154  0.1320
16755TIP3    H171680   0.851   4.159   3.206 -1.9949 -1.5123  2.3902
16755TIP3    H271681   0.876   4.255   3.320  1.6970  0.9769 -0.3014
16756TIP3   OH271682   5.946   5.976   3.793  0.5142 -0.8383  0.0111
16756TIP3    H171683   5.922   5.893   3.835 -0.7805 -0.3640  0.2589
16756TIP3    H271684   6.011   5.952   3.728  2.1435 -1.7017  1.8614
16757TIP3   OH271685   1.488   2.044   2.209  0.4588 -0.3235 -0.3047
16757TIP3    H171686   1.525   2.085   2.132  2.9820 -0.7901  0.5730
16757TIP3    H271687   1.561   2.036   2.270 -1.5472  0.6160  2.4368
16758TIP3   OH271688   0.650   6.308  13.543  0.1299  0.3381 -0.4432
16758TIP3    H171689   0.569   6.324  13.591  0.5067 -1.4270  0.8778
16758TIP3    H271690   0.714   6.365  13.584 -0.0981  0.6530 -0.5184
16759TIP3   OH271691   2.991   0.044   2.290 -0.0178  0.3453  0.5162
16759TIP3    H171692   2.977   0.139   2.288 -0.8034  0.2811  1.8276
16759TIP3    H271693   2.997   0.019   2.198 -0.2153  1.6126  0.1369
16760TIP3   OH271694   6.588   1.099  11.247  0.2649 -0.5071 -0.6148
16760TIP3    H171695   6.543   1.063  11.323  1.5661 -1.0519 -0.0597
16760TIP3    H271696   6.525   1.158  11.207 -0.7644 -0.8997  0.3675
16761TIP3   OH271697   0.760   5.983   3.419 -0.2638 -0.4851  0.3316
16761TIP3    H171698   0.714   5.916   3.469 -0.8019  0.2143  0.8108
16761TIP3    H271699   0.711   6.064   3.437 -1.0007 -0.3316 -1.9825
16762TIP3   OH271700   0.649   0.661   1.171  0.0707  0.5630 -0.2861
16762TIP3    H171701   0.656   0.640   1.264 -0.4579  1.0927 -0.1258
16762TIP3    H271702   0.581   0.727   1.166 -0.1949  0.2355 -1.1022
16763TIP3   OH271703   0.467   4.810  12.083 -0.4465  0.5133 -0.3468
16763TIP3    H171704   0.488   4.720  12.110 -0.4507  0.2189 -1.3047
16763TIP3    H271705   0.383   4.802  12.038 -0.5767  1.0464 -0.1988
16764TIP3   OH271706   4.534   3.262  11.788  0.0018  0.3086  0.7045
16764TIP3    H171707   4.584   3.187  11.822 -1.6908 -0.5127  1.5074
16764TIP3    H271708   4.486   3.227  11.713  0.8262  1.1606 -0.2415
16765TIP3   OH271709   4.781   5.798  15.608 -0.7831  0.0385  0.3440
16765TIP3    H171710   4.690   5.787  15.634 -1.6544  3.2954 -0.7342
16765TIP3    H271711   4.824   5.835  15.685 -0.8977  0.3382  0.2685
16766TIP3   OH271712   4.801   3.072  11.700  0.0308  0.1569 -0.3926
16766TIP3    H171713   4.778   3.033  11.615  0.1989 -1.4907  0.2751
16766TIP3    H271714   4.827   3.161  11.679  0.2477 -0.2688 -2.1144
16767TIP3   OH271715   5.944   5.668   3.740  0.0669 -0.3057  0.5825
16767TIP3    H171716   5.871   5.645   3.798  0.3004 -0.3510  0.8579
16767TIP3    H271717   5.927   5.620   3.659 -0.1897 -0.3443  0.6583
16768TIP3   OH271718   5.687   2.189  14.446  0.2795  0.3851 -0.6002
16768TIP3    H171719   5.647   2.225  14.524  0.9795  0.3907 -0.2405
16768TIP3    H271720   5.749   2.124  14.478 -0.9049 -1.1317 -1.2231
16769TIP3   OH271721   0.055   4.952  10.211 -0.2929 -0.1755 -0.3707
16769TIP3    H171722   0.125   4.992  10.263 -0.8209  0.9082 -0.4744
16769TIP3    H271723  -0.026   4.980  10.254 -0.7067 -0.1414 -1.1605
16770TIP3   OH271724   5.741   4.432   2.071 -0.1480 -0.1443  0.7669
16770TIP3    H171725   5.723   4.523   2.047  1.7975 -0.1042 -0.8189
16770TIP3    H271726   5.788   4.437   2.154 -1.5314  0.1516  1.5559
16771TIP3   OH271727   1.540   0.881  11.840  0.8928  0.1091  0.1731
16771TIP3    H171728   1.496   0.942  11.780  0.3035 -1.8612 -1.5250
16771TIP3    H271729   1.472   0.817  11.862  1.8804 -0.7817  0.7004
16772TIP3   OH271730   6.667   0.468  14.089 -0.1867  0.2520 -0.1856
16772TIP3    H171731   6.725   0.488  14.016  0.6995  0.3911  0.5262
16772TIP3    H271732   6.641   0.554  14.123 -1.1404  0.1920 -0.7430
16773TIP3   OH271733   6.482   6.695  16.638  0.3390 -0.3033  0.3071
16773TIP3    H171734   6.457   6.622  16.582 -1.8226  3.0594 -3.6836
16773TIP3    H271735   6.577   6.704  16.626  0.4253 -1.6365 -0.1034
16774TIP3   OH271736   4.973   5.254   1.970  0.3551  0.5039  0.3027
16774TIP3    H171737   5.033   5.326   1.989 -1.6450  2.0263  1.2950
16774TIP3    H271738   4.946   5.269   1.880  0.3899  0.6547  0.3169
16775TIP3   OH271739   5.865   4.433   3.106 -0.7592  0.4419  0.4194
16775TIP3    H171740   5.923   4.465   3.175 -0.6570  2.9425 -0.7163
16775TIP3    H271741   5.921   4.377   3.051 -0.2394  0.3699  1.0145
16776TIP3   OH271742   3.081   6.502   0.306  0.1085  0.1331  1.1303
16776TIP3    H171743   3.020   6.567   0.271 -0.4735  0.5434  2.7975
16776TIP3    H271744   3.032   6.420   0.305  0.1940  0.0826  0.7619
16777TIP3   OH271745   1.752   6.254  12.809  0.4169  0.3869 -0.0867
16777TIP3    H171746   1.678   6.195  12.796  0.1996  0.6752 -0.1532
16777TIP3    H271747   1.813   6.231  12.738  1.3203 -1.2482  1.1331
16778TIP3   OH271748   4.481   3.491   6.095  0.3078  0.8199 -0.7773
16778TIP3    H171749   4.411   3.515   6.155  1.2410 -1.1283  1.2281
16778TIP3    H271750   4.557   3.541   6.124  0.9972 -0.7819  0.3471
16779TIP3   OH271751   5.867   1.577   5.437 -0.6728  0.5889  0.3752
16779TIP3    H171752   5.958   1.553   5.424 -0.7017 -0.3418  1.6892
16779TIP3    H271753   5.844   1.540   5.522 -2.3616  0.5672 -0.0461
16780TIP3   OH271754   6.684   6.288  10.759  0.6805 -0.5956  0.4570
16780TIP3    H171755   6.690   6.348  10.685  1.1054  0.7462  1.5327
16780TIP3    H271756   6.658   6.343  10.833 -0.1653 -1.9701  1.2340
16781TIP3   OH271757   0.074   1.030   0.375 -0.4144 -0.1001 -0.0116
16781TIP3    H171758   0.105   0.991   0.457 -1.4831  0.6783  0.8142
16781TIP3    H271759   0.057   0.956   0.317  2.2643 -0.5778 -0.2821
16782TIP3   OH271760   2.495   3.418   2.175 -0.3531  0.2072 -0.0904
16782TIP3    H171761   2.513   3.447   2.086 -0.6393  0.5695 -0.0303
16782TIP3    H271762   2.516   3.493   2.230  0.6069 -0.2775  0.2261
16783TIP3   OH271763   4.078   0.856  17.151 -0.1927 -0.7738  0.0525
16783TIP3    H171764   3.992   0.820  17.172 -0.6868  0.3307  0.0246
16783TIP3    H271765   4.061   0.917  17.078  0.8867 -1.7717 -1.0702
16784TIP3   OH271766   4.624   0.258  14.158  0.5905  0.2889 -0.5220
16784TIP3    H171767   4.687   0.288  14.224 -0.0296  1.7712 -0.5529
16784TIP3    H271768   4.658   0.293  14.076  0.5526 -0.2431 -0.7645
16785TIP3   OH271769   2.387   0.623  10.696 -0.3707  0.1254  0.2365
16785TIP3    H171770   2.462   0.608  10.639 -0.6921  1.1264 -0.4702
16785TIP3    H271771   2.425   0.648  10.780  0.0881 -0.2894  0.1612
16786TIP3   OH271772   1.853   0.922  12.052 -0.3079  0.1593  0.1052
16786TIP3    H171773   1.845   0.852  11.987 -1.0393 -0.1648  0.5130
16786TIP3    H271774   1.762   0.940  12.078 -0.0979  1.0117  0.2720
16787TIP3   OH271775   0.371   0.507   1.589 -0.4458  0.1714  0.0266
16787TIP3    H171776   0.298   0.526   1.531 -0.6685 -0.3043  0.1443
16787TIP3    H271777   0.432   0.456   1.535  0.5840  1.9362 -0.5695
16788TIP3   OH271778   6.475   4.744  16.611  0.4144  0.3932  0.2687
16788TIP3    H171779   6.555   4.729  16.662  0.4886 -1.4402 -0.2992
16788TIP3    H271780   6.404   4.732  16.673  0.5490  1.9610  0.7626
16789TIP3   OH271781   2.451   0.064  12.778 -0.0086 -0.2956  0.6950
16789TIP3    H171782   2.448   0.160  12.785 -1.4786 -0.2029 -0.5560
16789TIP3    H271783   2.369   0.035  12.817 -0.6951 -0.8400 -1.0654
16790TIP3   OH271784   4.507   0.527   4.165  0.0239  0.4730 -0.1029
16790TIP3    H171785   4.585   0.534   4.220  1.2663 -0.5632 -1.6400
16790TIP3    H271786   4.534   0.564   4.081 -0.7841 -0.8045 -0.9667
16791TIP3   OH271787   2.985   1.319  15.423  0.1929 -0.0251  0.5845
16791TIP3    H171788   2.890   1.323  15.429  0.2077 -0.9325  1.7479
16791TIP3    H271789   3.011   1.253  15.488  1.5145 -0.7695 -0.6292
16792TIP3   OH271790   1.342   5.541  15.005  0.4770 -0.0175 -0.3687
16792TIP3    H171791   1.384   5.571  15.085 -0.2499  1.1049 -0.3942
16792TIP3    H271792   1.414   5.531  14.942  0.9122  0.1379  0.0986
16793TIP3   OH271793   5.176   1.206   3.774  0.6756  0.2714  0.5486
16793TIP3    H171794   5.128   1.162   3.704  0.2766  1.6733 -0.0907
16793TIP3    H271795   5.222   1.277   3.731  0.4423  1.1499  1.6954
16794TIP3   OH271796   6.007   0.733  16.669 -0.3275 -0.5884 -0.1872
16794TIP3    H171797   5.916   0.742  16.698  0.1962  0.1399  1.3539
16794TIP3    H271798   6.057   0.781  16.735  1.0421  0.4627 -1.9233
16795TIP3   OH271799   2.627   2.479  11.750  0.3515 -0.3904  0.6080
16795TIP3    H171800   2.693   2.532  11.795  0.8840  0.0725 -0.6584
16795TIP3    H271801   2.552   2.538  11.739  0.8514  0.0538 -0.5791
16796TIP3   OH271802   5.452   6.596  16.000 -0.1848 -0.6544  0.0506
16796TIP3    H171803   5.398   6.525  16.035 -2.3637 -0.5093 -2.7079
16796TIP3    H271804   5.513   6.553  15.940 -1.0100 -0.3063 -1.0613
16797TIP3   OH271805   1.173   1.780   0.220 -0.2536  0.3144 -0.2848
16797TIP3    H171806   1.199   1.695   0.182 -1.3692 -0.0991 -0.1621
16797TIP3    H271807   1.201   1.844   0.155  3.2447  0.1697  0.8883
16798TIP3   OH271808   3.079   5.959   2.515  0.2354 -0.0833 -0.2922
16798TIP3    H171809   3.011   6.010   2.470  0.1371  0.3939  0.3695
16798TIP3    H271810   3.046   5.951   2.605  2.2107  2.4114  0.7744
16799TIP3   OH271811   0.034   5.962  15.058 -0.4038  0.8085 -0.0913
16799TIP3    H171812  -0.044   5.906  15.053 -0.5931  1.1410 -1.1180
16799TIP3    H271813   0.052   5.986  14.967  1.1305  0.4340  0.0918
16800TIP3   OH271814   6.165   5.954   1.736  0.0856 -0.1464 -0.0084
16800TIP3    H171815   6.100   5.886   1.754 -1.1923  0.1859 -2.8544
16800TIP3    H271816   6.233   5.909   1.685  0.0349  0.3504 -0.5219
16801TIP3   OH271817   0.213   0.023  12.285 -0.3197 -0.7048 -0.4660
16801TIP3    H171818   0.211  -0.056  12.230  1.6960 -0.7808 -0.5050
16801TIP3    H271819   0.293   0.067  12.259 -0.1850  0.1108  1.2778
16802TIP3   OH271820   2.890   3.675   0.465 -0.4475 -0.4703 -0.8919
16802TIP3    H171821   2.805   3.669   0.423 -1.5076 -0.0240  1.0537
16802TIP3    H271822   2.952   3.683   0.393 -2.0247 -0.9025 -2.3629
16803TIP3   OH271823   2.162   0.487  14.185  0.7276  0.2532 -0.0100
16803TIP3    H171824   2.187   0.470  14.094  1.4397  0.5943  0.1187
16803TIP3    H271825   2.232   0.542  14.220  1.4097 -1.3374  1.2687
16804TIP3   OH271826   4.351   0.781  16.063 -0.1630  0.2512  0.0515
16804TIP3    H171827   4.353   0.760  15.970  0.9659 -1.7120  0.4694
16804TIP3    H271828   4.421   0.845  16.075  1.0120 -0.9329 -0.1820
16805TIP3   OH271829   0.099   6.438  16.630  0.4664 -0.2154 -0.2152
16805TIP3    H171830   0.032   6.460  16.695 -0.6264  1.9630 -1.9580
16805TIP3    H271831   0.134   6.354  16.660 -1.2839 -0.2207  2.1280
16806TIP3   OH271832   2.322   2.994  13.889  0.1005  0.0883 -0.5125
16806TIP3    H171833   2.343   2.964  13.801  0.1648  2.6170 -1.4232
16806TIP3    H271834   2.342   3.088  13.889  2.2608 -0.1698  2.8402
16807TIP3   OH271835   0.917   6.523   5.969 -0.4442 -0.0177  0.1887
16807TIP3    H171836   0.912   6.569   5.885  1.2797  0.0082  0.0600
16807TIP3    H271837   0.986   6.568   6.016 -1.2601 -0.1626  1.5674
16808TIP3   OH271838   1.846   5.705  12.863 -0.5912 -0.0057 -0.0903
16808TIP3    H171839   1.836   5.675  12.773  2.4343  2.4556 -1.4354
16808TIP3    H271840   1.927   5.665  12.894  0.0794  1.6107  0.3512
16809TIP3   OH271841   1.502   4.806  16.381 -0.2404  0.1190 -0.1894
16809TIP3    H171842   1.514   4.711  16.391  1.6961  0.4673  1.2202
16809TIP3    H271843   1.463   4.816  16.294 -0.1847 -1.9441 -0.4983
16810TIP3   OH271844   3.201   4.775   4.280  0.1330 -0.8312  0.3522
16810TIP3    H171845   3.187   4.692   4.234 -2.6295 -0.1859 -0.1446
16810TIP3    H271846   3.261   4.754   4.351  0.4127 -2.9719 -0.4543
16811TIP3   OH271847   4.066   1.095   3.368 -0.3466 -0.3268 -0.1034
16811TIP3    H171848   4.157   1.080   3.394 -0.3230 -0.6775 -0.3980
16811TIP3    H271849   4.016   1.078   3.448 -0.0498  1.1438  0.4320
16812TIP3   OH271850   3.763   0.833   2.053  0.1616  0.7126  0.2765
16812TIP3    H171851   3.851   0.871   2.064  0.6339 -0.7768  2.1450
16812TIP3    H271852   3.773   0.741   2.077 -2.4560  1.1075  3.6420
16813TIP3   OH271853   5.933   4.040   2.485  0.1623 -0.4831  0.8940
16813TIP3    H171854   5.963   4.086   2.563  1.3042 -1.5061  1.0858
16813TIP3    H271855   6.002   3.977   2.466 -0.8430 -1.3611 -0.0006
16814TIP3   OH271856   3.657   3.754  13.650 -0.0259  0.2374 -0.2622
16814TIP3    H171857   3.749   3.783  13.653 -0.0335  0.2749 -0.4136
16814TIP3    H271858   3.661   3.666  13.612 -0.3655  1.5518 -3.6768
16815TIP3   OH271859   0.515   2.966  11.453  0.4435 -0.0105  0.2873
16815TIP3    H171860   0.587   2.954  11.391 -0.1370 -0.3859 -0.3256
16815TIP3    H271861   0.531   3.052  11.492  1.3342 -0.1807  0.3036
16816TIP3   OH271862   3.902   2.553   0.469 -0.3204  0.0176  0.1645
16816TIP3    H171863   3.917   2.624   0.532 -0.7151 -1.1944  1.6858
16816TIP3    H271864   3.826   2.582   0.419 -1.0317  0.2916  1.3669
16817TIP3   OH271865   0.800   2.289   3.849  0.5885 -0.3424 -0.1675
16817TIP3    H171866   0.717   2.338   3.857 -0.7576 -1.9785 -2.6366
16817TIP3    H271867   0.793   2.219   3.914  0.6735  0.2946  0.5480
16818TIP3   OH271868   6.377   5.975   0.061  0.3272  0.3284 -0.0534
16818TIP3    H171869   6.291   5.948   0.093  0.5105 -0.5881 -0.3036
16818TIP3    H271870   6.423   6.007   0.138 -0.3319  1.1014  0.0333
16819TIP3   OH271871   1.949   2.675   2.200 -0.4304 -0.0526  0.3311
16819TIP3    H171872   2.021   2.622   2.236 -0.5901 -0.8487 -0.4943
16819TIP3    H271873   1.965   2.678   2.106 -0.4966  1.2859  0.3416
16820TIP3   OH271874   0.903   1.549  17.123 -0.0008  0.2256 -0.3940
16820TIP3    H171875   0.864   1.636  17.115 -1.1539 -0.1633  0.6945
16820TIP3    H271876   0.873   1.517  17.208  0.0312 -1.4087 -0.9608
16821TIP3   OH271877   2.781   2.804   0.670 -0.2023  0.7076 -0.0978
16821TIP3    H171878   2.807   2.717   0.641  0.8075  1.3446 -1.1986
16821TIP3    H271879   2.761   2.852   0.590 -2.0079  1.1404  0.5596
16822TIP3   OH271880   0.949   0.100   6.160 -0.2927 -0.2715 -0.3550
16822TIP3    H171881   1.008   0.026   6.146  0.5550  0.6410 -1.9234
16822TIP3    H271882   0.943   0.142   6.074 -0.5162  1.6441  0.5443
16823TIP3   OH271883   6.548   6.517   0.949 -0.3947 -0.2657  0.4015
16823TIP3    H171884   6.617   6.581   0.966 -1.8538  1.9194 -1.3944
16823TIP3    H271885   6.569   6.481   0.863 -1.8057  0.9395 -0.4839
16824TIP3   OH271886   2.963   4.456   0.982 -0.1458  0.3879 -0.3545
16824TIP3    H171887   3.014   4.441   1.062  0.9548 -0.5266 -1.1848
16824TIP3    H271888   3.026   4.442   0.911 -1.5964 -0.9419 -1.4452
16825TIP3   OH271889   4.528   1.454  15.453 -0.0811  0.0345 -0.6106
16825TIP3    H171890   4.467   1.381  15.446 -1.1403  0.5592  2.0409
16825TIP3    H271891   4.479   1.522  15.500  1.4995  1.7284 -1.2916
16826TIP3   OH271892   6.095   3.876  15.028  0.0336 -0.3925 -0.0041
16826TIP3    H171893   6.177   3.833  15.001 -0.8609 -2.0698 -0.2189
16826TIP3    H271894   6.035   3.860  14.955  0.0917  2.8277 -0.9291
16827TIP3   OH271895   6.690   0.566   5.253 -0.5691  0.5767 -0.0304
16827TIP3    H171896   6.770   0.578   5.305 -0.2603  0.4441 -0.4658
16827TIP3    H271897   6.661   0.478   5.276 -0.9656  0.8724  0.6305
16828TIP3   OH271898   0.272   0.759  14.824 -0.2578 -0.7448 -0.3588
16828TIP3    H171899   0.232   0.721  14.746  0.7200 -0.9653 -0.7629
16828TIP3    H271900   0.317   0.686  14.866 -0.2105 -0.4849  0.0418
16829TIP3   OH271901   6.236   5.195   3.730  0.3223  0.0103 -0.7673
16829TIP3    H171902   6.144   5.220   3.725  0.0947 -1.0719 -3.6407
16829TIP3    H271903   6.283   5.279   3.727 -0.4325  0.7826  3.2020
16830TIP3   OH271904   3.190   4.234   0.763  0.2284 -0.5355  0.3075
16830TIP3    H171905   3.190   4.200   0.674  1.7358  0.9934 -0.3380
16830TIP3    H271906   3.169   4.327   0.754  1.2750 -0.1521  1.4233
16831TIP3   OH271907   5.246   5.552   3.304 -0.0192 -0.2032 -0.5850
16831TIP3    H171908   5.218   5.638   3.335  0.1963 -0.2843 -0.1588
16831TIP3    H271909   5.227   5.553   3.210  0.0855  0.3502 -0.6027
16832TIP3   OH271910   4.902   0.049   0.566  0.2721  0.2867  0.0123
16832TIP3    H171911   4.984   0.038   0.614  1.9968 -1.5017 -2.9953
16832TIP3    H271912   4.913   0.133   0.520 -0.3683  0.8801  0.9231
16833TIP3   OH271913   5.077   1.976   3.916 -0.3195 -0.6407  0.5660
16833TIP3    H171914   5.006   1.977   3.851  0.6054 -1.0105 -0.4857
16833TIP3    H271915   5.050   2.040   3.982 -0.8471  0.4682 -0.6798
16834TIP3   OH271916   3.021   1.337   2.073  0.0782 -0.3283  0.0845
16834TIP3    H171917   3.116   1.337   2.082 -0.0856  0.3058  2.4742
16834TIP3    H271918   2.995   1.247   2.090  0.2460 -0.6167 -1.0766
16835TIP3   OH271919   2.410   5.053  17.091  0.0169 -0.0633 -0.7743
16835TIP3    H171920   2.497   5.069  17.054 -0.0501  0.5892 -0.6558
16835TIP3    H271921   2.423   5.058  17.186 -0.2666  0.6611 -0.7701
16836TIP3   OH271922   5.303   5.286   1.364  0.2965 -0.9967 -0.3040
16836TIP3    H171923   5.345   5.277   1.450 -1.1937 -0.0928  0.5526
16836TIP3    H271924   5.218   5.243   1.374 -0.1545 -0.3241 -1.1326
16837TIP3   OH271925   4.149   6.499   2.092 -0.3454  0.2310  0.2396
16837TIP3    H171926   4.224   6.517   2.149  0.0973 -2.0483  0.4895
16837TIP3    H271927   4.072   6.518   2.147  0.0697 -0.1919  0.9919
16838TIP3   OH271928   5.717   1.385   3.803  0.2961  0.1494  0.2062
16838TIP3    H171929   5.779   1.314   3.822  0.2960 -0.2069 -1.0386
16838TIP3    H271930   5.763   1.465   3.829  1.2440 -0.1256 -0.5691
16839TIP3   OH271931   4.491   6.244  15.003  0.0940  0.2158 -0.2755
16839TIP3    H171932   4.401   6.276  15.016  0.4292  1.5616 -1.0514
16839TIP3    H271933   4.545   6.302  15.056  0.6107  0.1906 -0.7644
16840TIP3   OH271934   4.970   1.025   3.994  0.0999  0.5623  0.0849
16840TIP3    H171935   4.884   1.045   3.956  1.4412  1.7193 -2.6552
16840TIP3    H271936   5.018   0.983   3.923  1.9898  0.4662  1.3553
16841TIP3   OH271937   2.749   6.302   4.227 -0.5354 -0.2321  0.0601
16841TIP3    H171938   2.756   6.388   4.268 -1.6994 -0.4179  0.7111
16841TIP3    H271939   2.680   6.258   4.277 -0.4969 -1.2579 -0.7643
16842TIP3   OH271940   3.672   3.881  14.791 -0.5424  0.3637 -0.1025
16842TIP3    H171941   3.592   3.869  14.739 -0.5551  1.2006 -0.2877
16842TIP3    H271942   3.709   3.963  14.759  0.1610  0.2079  0.2940
16843TIP3   OH271943   6.389   3.898  17.075  0.2534  0.8319 -0.2031
16843TIP3    H171944   6.394   3.810  17.113  0.1996  0.9970  0.1949
16843TIP3    H271945   6.423   3.955  17.143 -1.2076  1.3018  0.1764
16844TIP3   OH271946   6.539   3.457  16.263  0.1248  0.2168 -0.3112
16844TIP3    H171947   6.459   3.496  16.297  0.0714 -0.8346  0.8423
16844TIP3    H271948   6.599   3.454  16.338  1.7780  2.1941 -1.4416
16845TIP3   OH271949   0.936   5.245  15.179 -0.4613  0.2935  0.4370
16845TIP3    H171950   0.890   5.265  15.098 -0.2963  0.7711  0.4566
16845TIP3    H271951   1.029   5.253  15.157 -0.3928 -0.2548  0.5009
16846TIP3   OH271952   2.074   5.942  15.074 -0.1042  0.1559  0.0243
16846TIP3    H171953   2.168   5.923  15.069 -0.2407 -1.3489  1.8452
16846TIP3    H271954   2.035   5.887  15.007  0.2486  0.1304 -0.1632
16847TIP3   OH271955   1.305   1.857  14.442 -0.3402  0.4184 -0.1382
16847TIP3    H171956   1.245   1.903  14.501 -0.7846 -0.3580  0.0350
16847TIP3    H271957   1.322   1.774  14.485 -1.7655 -0.7472 -1.7024
16848TIP3   OH271958   1.493   4.771   3.059 -0.0598  0.6765 -0.0933
16848TIP3    H171959   1.497   4.816   2.974  1.1824 -1.5411 -1.3120
16848TIP3    H271960   1.478   4.679   3.036  0.8895 -0.0683  2.0696
16849TIP3   OH271961   1.547   4.269  13.528  0.5709 -0.3401 -1.2074
16849TIP3    H171962   1.597   4.314  13.596  1.4376  0.9774 -2.6298
16849TIP3    H271963   1.470   4.324  13.514  0.2690 -0.7370 -1.1312
16850TIP3   OH271964   4.768   1.115   2.447  0.3009  0.0933  0.1416
16850TIP3    H171965   4.679   1.079   2.449 -0.6842  2.3482  0.1558
16850TIP3    H271966   4.815   1.066   2.514 -0.5697 -1.9094 -0.6119
16851TIP3   OH271967   5.328   3.253   4.165  0.1318  0.0999 -0.1878
16851TIP3    H171968   5.331   3.285   4.255  0.4548  2.1801 -0.8778
16851TIP3    H271969   5.367   3.323   4.113 -2.9085  0.4275 -2.3063
16852TIP3   OH271970   4.341   1.548   6.122 -0.3358 -0.8816  0.1536
16852TIP3    H171971   4.342   1.529   6.028 -1.6975 -2.5540  0.4426
16852TIP3    H271972   4.365   1.465   6.164  0.0004 -0.2287  1.3167
16853TIP3   OH271973   3.956   4.552   3.334  0.1455  0.0201  0.1588
16853TIP3    H171974   3.950   4.558   3.239  2.2296 -1.2613 -0.1120
16853TIP3    H271975   4.046   4.577   3.354  0.5605 -2.2721  1.5082
16854TIP3   OH271976   5.083   4.908  15.031 -0.0666  0.3211  0.3027
16854TIP3    H171977   5.176   4.906  15.051 -0.5751 -0.3045  2.8786
16854TIP3    H271978   5.046   4.974  15.089 -1.5247 -0.9691  0.9316
16855TIP3   OH271979   1.813   0.483  14.404  0.7331  0.1098  0.1397
16855TIP3    H171980   1.852   0.527  14.480 -1.5690 -1.4278  2.3725
16855TIP3    H271981   1.814   0.390  14.427 -0.2047 -0.3932 -1.6657
16856TIP3   OH271982   4.154   0.754  14.670 -0.1876 -0.6560  0.5691
16856TIP3    H171983   4.076   0.798  14.706 -0.8315 -1.3943  0.1101
16856TIP3    H271984   4.211   0.741  14.746 -0.5388 -0.1561  0.9243
16857TIP3   OH271985   3.297   6.693  14.520 -0.2835  0.0888  0.1598
16857TIP3    H171986   3.234   6.756  14.554 -1.6052 -1.0600 -0.0682
16857TIP3    H271987   3.280   6.613  14.570  0.8396 -0.3128 -0.0784
16858TIP3   OH271988   3.376   5.252   2.298 -0.2765 -0.7215 -0.1924
16858TIP3    H171989   3.448   5.293   2.251 -2.2095 -0.1413 -2.9287
16858TIP3    H271990   3.399   5.159   2.301  1.0795 -0.3925  0.0221
16859TIP3   OH271991   0.986   0.557   2.609 -0.4629  0.5408  0.2134
16859TIP3    H171992   1.062   0.598   2.568 -1.1337  0.8988 -0.6946
16859TIP3    H271993   0.911   0.594   2.563 -1.1669 -0.1994  0.7480
16860TIP3   OH271994   6.135   3.950   6.288  0.0430 -0.1474 -0.6265
16860TIP3    H171995   6.186   3.979   6.212 -0.5532 -0.2561 -1.0694
16860TIP3    H271996   6.080   3.879   6.255  0.2873 -0.6730  0.0691
16861TIP3   OH271997   4.910   5.501   6.933 -0.1715 -0.9478 -0.0709
16861TIP3    H171998   4.882   5.569   6.872  1.3733 -1.4719 -1.4206
16861TIP3    H271999   4.946   5.550   7.007 -2.8506 -0.2932  0.9406
16862TIP3   OH272000   5.363   6.688  13.469  0.3282  0.2772 -0.0742
16862TIP3    H172001   5.399   6.721  13.552  1.1520  1.7109 -0.9420
16862TIP3    H272002   5.275   6.660  13.490  0.8326 -0.2500  1.4704
16863TIP3   OH272003   6.679   2.064   0.009 -0.2450  0.2186 -0.2397
16863TIP3    H172004   6.757   2.018   0.038  0.6536  1.7021 -0.2201
16863TIP3    H272005   6.648   2.013  -0.066  0.8114 -0.3269 -0.3274
16864TIP3   OH272006   5.807   5.885   1.610 -0.0622  0.2363  0.0118
16864TIP3    H172007   5.845   5.803   1.578 -2.7442  0.1030 -3.3572
16864TIP3    H272008   5.721   5.860   1.642 -0.6966  1.6624 -0.5226
16865TIP3   OH272009   4.135   4.383   6.199 -0.6264 -0.2799  0.6295
16865TIP3    H172010   4.204   4.434   6.155 -0.3928 -0.0709  1.2345
16865TIP3    H272011   4.167   4.372   6.289 -1.4034 -0.1420  0.9228
16866TIP3   OH272012   2.099   0.857   5.258 -0.2696  0.0380  0.0789
16866TIP3    H172013   2.109   0.866   5.353  0.9482  0.1536 -0.0368
16866TIP3    H272014   2.172   0.801   5.232 -1.8271 -1.7986 -0.5333
16867TIP3   OH272015   1.482   0.621   5.395 -0.4189 -0.2154 -0.2419
16867TIP3    H172016   1.518   0.600   5.481 -0.9918 -1.4235 -0.2720
16867TIP3    H272017   1.397   0.660   5.415 -0.4995 -0.3856 -0.2455
16868TIP3   OH272018   6.156   2.673   3.855  0.6536  0.1296  0.1099
16868TIP3    H172019   6.208   2.666   3.776 -1.1836  2.1697 -1.3947
16868TIP3    H272020   6.095   2.599   3.851  2.1758 -1.2548  1.0110
16869TIP3   OH272021   4.517   2.298  13.613  0.3006 -0.0791 -0.0588
16869TIP3    H172022   4.433   2.338  13.637 -0.4777  1.5434 -4.5743
16869TIP3    H272023   4.578   2.371  13.606  0.2645 -0.2424 -3.2416
16870TIP3   OH272024   5.906   6.659   0.932  0.5836 -0.0082  0.0997
16870TIP3    H172025   5.965   6.735   0.925  0.3854  0.2070  0.6831
16870TIP3    H272026   5.828   6.685   0.884  0.8797 -0.2206 -0.5153
16871TIP3   OH272027   1.953   0.535  10.519 -0.4675  0.3239 -0.1750
16871TIP3    H172028   1.923   0.463  10.576 -0.6733  1.5504  1.3409
16871TIP3    H272029   1.874   0.563  10.473 -0.4066 -0.3525 -0.6991
16872TIP3   OH272030   1.612   2.974  15.870 -0.0269 -0.3511  0.0881
16872TIP3    H172031   1.625   2.886  15.905  0.6231 -0.1543  0.3581
16872TIP3    H272032   1.634   2.968  15.777  0.2055 -0.4314  0.1491
16873TIP3   OH272033   5.800   5.598   2.521  0.8631 -0.6283  0.2695
16873TIP3    H172034   5.789   5.539   2.447 -1.4443  0.2906 -0.1853
16873TIP3    H272035   5.817   5.540   2.596  1.2348 -1.6722 -0.6081
16874TIP3   OH272036   0.829   6.750  12.342  0.3421 -0.5153 -0.4609
16874TIP3    H172037   0.874   6.764  12.425  0.4949 -3.6139  0.0929
16874TIP3    H272038   0.736   6.753  12.365  0.2257  2.2115 -0.9386
16875TIP3   OH272039   4.790   0.958   1.024 -0.2596 -0.2418 -0.0827
16875TIP3    H172040   4.882   0.956   1.049 -0.3445 -0.0595  0.2454
16875TIP3    H272041   4.771   1.051   1.012 -0.3231 -0.2993 -0.4419
16876TIP3   OH272042   3.837   0.494  13.543 -0.2264 -0.1339 -0.2554
16876TIP3    H172043   3.913   0.536  13.502  1.9282 -0.9396  2.6161
16876TIP3    H272044   3.803   0.436  13.475  1.0830  0.9900 -1.9687
16877TIP3   OH272045   0.517   3.567   1.269 -0.0772 -0.1863 -0.4655
16877TIP3    H172046   0.533   3.565   1.174  0.5740  0.5534 -0.3820
16877TIP3    H272047   0.578   3.633   1.302  0.9574 -1.6657  0.7123
16878TIP3   OH272048   1.004   4.853   1.462 -0.2346  0.2024 -0.2945
16878TIP3    H172049   0.939   4.783   1.458 -0.1357  0.1372 -0.9689
16878TIP3    H272050   1.076   4.817   1.513 -0.4992  0.0827 -0.0022
16879TIP3   OH272051   2.699   2.856  12.930 -0.4472  0.1111  0.1404
16879TIP3    H172052   2.612   2.843  12.892  0.0265 -2.2809 -0.2990
16879TIP3    H272053   2.683   2.865  13.024 -1.2208  0.4759 -0.0198
16880TIP3   OH272054   5.873   5.722  15.298 -0.1860 -0.4650  0.5169
16880TIP3    H172055   5.951   5.668  15.282  0.1350  0.2721 -0.5913
16880TIP3    H272056   5.800   5.666  15.272  0.1744 -0.2508 -1.1282
16881TIP3   OH272057   6.715   6.738  16.447 -0.2769  0.1949  0.3725
16881TIP3    H172058   6.750   6.676  16.384 -0.6622  0.3616 -0.0091
16881TIP3    H272059   6.791   6.770  16.495  0.4595  2.2549 -1.9346
16882TIP3   OH272060   6.358   4.557   1.084  0.2570  0.0424 -0.5303
16882TIP3    H172061   6.373   4.637   1.135  2.1974 -1.8999  2.2191
16882TIP3    H272062   6.319   4.496   1.146 -1.1056 -1.2470 -2.5374
16883TIP3   OH272063   0.292   2.936   3.256  0.2715 -0.0016  0.1179
16883TIP3    H172064   0.374   2.888   3.263  0.2793  0.1905  1.8227
16883TIP3    H272065   0.317   3.028   3.265 -0.2476 -0.0269  2.7623
16884TIP3   OH272066   6.524   1.851   3.071 -0.5227 -0.4400 -0.1608
16884TIP3    H172067   6.449   1.793   3.082  0.1193 -1.2668 -0.0671
16884TIP3    H272068   6.525   1.905   3.150 -1.1010 -0.3177 -0.2326
16885TIP3   OH272069   5.841   5.758  11.542 -0.4607 -0.0863  0.2321
16885TIP3    H172070   5.790   5.787  11.466  0.5533 -1.7202 -1.1561
16885TIP3    H272071   5.779   5.761  11.614 -1.8387  0.2920 -0.9105
16886TIP3   OH272072   5.842   1.096   0.958 -0.5397  0.7120  0.6454
16886TIP3    H172073   5.763   1.148   0.946 -1.1467 -0.1122  1.0134
16886TIP3    H272074   5.862   1.103   1.051 -1.8365 -1.3707  1.1491
16887TIP3   OH272075   3.337   0.734   3.740 -0.6081 -0.1678  0.2769
16887TIP3    H172076   3.326   0.641   3.764  0.4456 -0.5354 -0.5843
16887TIP3    H272077   3.391   0.732   3.661 -0.3259  1.2078  0.4122
16888TIP3   OH272078   0.409   0.559  11.995 -0.3120 -0.0567 -0.6448
16888TIP3    H172079   0.456   0.535  12.076 -0.3647  2.4412  0.2065
16888TIP3    H272080   0.443   0.498  11.929  1.5389 -0.6075  0.7155
16889TIP3   OH272081   1.887   2.893   5.087 -0.3823  0.3506  0.0223
16889TIP3    H172082   1.878   2.817   5.031 -1.7738  0.6042 -0.1432
16889TIP3    H272083   1.973   2.884   5.128 -0.9292 -1.8506  0.8052
16890TIP3   OH272084   2.187   1.377   5.256  0.5579 -0.3016 -0.2648
16890TIP3    H172085   2.092   1.379   5.263  0.4186 -2.5060 -0.7054
16890TIP3    H272086   2.214   1.468   5.260 -1.4534  0.2790  1.2619
16891TIP3   OH272087   0.215   6.109  12.641  0.0421 -0.0376  0.6590
16891TIP3    H172088   0.287   6.046  12.644  2.4668  2.2927 -2.1242
16891TIP3    H272089   0.144   6.062  12.597  0.7441 -1.6244  1.1474
16892TIP3   OH272090   5.769   5.215  15.660 -0.6278 -0.4767 -0.0119
16892TIP3    H172091   5.837   5.253  15.716 -0.7904  2.0045 -1.3547
16892TIP3    H272092   5.711   5.169  15.720  0.8789 -0.5886  1.4491
16893TIP3   OH272093   1.716   5.700  14.689 -0.0255 -0.5269 -0.7254
16893TIP3    H172094   1.722   5.614  14.647  1.2111 -0.8972  0.1394
16893TIP3    H272095   1.787   5.751  14.649  0.3839 -0.5008  0.0061
16894TIP3   OH272096   6.499   0.233  10.524 -0.0064 -0.4759  0.5785
16894TIP3    H172097   6.573   0.288  10.546  1.2690 -1.2694 -1.4652
16894TIP3    H272098   6.435   0.293  10.486  0.6204 -0.1549  0.0270
16895TIP3   OH272099   5.169   4.832  11.657 -0.2708 -0.0558  0.0859
16895TIP3    H172100   5.175   4.925  11.635  0.7677 -0.1658 -0.1439
16895TIP3    H272101   5.093   4.801  11.608 -1.2414  0.8787  0.9473
16896TIP3   OH272102   2.443   4.519   0.720 -0.1714  0.6654  0.0681
16896TIP3    H172103   2.493   4.463   0.661  1.3720  0.7860  1.2079
16896TIP3    H272104   2.394   4.458   0.775 -0.6262  0.5276 -0.4747
16897TIP3   OH272105   5.412   0.221  14.789 -0.0097 -0.2108 -0.0859
16897TIP3    H172106   5.494   0.182  14.758 -0.3891 -0.6948 -0.4897
16897TIP3    H272107   5.366   0.150  14.832 -0.8802 -0.3239 -1.1686
16898TIP3   OH272108   0.874   3.453   2.916 -0.3426 -0.4067  0.1397
16898TIP3    H172109   0.786   3.432   2.883 -0.2822 -0.2844 -0.1020
16898TIP3    H272110   0.868   3.437   3.010 -0.7532  0.0352  0.1951
16899TIP3   OH272111   0.213   2.115   4.940 -0.1040  0.0441  0.2761
16899TIP3    H172112   0.121   2.130   4.921  0.3371  1.8295 -0.6612
16899TIP3    H272113   0.258   2.126   4.857  0.8679 -2.1315  0.4398
16900TIP3   OH272114   2.418   0.738   0.458  0.3190 -0.3340  0.3096
16900TIP3    H172115   2.345   0.754   0.517  0.7177 -1.5779  1.1865
16900TIP3    H272116   2.461   0.823   0.449 -1.2780  0.4578 -0.3454
16901TIP3   OH272117   2.141   0.976   3.263 -0.3692  0.7669 -0.4972
16901TIP3    H172118   2.188   0.985   3.346  1.2297  1.5325 -1.4435
16901TIP3    H272119   2.210   0.965   3.197 -1.5185  1.8265 -1.9339
16902TIP3   OH272120   2.469   3.907  12.993  0.2303  0.7743 -0.1914
16902TIP3    H172121   2.487   3.864  13.077  1.4782  2.4995  0.4894
16902TIP3    H272122   2.539   3.877  12.935 -0.0284  0.3959 -0.3130
16903TIP3   OH272123   0.850   4.188  11.883  0.1567 -0.1130 -0.1796
16903TIP3    H172124   0.790   4.113  11.877 -0.0370  0.0991 -0.8749
16903TIP3    H272125   0.833   4.240  11.805  1.1082  0.0584 -0.2891
16904TIP3   OH272126   1.812   2.465   4.787  0.5605 -0.2461  0.6371
16904TIP3    H172127   1.758   2.390   4.812  0.7594 -0.9350 -0.9080
16904TIP3    H272128   1.884   2.428   4.736  1.0077  0.9412  0.3631
16905TIP3   OH272129   3.982   5.502   3.844  0.0132  0.1750 -0.5282
16905TIP3    H172130   4.029   5.428   3.883 -2.2097 -0.9934  0.0931
16905TIP3    H272131   3.996   5.492   3.750 -1.0421 -1.6774 -0.5439
16906TIP3   OH272132   1.491   1.312   2.011 -0.3697  0.2127 -0.1642
16906TIP3    H172133   1.577   1.276   1.991 -0.5581 -0.3387 -0.0167
16906TIP3    H272134   1.501   1.351   2.098 -1.0316 -2.6825  1.3658
16907TIP3   OH272135   0.086   3.664   0.084  0.1518  0.1014  0.6728
16907TIP3    H172136   0.005   3.639   0.128  0.1891  0.6897  1.0874
16907TIP3    H272137   0.156   3.644   0.147  0.4401 -1.3553 -0.0633
16908TIP3   OH272138   0.030   5.750  13.234 -0.1791 -0.1283  0.2263
16908TIP3    H172139   0.097   5.696  13.276 -0.9481 -0.1084  1.5261
16908TIP3    H272140  -0.020   5.689  13.180  0.9989 -0.1032 -0.9599
16909TIP3   OH272141   6.683   3.421  13.315  0.0277  0.0213 -0.6818
16909TIP3    H172142   6.699   3.513  13.294  1.3793 -0.3397 -1.3581
16909TIP3    H272143   6.766   3.377  13.297 -0.2126 -1.1443  0.7956
16910TIP3   OH272144   2.560   6.458   1.620 -0.7608  0.0701 -0.0529
16910TIP3    H172145   2.504   6.398   1.571  0.4421  0.6059 -2.2108
16910TIP3    H272146   2.523   6.545   1.605 -1.1462  0.1159  1.1126
16911TIP3   OH272147   1.858   5.500  15.187  0.3242 -0.6232 -0.1781
16911TIP3    H172148   1.837   5.407  15.187  0.2216 -0.6148 -1.2415
16911TIP3    H272149   1.860   5.524  15.094  1.7777  0.1152  0.0102
16912TIP3   OH272150   6.077   6.705   6.082  0.0713  0.0795  0.2704
16912TIP3    H172151   6.125   6.628   6.052 -1.1866 -1.2460  1.4638
16912TIP3    H272152   6.141   6.756   6.132  0.9321 -0.1552 -0.5644
16913TIP3   OH272153   4.505   4.260  14.582  0.3887  0.2711 -0.0568
16913TIP3    H172154   4.439   4.325  14.606 -0.9302 -1.0623  0.0482
16913TIP3    H272155   4.473   4.222  14.500  0.0030 -1.6906  0.9382
16914TIP3   OH272156   3.036   1.108  11.777  0.0282  0.0960 -0.1161
16914TIP3    H172157   3.038   1.059  11.695  1.5619  0.5062 -0.3691
16914TIP3    H272158   3.057   1.198  11.752 -0.8309  0.5050  0.5772
16915TIP3   OH272159   2.508   1.443  15.185 -0.3600  0.2170 -0.0949
16915TIP3    H172160   2.528   1.430  15.093  1.1466  3.1572 -0.3105
16915TIP3    H272161   2.582   1.493  15.219 -0.8953 -0.7162  2.7188
16916TIP3   OH272162   5.249   2.884  14.772  0.2494  0.1779 -0.4090
16916TIP3    H172163   5.171   2.903  14.720  0.0307 -0.7902 -0.4505
16916TIP3    H272164   5.301   2.964  14.766  0.1087  0.1917 -1.8955
16917TIP3   OH272165   2.838   6.480   2.141  0.2945 -0.3902  0.0242
16917TIP3    H172166   2.830   6.571   2.111  0.3841  0.2832  1.8990
16917TIP3    H272167   2.750   6.445   2.133 -0.0979  0.3805  0.7469
16918TIP3   OH272168   4.539   6.578  16.577 -0.0619  0.6535 -0.1170
16918TIP3    H172169   4.522   6.625  16.495  0.4772  0.9599 -0.0528
16918TIP3    H272170   4.520   6.642  16.646  1.1579  0.9572 -0.0387
16919TIP3   OH272171   1.945   3.801  15.884  0.3881  0.1790  0.7695
16919TIP3    H172172   1.919   3.709  15.890  0.8984  0.0824  1.6181
16919TIP3    H272173   1.874   3.842  15.835  0.8379 -0.9210 -0.9079
16920TIP3   OH272174   3.757   1.364   3.857 -0.1668 -0.2726  0.3454
16920TIP3    H172175   3.810   1.290   3.884 -0.1507 -1.6196 -2.9160
16920TIP3    H272176   3.810   1.441   3.880  1.1861 -1.3756  1.0699
16921TIP3   OH272177   0.733   6.636   1.176  0.2830 -0.0297  0.3593
16921TIP3    H172178   0.792   6.614   1.248  0.6849  1.2073  0.4116
16921TIP3    H272179   0.778   6.606   1.097  0.1384 -0.7805  0.5542
16922TIP3   OH272180   6.005   4.352   4.494  0.1438 -0.3282  0.1609
16922TIP3    H172181   5.968   4.406   4.565  1.7419  3.3670 -1.5561
16922TIP3    H272182   6.087   4.319   4.530 -0.7104 -1.4606  1.1452
16923TIP3   OH272183   3.814   4.490   6.777 -0.5984 -0.0191  0.0356
16923TIP3    H172184   3.847   4.457   6.693 -0.4249  0.5121 -0.1083
16923TIP3    H272185   3.731   4.445   6.789 -2.0012  1.9347 -1.7733
16924TIP3   OH272186   0.959   2.494   5.625 -0.0982 -0.3813 -0.2779
16924TIP3    H172187   0.883   2.545   5.655  0.5667 -0.6163  2.0418
16924TIP3    H272188   1.030   2.522   5.683  1.0034 -1.8798 -0.8565
16925TIP3   OH272189   4.366   5.863   5.556 -0.3510  0.0193  0.3808
16925TIP3    H172190   4.358   5.768   5.559 -0.9907  0.0789  1.1024
16925TIP3    H272191   4.276   5.894   5.546 -0.1679  0.5549  0.3646
16926TIP3   OH272192   6.099   5.090  11.158  0.0242 -0.2869  0.0370
16926TIP3    H172193   6.035   5.042  11.106  0.3297  0.0497 -0.6526
16926TIP3    H272194   6.103   5.177  11.118  0.4484 -0.1056  0.4644
16927TIP3   OH272195   5.615   1.015  14.496 -0.4177  0.1017  0.5596
16927TIP3    H172196   5.679   0.974  14.553 -1.2605  0.1037  1.5394
16927TIP3    H272197   5.601   1.102  14.533 -0.8474  0.1715  0.2512
16928TIP3   OH272198   2.040   0.676  15.410 -0.0598  0.3068  0.2126
16928TIP3    H172199   2.006   0.726  15.484  1.3349  0.1201  1.0135
16928TIP3    H272200   2.069   0.742  15.347  0.0386  0.4787  0.4398
16929TIP3   OH272201   1.467   4.243  13.869  0.0325  0.0801 -0.2358
16929TIP3    H172202   1.543   4.206  13.825  0.6069 -1.4797  1.8930
16929TIP3    H272203   1.406   4.170  13.878 -1.8200  1.3180 -1.9676
16930TIP3   OH272204   6.500   1.502  15.202  0.4721 -0.2439  0.0138
16930TIP3    H172205   6.504   1.563  15.128 -1.9082  0.1983  0.1744
16930TIP3    H272206   6.411   1.467  15.200  0.6823 -1.0386  2.0324
16931TIP3   OH272207   3.009   0.493  16.241  0.2953 -0.1658 -0.3455
16931TIP3    H172208   3.088   0.479  16.188  0.3790 -1.0777 -0.0144
16931TIP3    H272209   3.001   0.588  16.249  1.2108 -0.0568 -0.6184
16932TIP3   OH272210   1.874   0.377  16.667  0.0257  0.2656 -0.2247
16932TIP3    H172211   1.871   0.358  16.573  0.9511  0.9302 -0.4009
16932TIP3    H272212   1.795   0.429  16.683 -0.9808 -1.1636 -0.2995
16933TIP3   OH272213   5.182   2.455   2.456 -0.1192  0.4647  0.1244
16933TIP3    H172214   5.172   2.519   2.526 -0.4890  2.1232 -1.3810
16933TIP3    H272215   5.275   2.458   2.433  0.7312 -2.3629  2.5205
16934TIP3   OH272216   3.672   6.170  14.814  0.3769 -0.3343  0.3453
16934TIP3    H172217   3.637   6.082  14.825  1.8428 -1.0400 -0.3787
16934TIP3    H272218   3.600   6.219  14.774 -1.6979 -0.1990  3.8383
16935TIP3   OH272219   2.373   6.399   3.318 -0.1204 -0.4271 -0.6084
16935TIP3    H172220   2.278   6.390   3.321  0.0419 -2.3534  2.6082
16935TIP3    H272221   2.395   6.387   3.225 -2.9739  0.4397 -1.4998
16936TIP3   OH272222   2.657   6.525  15.762 -0.2351 -0.2022 -0.1946
16936TIP3    H172223   2.571   6.510  15.722  0.1380 -1.1401 -0.6865
16936TIP3    H272224   2.684   6.439  15.793 -0.8031  0.6008  2.7662
16937TIP3   OH272225   2.757   3.192   2.735  0.2250  0.1763 -0.1696
16937TIP3    H172226   2.809   3.134   2.679  1.1625  1.2441 -0.4541
16937TIP3    H272227   2.666   3.169   2.716  0.5546 -0.2682 -1.2949
16938TIP3   OH272228   0.361   6.292  13.617  0.4602 -0.1908 -0.0698
16938TIP3    H172229   0.323   6.376  13.591  0.1458 -0.7215 -1.4027
16938TIP3    H272230   0.302   6.226  13.580  0.0414 -1.0240  1.9483
16939TIP3   OH272231   3.820   2.720   0.275  0.0238  0.3064 -0.0425
16939TIP3    H172232   3.851   2.777   0.345  0.1206  2.0220 -1.4210
16939TIP3    H272233   3.840   2.768   0.194 -1.3405 -0.9778 -1.1969
16940TIP3   OH272234   4.994   0.650  14.666 -0.1790 -0.1166  0.3563
16940TIP3    H172235   4.901   0.646  14.647 -0.3973  0.3093  1.3117
16940TIP3    H272236   5.024   0.559  14.665 -0.6666 -0.2752  0.3749
16941TIP3   OH272237   0.495   4.018   5.157  0.5823  0.0311  0.5210
16941TIP3    H172238   0.400   4.033   5.162  0.5113 -0.5725  1.2241
16941TIP3    H272239   0.533   4.087   5.211  0.3729 -1.1090  2.2186
16942TIP3   OH272240   0.382   4.330  14.169  0.2816 -0.0471  0.4559
16942TIP3    H172241   0.399   4.356  14.259  0.3772  0.0997  0.3965
16942TIP3    H272242   0.399   4.236  14.167  1.8357  0.2091  0.2307
16943TIP3   OH272243   3.380   1.470  15.357 -0.2170  0.6766  0.3205
16943TIP3    H172244   3.406   1.390  15.311  1.6447  1.5898 -0.3186
16943TIP3    H272245   3.373   1.444  15.448 -1.0021 -0.5057 -0.0533
16944TIP3   OH272246   4.671   3.821   4.675 -0.0640 -0.1031 -0.6605
16944TIP3    H172247   4.689   3.815   4.581 -1.2177  0.0545 -0.9085
16944TIP3    H272248   4.589   3.870   4.680  0.4690  0.7034  0.4815
16945TIP3   OH272249   0.857   6.741  17.184  0.2322 -0.1039  0.1148
16945TIP3    H172250   0.768   6.729  17.153  0.3236 -1.1524  0.2180
16945TIP3    H272251   0.862   6.834  17.208 -0.4201  0.2837 -1.1455
16946TIP3   OH272252   0.806   5.472  14.677  0.5435  0.3559 -0.3349
16946TIP3    H172253   0.851   5.522  14.610 -0.4964 -0.1275 -1.4258
16946TIP3    H272254   0.769   5.538  14.736  1.6714  0.7743 -0.0712
16947TIP3   OH272255   3.619   6.122  13.073 -0.3957  0.6714  0.1899
16947TIP3    H172256   3.579   6.198  13.031 -0.8650  0.3206 -0.0138
16947TIP3    H272257   3.561   6.103  13.147  0.1233  0.9522  0.6772
16948TIP3   OH272258   1.622   4.766  16.977 -0.5098 -0.2187 -0.7491
16948TIP3    H172259   1.666   4.706  16.916  0.0071 -0.9306  0.2975
16948TIP3    H272260   1.693   4.822  17.010 -1.0064  1.1108 -1.8236
16949TIP3   OH272261   1.575   0.966  13.720 -0.5144 -0.2434  0.0166
16949TIP3    H172262   1.567   0.928  13.632  0.8849  1.2938 -0.8496
16949TIP3    H272263   1.665   0.946  13.746 -0.7113 -0.1192  0.8088
16950TIP3   OH272264   4.917   5.595   1.667  0.3839 -0.1477  0.1860
16950TIP3    H172265   4.831   5.634   1.680  1.2064  1.5079  1.1466
16950TIP3    H272266   4.958   5.649   1.600  0.6230 -1.0121 -0.3733
16951TIP3   OH272267   5.233   0.331   0.600 -0.1181  0.0719 -0.3496
16951TIP3    H172268   5.206   0.337   0.508 -0.9998  1.0583 -0.0439
16951TIP3    H272269   5.160   0.368   0.649 -0.1379 -1.4965  0.8565
16952TIP3   OH272270   5.593   3.716   2.649 -0.5619 -0.3983 -0.7179
16952TIP3    H172271   5.508   3.702   2.692 -1.1877  1.5696 -1.1991
16952TIP3    H272272   5.658   3.691   2.715 -1.5073  0.7522  0.7288
16953TIP3   OH272273   4.337   4.064   0.059  0.3315  0.1584 -0.3214
16953TIP3    H172274   4.418   4.052   0.009  1.2903 -0.3077  1.2692
16953TIP3    H272275   4.366   4.098   0.144 -1.1245 -0.2322  0.3652
16954TIP3   OH272276   5.752   2.215   4.375  0.5457  0.1200 -0.1871
16954TIP3    H172277   5.790   2.229   4.289  1.6149  1.7019  0.5071
16954TIP3    H272278   5.684   2.281   4.383 -0.5575 -0.9600 -0.3595
16955TIP3   OH272279   0.955   5.834   5.706  0.0787 -0.6579  0.5932
16955TIP3    H172280   1.008   5.755   5.720  1.8017  0.3910  0.3047
16955TIP3    H272281   0.914   5.820   5.620  2.5099 -0.1863 -0.7591
16956TIP3   OH272282   0.962   4.294   3.679  1.0461 -0.2092 -0.1913
16956TIP3    H172283   0.931   4.382   3.696  0.8817 -0.1864 -0.6175
16956TIP3    H272284   1.057   4.301   3.684  1.0355  0.0029 -0.2757
16957TIP3   OH272285   5.707   2.394  15.030 -0.5031  0.2400  0.2724
16957TIP3    H172286   5.779   2.421  15.086  0.4091  0.1838 -0.8222
16957TIP3    H272287   5.716   2.449  14.952 -1.0377 -0.4729 -0.3046
16958TIP3   OH272288   3.828   2.824   5.842  0.0729 -0.3191 -0.5563
16958TIP3    H172289   3.841   2.915   5.819 -0.7212 -0.2168 -0.6489
16958TIP3    H272290   3.830   2.822   5.938  2.0146 -0.5269 -0.5663
16959TIP3   OH272291   6.015   4.320   2.012  0.3307 -0.7060  0.0258
16959TIP3    H172292   5.995   4.252   1.949  0.3103 -0.7601  0.0906
16959TIP3    H272293   5.943   4.383   2.004  0.0250 -1.0018  0.4040
16960TIP3   OH272294   0.092   1.241  17.144 -0.0060  0.3748  0.3326
16960TIP3    H172295   0.141   1.262  17.224  0.2012  0.1393  0.2662
16960TIP3    H272296   0.156   1.198  17.087 -0.0007  1.0649 -0.1907
16961TIP3   OH272297   2.866   5.153  14.666  0.2954 -0.1444 -0.1087
16961TIP3    H172298   2.912   5.073  14.639  1.6016  0.5246  0.0934
16961TIP3    H272299   2.915   5.185  14.741 -0.0666  1.0070 -0.3554
16962TIP3   OH272300   6.519   4.910  11.212  0.2354  0.4069 -0.3173
16962TIP3    H172301   6.602   4.953  11.234  0.2266  0.0896  0.3474
16962TIP3    H272302   6.483   4.881  11.296 -0.0297 -0.4125 -0.7033
16963TIP3   OH272303   5.307   5.419   5.889 -0.1667 -0.5110  0.7585
16963TIP3    H172304   5.257   5.351   5.844 -0.5803  0.0127  0.4089
16963TIP3    H272305   5.398   5.392   5.881 -0.2327 -0.4429 -0.3981
16964TIP3   OH272306   5.543   3.785  15.468  0.5419  0.0881  0.3259
16964TIP3    H172307   5.629   3.828  15.467 -0.3744  2.0307  0.2383
16964TIP3    H272308   5.562   3.693  15.452  2.5506  0.6158 -0.6922
16965TIP3   OH272309   0.525   4.668  16.901  0.0320 -0.3409  0.0182
16965TIP3    H172310   0.437   4.630  16.904  0.3281 -1.1401 -1.1220
16965TIP3    H272311   0.509   4.763  16.893 -0.8009 -0.6484 -3.1552
16966TIP3   OH272312   0.299   0.647   6.283 -0.0955 -0.2399  0.4188
16966TIP3    H172313   0.288   0.555   6.306  1.0424 -0.3118  0.7519
16966TIP3    H272314   0.261   0.695   6.357 -1.1720 -0.4236  0.0015
16967TIP3   OH272315   1.421   5.014   5.791 -0.3430 -0.7460 -0.3049
16967TIP3    H172316   1.418   4.931   5.745 -0.5424 -1.0446  0.2362
16967TIP3    H272317   1.476   4.998   5.868  1.6562  0.2707 -1.4330
16968TIP3   OH272318   5.327   6.289   3.644 -0.0258 -0.1354  0.1555
16968TIP3    H172319   5.277   6.334   3.712  2.1535 -0.9214  2.4583
16968TIP3    H272320   5.262   6.246   3.590 -2.0144  2.9008 -0.1024
16969TIP3   OH272321   5.354   5.772   2.097 -0.3513  0.0342  0.6620
16969TIP3    H172322   5.439   5.733   2.117 -0.6420 -1.5497 -0.9429
16969TIP3    H272323   5.293   5.726   2.155 -0.1858  0.9154  1.5555
16970TIP3   OH272324   2.645   0.232  16.780 -0.0527 -0.3146 -0.4810
16970TIP3    H172325   2.641   0.251  16.686 -0.9713 -2.5891 -0.9802
16970TIP3    H272326   2.608   0.144  16.788  0.2338 -0.2827  2.0035
16971TIP3   OH272327   6.647   4.047  11.041  0.1200  0.5207  0.0871
16971TIP3    H172328   6.656   3.988  11.116 -0.3671  1.4183  0.8677
16971TIP3    H272329   6.733   4.090  11.034 -0.1381  1.1707  0.7737
16972TIP3   OH272330   6.260   3.259  14.127 -0.5129 -0.2490 -0.2755
16972TIP3    H172331   6.261   3.216  14.041 -1.0526 -0.5343 -0.1495
16972TIP3    H272332   6.204   3.202  14.181 -1.8319  0.9709 -0.2914
16973TIP3   OH272333   1.146   3.373   2.918 -0.1139 -0.0216 -0.3747
16973TIP3    H172334   1.050   3.375   2.910 -0.0873 -0.1793 -0.7128
16973TIP3    H272335   1.177   3.346   2.832  0.0935 -3.3287  0.6031
16974TIP3   OH272336   4.721   3.071  11.135 -0.1856  0.1858  0.5270
16974TIP3    H172337   4.630   3.089  11.109 -0.2888  0.4665  1.0619
16974TIP3    H272338   4.756   3.017  11.064  0.1506  2.5140 -1.1896
16975TIP3   OH272339   0.355   1.457   1.875 -0.7592  0.3295 -0.0459
16975TIP3    H172340   0.321   1.547   1.876 -1.5673  0.0691  2.2537
16975TIP3    H272341   0.346   1.429   1.785 -3.3144  1.5496 -0.2602
16976TIP3   OH272342   1.084   4.477   3.217 -0.2980  0.4947 -0.4153
16976TIP3    H172343   1.124   4.403   3.262 -0.6685 -0.2111 -1.2151
16976TIP3    H272344   1.150   4.547   3.221 -1.2035  1.3614  3.3625
16977TIP3   OH272345   4.706   5.741  12.814 -0.2170  0.0050 -0.1724
16977TIP3    H172346   4.713   5.833  12.838  0.3974 -0.1421  0.2304
16977TIP3    H272347   4.727   5.738  12.721  0.1440  0.2217 -0.0975
16978TIP3   OH272348   4.652   1.186  12.287  0.4623  0.5331 -0.7408
16978TIP3    H172349   4.651   1.204  12.193  0.7841  1.3595 -0.5971
16978TIP3    H272350   4.635   1.271  12.328 -1.0072 -0.0519 -0.0606
16979TIP3   OH272351   3.822   5.352  16.903 -0.1469  0.5017 -0.1169
16979TIP3    H172352   3.728   5.356  16.888  0.0209  0.4753 -1.3168
16979TIP3    H272353   3.835   5.273  16.955 -0.6320 -0.5377 -1.5198
16980TIP3   OH272354   0.354   4.154   1.761 -0.1807 -0.2981 -0.3414
16980TIP3    H172355   0.353   4.119   1.850 -0.7702 -1.7010 -0.8708
16980TIP3    H272356   0.345   4.248   1.772  3.0960 -0.0410  1.2211
16981TIP3   OH272357   2.686   4.816  15.147  0.3345  0.3659  0.4443
16981TIP3    H172358   2.762   4.861  15.182  1.2960 -0.9806  0.1550
16981TIP3    H272359   2.649   4.768  15.221  0.6263 -0.1264  0.2755
16982TIP3   OH272360   4.718   5.371  15.248  0.1378  0.2852  0.4653
16982TIP3    H172361   4.655   5.386  15.318  0.0903  0.1518  0.4534
16982TIP3    H272362   4.725   5.275  15.243  1.7997  0.2967  1.7675
16983TIP3   OH272363   6.267   3.445  13.206 -0.0285  0.2017  0.5567
16983TIP3    H172364   6.334   3.380  13.228  0.6067  0.6138 -0.0817
16983TIP3    H272365   6.315   3.529  13.207 -0.1753  0.3635 -1.2744
16984TIP3   OH272366   4.964   3.886   4.739 -0.9261 -0.0306  0.3247
16984TIP3    H172367   4.911   3.962   4.764 -1.2266  0.0663 -0.5620
16984TIP3    H272368   4.943   3.871   4.647  1.7628  0.9978 -0.5627
16985TIP3   OH272369   6.200   6.662  16.161 -0.4331  0.2649 -0.5599
16985TIP3    H172370   6.202   6.747  16.117  0.8390 -0.4467 -1.9811
16985TIP3    H272371   6.288   6.651  16.196 -0.1581 -1.0332 -1.5828
16986TIP3   OH272372   5.095   1.828  15.868 -0.5647 -0.9568  0.2758
16986TIP3    H172373   5.058   1.764  15.807 -1.4161 -1.5116  1.3266
16986TIP3    H272374   5.115   1.777  15.946  1.3677 -0.4313  0.1718
16987TIP3   OH272375   5.715   1.184   7.071 -0.1358 -0.0995 -0.0817
16987TIP3    H172376   5.782   1.206   7.007 -0.8623  0.2179 -0.7627
16987TIP3    H272377   5.652   1.256   7.065 -0.8600 -0.7074  0.0799
16988TIP3   OH272378   5.740   3.377  14.719 -0.3202  0.3716  0.3809
16988TIP3    H172379   5.707   3.328  14.795  3.3403  0.4726  2.2514
16988TIP3    H272380   5.813   3.324  14.687 -0.8240  1.1146 -2.2222
16989TIP3   OH272381   1.188   3.783   6.226  0.3885 -0.3943 -0.7408
16989TIP3    H172382   1.104   3.740   6.239  1.2181 -1.3536  2.0250
16989TIP3    H272383   1.165   3.873   6.200 -1.5503 -0.3533  0.8727
16990TIP3   OH272384   0.607   0.689  15.875  0.0889 -0.3054  0.2946
16990TIP3    H172385   0.542   0.635  15.831  0.5318 -1.1731  0.6757
16990TIP3    H272386   0.673   0.706  15.808 -0.3585  0.2946  0.0006
16991TIP3   OH272387   6.724   0.456   4.017 -0.0370 -0.1543  0.2411
16991TIP3    H172388   6.708   0.434   4.109  0.6481  2.1934  0.9842
16991TIP3    H272389   6.642   0.494   3.986  0.5660  1.6316  0.7491
16992TIP3   OH272390   2.253   1.295  16.305  0.2516 -0.5633  0.3555
16992TIP3    H172391   2.245   1.385  16.336  0.3476  0.5540 -2.5571
16992TIP3    H272392   2.342   1.289  16.272 -0.2604 -1.2002 -0.9566
16993TIP3   OH272393   2.154   1.982  14.035 -0.4052 -0.3804 -0.0512
16993TIP3    H172394   2.107   1.912  13.989 -0.6707 -0.7155  0.7274
16993TIP3    H272395   2.088   2.049  14.050  0.0258  0.4076 -1.5094
16994TIP3   OH272396   4.772   5.475   0.746  0.2107 -0.1267 -0.4606
16994TIP3    H172397   4.843   5.456   0.685  0.4531  0.9049 -0.5138
16994TIP3    H272398   4.801   5.438   0.830  0.9961  0.6514 -0.3818
16995TIP3   OH272399   1.385   1.196  12.916  0.1412  0.4956  0.2438
16995TIP3    H172400   1.472   1.206  12.878 -0.0266  1.5405  0.1044
16995TIP3    H272401   1.351   1.115  12.877  1.0803  0.0272  0.3830
16996TIP3   OH272402   3.141   1.913  13.468 -0.0479 -0.2523  0.2402
16996TIP3    H172403   3.154   1.835  13.523  0.1263  0.1146  0.7182
16996TIP3    H272404   3.057   1.897  13.425  0.4215 -1.1403 -0.3921
16997TIP3   OH272405   0.249   5.621  13.286 -0.3679 -0.9654  0.5445
16997TIP3    H172406   0.327   5.667  13.316 -0.4949 -0.8037  0.6268
16997TIP3    H272407   0.250   5.634  13.191 -0.6268 -0.4398  0.6102
16998TIP3   OH272408   6.739   5.925   2.434  0.1678 -0.0864 -0.7193
16998TIP3    H172409   6.757   5.922   2.528 -1.4395 -0.0878 -0.3711
16998TIP3    H272410   6.816   5.887   2.393  0.1437 -1.8091  0.7227
16999TIP3   OH272411   0.552   5.845  15.328 -0.7954  0.2386  0.1147
16999TIP3    H172412   0.572   5.930  15.367 -2.7828  0.8982 -0.1863
16999TIP3    H272413   0.518   5.792  15.400 -0.8203  0.1528  0.0412
17000TIP3   OH272414   6.097   1.859  14.835 -0.0417  0.4149  0.3820
17000TIP3    H172415   6.003   1.871  14.850  0.0146 -1.3092  2.5804
17000TIP3    H272416   6.102   1.806  14.755 -1.0816 -1.3259  1.4130
17001TIP3   OH272417   5.657   3.384   4.422  0.1880 -0.0871  0.4699
17001TIP3    H172418   5.598   3.456   4.446 -1.1855 -0.7810 -0.6548
17001TIP3    H272419   5.655   3.325   4.497  0.8759  0.7646  1.1686
17002TIP3   OH272420   1.796   1.353   5.609 -0.6548 -0.0037 -0.0151
17002TIP3    H172421   1.794   1.337   5.703  0.3459 -1.5920 -0.2198
17002TIP3    H272422   1.711   1.323   5.577 -0.2070 -1.4653  0.1230
17003TIP3   OH272423   5.130   1.778  16.129 -0.3924 -0.1087  0.3374
17003TIP3    H172424   5.036   1.767  16.118 -0.1570 -1.6270 -0.2992
17003TIP3    H272425   5.162   1.692  16.155  0.9536  0.1368 -0.4265
17004TIP3   OH272426   2.846   1.380   3.093 -0.2869 -0.3469 -0.4458
17004TIP3    H172427   2.800   1.463   3.103  0.7019 -0.0454  2.5996
17004TIP3    H272428   2.828   1.333   3.174  2.7392 -1.2226 -0.1613
17005TIP3   OH272429   3.619   2.015  16.118  0.0605 -0.0251  0.2040
17005TIP3    H172430   3.583   1.939  16.163 -0.3700  0.3683  0.5355
17005TIP3    H272431   3.713   2.012  16.137 -0.0320 -0.1858  0.6615
17006TIP3   OH272432   5.250   0.029  13.176 -0.3832 -0.0876 -0.0456
17006TIP3    H172433   5.339   0.006  13.201 -0.4542 -2.9648 -1.9385
17006TIP3    H272434   5.195  -0.016  13.239 -0.5074  0.1557  0.0189
17007TIP3   OH272435   2.481   3.558  14.968 -0.1664  0.7105  0.0840
17007TIP3    H172436   2.509   3.467  14.971 -0.1339  0.7251  0.2131
17007TIP3    H272437   2.562   3.608  14.961 -0.0822  0.8105  1.4544
17008TIP3   OH272438   1.080   3.852  12.295  0.4759 -0.1438  0.0259
17008TIP3    H172439   1.086   3.785  12.363  0.5950 -1.0563 -0.8708
17008TIP3    H272440   1.075   3.804  12.213  0.7043  0.9468 -0.6553
17009TIP3   OH272441   2.399   0.609  14.272  0.6972  0.0198 -0.7551
17009TIP3    H172442   2.418   0.600  14.366  0.8657  1.4241 -0.6349
17009TIP3    H272443   2.479   0.646  14.235  0.3490  0.2232 -1.3168
17010TIP3   OH272444   4.184   4.798   1.046  0.2127  0.1201  0.3984
17010TIP3    H172445   4.096   4.759   1.050  0.1974  0.2787  2.3561
17010TIP3    H272446   4.231   4.742   0.984 -0.2443 -2.2276  2.0174
17011TIP3   OH272447   2.237   2.630  13.873  0.2407  0.0360 -0.2256
17011TIP3    H172448   2.310   2.570  13.857  0.5107  0.3725 -0.2902
17011TIP3    H272449   2.176   2.614  13.801 -1.2145 -2.3664  1.3795
17012TIP3   OH272450   5.686   0.231  17.055 -0.0612 -0.4735  0.0203
17012TIP3    H172451   5.717   0.148  17.092  2.9691  0.2598 -0.6061
17012TIP3    H272452   5.611   0.255  17.109 -0.6604 -3.3041  0.5977
17013TIP3   OH272453   6.634   6.321  11.238 -0.1744 -0.0694 -0.1776
17013TIP3    H172454   6.640   6.407  11.197 -1.3330  0.0758 -0.0533
17013TIP3    H272455   6.605   6.263  11.167 -1.2715  0.0104  0.1918
17014TIP3   OH272456   1.177   6.034   4.800 -0.1413 -0.1711  0.4405
17014TIP3    H172457   1.118   6.107   4.781  0.4588  0.1946 -0.0830
17014TIP3    H272458   1.128   5.977   4.859 -1.5947 -0.6683 -1.1718
17015TIP3   OH272459   5.438   3.450  13.515 -0.4154  0.3996  0.0350
17015TIP3    H172460   5.438   3.523  13.578  1.1144  0.9110 -0.5074
17015TIP3    H272461   5.516   3.399  13.537 -0.8242 -0.4114 -0.3499
17016TIP3   OH272462   0.009   6.684   3.671  0.2573 -0.3488  0.1687
17016TIP3    H172463   0.077   6.750   3.675 -0.4660  0.4076  0.3385
17016TIP3    H272464   0.056   6.600   3.671  1.2148  0.1674 -0.7279
17017TIP3   OH272465   1.377   3.651   6.672  0.9988  0.2393 -0.7183
17017TIP3    H172466   1.354   3.648   6.579  1.7110 -0.9091 -0.8852
17017TIP3    H272467   1.469   3.676   6.672  0.8407  0.8192 -0.2856
17018TIP3   OH272468   6.272   3.339  15.166  0.1449 -0.6821  0.0421
17018TIP3    H172469   6.284   3.293  15.250  3.1503  1.0384  0.6554
17018TIP3    H272470   6.226   3.420  15.190 -0.5318 -0.9590 -0.2813
17019TIP3   OH272471   0.442   4.114   1.501 -0.0616 -0.1210 -0.2179
17019TIP3    H172472   0.407   4.193   1.462 -0.7297  0.4541  1.4685
17019TIP3    H272473   0.412   4.116   1.592  1.4441 -1.3694  0.3604
17020TIP3   OH272474   1.141   0.058   4.843 -0.1397  0.6072 -0.0597
17020TIP3    H172475   1.090   0.130   4.879 -0.3571  1.1135 -1.3093
17020TIP3    H272476   1.089  -0.020   4.862 -0.2841  0.8602  0.6171
17021TIP3   OH272477   1.872   0.060   0.152 -0.5061 -0.3414 -0.3305
17021TIP3    H172478   1.847  -0.027   0.123 -1.5808 -0.2508  0.2722
17021TIP3    H272479   1.935   0.090   0.087 -1.6713 -0.7542 -1.7101
17022TIP3   OH272480   6.673   2.352   1.015  0.4469 -0.1383 -0.3093
17022TIP3    H172481   6.665   2.262   1.046  2.3506 -0.1848  0.1919
17022TIP3    H272482   6.748   2.387   1.063 -0.0157  1.5936 -0.7928
17023TIP3   OH272483   5.743   1.108   2.914  0.0724 -0.1085 -0.4968
17023TIP3    H172484   5.828   1.065   2.924  0.0347 -0.2158 -0.6348
17023TIP3    H272485   5.714   1.085   2.825 -0.8056 -1.3418  0.0831
17024TIP3   OH272486   2.880   4.179  14.610  0.0427 -0.9377 -0.6107
17024TIP3    H172487   2.827   4.175  14.690  1.6635 -0.9248  0.5429
17024TIP3    H272488   2.829   4.233  14.549 -0.0377  1.5311  1.4454
17025TIP3   OH272489   3.011   4.231  12.339 -0.1710  0.1012  0.0660
17025TIP3    H172490   3.092   4.270  12.371  0.5580  0.3456 -1.8910
17025TIP3    H272491   3.033   4.201  12.250 -1.4998 -2.1714  0.4081
17026TIP3   OH272492   5.883   5.592  15.924  0.3480  0.0359  0.2574
17026TIP3    H172493   5.832   5.643  15.987  0.7475 -0.7214  1.2231
17026TIP3    H272494   5.961   5.566  15.972 -0.0208 -1.8021 -0.0717
17027TIP3   OH272495   0.489   2.603  11.426  0.4103  0.2949  0.0684
17027TIP3    H172496   0.570   2.634  11.466  0.1246  0.9625  0.1427
17027TIP3    H272497   0.517   2.546  11.354  0.9401 -1.2184  1.4019
17028TIP3   OH272498   0.118   5.847  15.351 -0.2223 -0.6337 -0.1346
17028TIP3    H172499   0.189   5.784  15.357 -1.2783 -1.8770 -0.1503
17028TIP3    H272500   0.132   5.891  15.267  2.2028  1.3255  1.1728
17029TIP3   OH272501   0.408   5.386   1.614  0.2181 -0.1419 -0.5244
17029TIP3    H172502   0.369   5.471   1.594 -0.0466  0.0270  0.5942
17029TIP3    H272503   0.451   5.359   1.533 -1.9109 -0.1610 -1.7237
17030TIP3   OH272504   2.541   4.685  14.155  0.0881  0.2798 -0.4803
17030TIP3    H172505   2.539   4.775  14.122  0.9648  0.2030 -0.7646
17030TIP3    H272506   2.543   4.694  14.251 -3.9555  0.4916 -0.2555
17031TIP3   OH272507   2.262   2.446  14.859  0.2777  0.2350  0.2815
17031TIP3    H172508   2.280   2.533  14.823  2.3348 -0.1080  0.3581
17031TIP3    H272509   2.343   2.397  14.844 -0.6810 -1.5292  0.6637
17032TIP3   OH272510   3.952   0.809  16.079 -0.0555  0.0550  0.4438
17032TIP3    H172511   3.930   0.724  16.042  0.3971 -0.6774  1.8159
17032TIP3    H272512   4.042   0.799  16.111 -0.8330  0.2711  2.8198
17033TIP3   OH272513   0.616   5.391  14.485 -0.5180  0.6404 -0.3199
17033TIP3    H172514   0.617   5.297  14.465 -0.8724  0.2254  1.4684
17033TIP3    H272515   0.693   5.405  14.539 -1.3315  1.0517  0.7568
17034TIP3   OH272516   0.351   5.094   2.394 -0.1732  0.5869  0.1647
17034TIP3    H172517   0.280   5.118   2.454 -0.9700 -0.9086 -0.1337
17034TIP3    H272518   0.430   5.095   2.448 -0.4503  2.0029  0.5664
17035TIP3   OH272519   0.437   2.019   1.007  0.3117  0.7375  0.1208
17035TIP3    H172520   0.532   2.014   1.022  0.4690 -0.3038 -1.0934
17035TIP3    H272521   0.399   1.991   1.090  1.0686  1.0056  0.5722
17036TIP3   OH272522   6.588   1.250   4.727  0.6598  0.1558  0.2046
17036TIP3    H172523   6.665   1.193   4.737 -0.0819 -1.4552 -2.4665
17036TIP3    H272524   6.515   1.197   4.758  0.2777  0.6636  0.1781
17037TIP3   OH272525   5.737   0.849  15.164 -0.4320  0.0127 -0.2263
17037TIP3    H172526   5.672   0.904  15.206 -0.9456 -0.1207 -0.8297
17037TIP3    H272527   5.821   0.879  15.200 -0.9099 -0.9094  1.8281
17038TIP3   OH272528   1.428   1.245   4.395 -0.0477 -0.0271  0.0633
17038TIP3    H172529   1.413   1.314   4.330 -0.2511  1.4984  1.6596
17038TIP3    H272530   1.357   1.257   4.459  0.0909 -1.5445  0.5312
17039TIP3   OH272531   4.570   5.341   3.815  0.2584 -0.9048  0.1225
17039TIP3    H172532   4.559   5.397   3.892 -0.5962 -0.1338 -0.5378
17039TIP3    H272533   4.643   5.283   3.838  2.1951  1.4573  0.2768
17040TIP3   OH272534   4.841   6.632  15.847 -0.4033 -0.3106  0.0015
17040TIP3    H172535   4.906   6.598  15.786 -1.5504 -3.3911  0.3370
17040TIP3    H272536   4.880   6.712  15.881  2.6715 -1.3925 -0.6941
17041TIP3   OH272537   0.398   2.639   2.962  0.1887 -0.7129 -0.0160
17041TIP3    H172538   0.347   2.720   2.972  0.2204 -0.7579  0.5623
17041TIP3    H272539   0.369   2.583   3.034  0.6798 -0.9397  0.0120
17042TIP3   OH272540   4.428   6.432  16.254  0.5791 -0.3286  0.1267
17042TIP3    H172541   4.524   6.427  16.253  0.5870 -0.1335 -0.3706
17042TIP3    H272542   4.408   6.482  16.334  0.8710 -0.6644  0.4156
17043TIP3   OH272543   2.940   6.138  15.650 -0.1105 -0.1248 -0.1459
17043TIP3    H172544   2.909   6.058  15.606  0.1300  0.6740 -1.8563
17043TIP3    H272545   2.944   6.114  15.742 -0.7123 -1.8799 -0.5246
17044TIP3   OH272546   2.652   3.271   0.674 -0.3114 -0.1655 -0.6015
17044TIP3    H172547   2.718   3.327   0.633 -0.0898  1.3216  1.6308
17044TIP3    H272548   2.574   3.282   0.619  0.9408 -1.1623 -2.6972
17045TIP3   OH272549   5.798   4.540  16.360  0.8646  0.4171 -0.3675
17045TIP3    H172550   5.879   4.582  16.331  1.0349 -0.8570 -1.8620
17045TIP3    H272551   5.817   4.446  16.356  0.5719  0.0810  3.0900
17046TIP3   OH272552   3.976   4.674   1.723  0.0925 -0.2833 -0.3066
17046TIP3    H172553   4.005   4.604   1.783 -0.2706 -0.1043  0.0869
17046TIP3    H272554   3.923   4.628   1.657 -0.6739 -0.3136  0.3077
17047TIP3   OH272555   1.348   6.590   1.215  0.1896  0.3515  0.0673
17047TIP3    H172556   1.303   6.537   1.150  0.9793  1.8509 -1.8228
17047TIP3    H272557   1.279   6.641   1.257 -0.3329 -0.6171  0.3971
17048TIP3   OH272558   4.981   0.252  12.362 -0.4548 -0.3210 -0.1087
17048TIP3    H172559   5.067   0.238  12.401 -1.1947 -0.9483  1.3748
17048TIP3    H272560   4.951   0.335  12.398 -0.3824  0.0145 -0.8077
17049TIP3   OH272561   1.829   3.172   3.953 -0.0085 -0.3609 -0.4434
17049TIP3    H172562   1.830   3.220   4.036  1.6227 -1.3474  0.1706
17049TIP3    H272563   1.831   3.079   3.979 -0.7729 -0.7193 -1.5990
17050TIP3   OH272564   5.915   5.693  13.739 -0.7235  0.2541  0.7029
17050TIP3    H172565   5.881   5.736  13.818 -1.2791 -1.2932  1.3411
17050TIP3    H272566   5.877   5.744  13.667  0.4174  2.1752  1.3763
17051TIP3   OH272567   0.140   2.646   4.853  0.0961  0.1134 -0.1133
17051TIP3    H172568   0.049   2.649   4.883 -0.2576 -0.6466 -1.0647
17051TIP3    H272569   0.175   2.732   4.874 -1.2047  0.8466 -0.8289
17052TIP3   OH272570   0.333   2.350  11.528  1.0035 -0.1754  0.1972
17052TIP3    H172571   0.380   2.295  11.465  1.8151  0.7495 -0.0279
17052TIP3    H272572   0.357   2.440  11.504 -2.7687  0.6005 -1.5171
17053TIP3   OH272573   5.259   3.741   2.392 -0.0769 -0.3466 -0.3048
17053TIP3    H172574   5.167   3.760   2.371  0.6028  2.6798 -1.0230
17053TIP3    H272575   5.264   3.752   2.487 -0.6554 -1.6763 -0.1035
17054TIP3   OH272576   4.936   2.414   5.789  0.3455 -0.0664  0.3707
17054TIP3    H172577   4.880   2.455   5.723  1.5764  1.1964  0.0319
17054TIP3    H272578   5.022   2.411   5.747  0.7219 -1.1293  1.1867
17055TIP3   OH272579   6.352   6.338   0.775  0.0334 -0.4584  0.6346
17055TIP3    H172580   6.410   6.332   0.699 -0.8068  0.4860 -0.1007
17055TIP3    H272581   6.411   6.331   0.850  1.1077  0.3584 -0.0951
17056TIP3   OH272582   3.386   5.792   2.160  0.0878 -0.4344 -0.3186
17056TIP3    H172583   3.389   5.722   2.094  1.5454 -0.7064  0.0102
17056TIP3    H272584   3.460   5.774   2.217  0.8089  1.6794 -0.5210
17057TIP3   OH272585   2.246   1.475  15.460 -0.0368 -0.4727  0.8213
17057TIP3    H172586   2.269   1.566  15.442 -1.9809 -0.0974 -0.0399
17057TIP3    H272587   2.300   1.424  15.400 -0.2482  0.2573 -0.0125
17058TIP3   OH272588   2.031   3.168  16.279  0.2755 -0.0012 -0.8469
17058TIP3    H172589   2.022   3.263  16.286  0.0150 -0.0863  0.1372
17058TIP3    H272590   2.124   3.153  16.264  0.4350  0.3772 -0.2443
17059TIP3   OH272591   0.665   0.709  11.846  0.0774  0.1318 -0.3318
17059TIP3    H172592   0.596   0.695  11.910  1.3806  0.6880  1.2623
17059TIP3    H272593   0.660   0.802  11.825  1.4608  0.6084  1.2220
17060TIP3   OH272594   0.838   6.228   1.679  0.4288  0.1526  0.6388
17060TIP3    H172595   0.775   6.220   1.607  1.4938 -0.3620 -0.2552
17060TIP3    H272596   0.858   6.138   1.705  0.2304  0.3268  1.4431
17061TIP3   OH272597   6.381   0.726  15.516  0.4609 -0.3961 -0.2078
17061TIP3    H172598   6.352   0.642  15.481  1.4429 -1.9519  2.3874
17061TIP3    H272599   6.336   0.734  15.600 -0.2107  2.1229 -0.7226
17062TIP3   OH272600   1.159   5.301   0.117 -0.0151  0.1690 -0.3224
17062TIP3    H172601   1.255   5.308   0.124  0.0950 -0.7028 -0.7186
17062TIP3    H272602   1.136   5.361   0.046  0.2251  0.4782 -0.1389
17063TIP3   OH272603   5.300   5.774   3.825  0.8890 -0.8143 -0.5364
17063TIP3    H172604   5.226   5.712   3.823  0.5947 -0.4473 -1.2511
17063TIP3    H272605   5.282   5.829   3.901  1.4717 -1.9757  0.4891
17064TIP3   OH272606   4.081   5.351   1.401  0.4880 -0.6057 -0.3345
17064TIP3    H172607   4.151   5.349   1.467  0.4502  0.0428 -0.2710
17064TIP3    H272608   4.089   5.438   1.361 -0.4322 -0.4334 -0.1550
17065TIP3   OH272609   5.036   4.635   1.769 -0.0178 -0.1110  0.1282
17065TIP3    H172610   4.943   4.644   1.793 -0.2002 -3.1353  1.0156
17065TIP3    H272611   5.081   4.628   1.852  0.9996  0.9572 -0.3131
17066TIP3   OH272612   1.896   6.279   2.254  0.1270 -0.9616 -0.2016
17066TIP3    H172613   1.840   6.216   2.207 -1.2681 -1.4609  1.9862
17066TIP3    H272614   1.985   6.247   2.240 -0.3261 -1.7646 -1.4817
17067TIP3   OH272615   3.248   5.405   6.656 -0.5238 -0.1180 -0.2026
17067TIP3    H172616   3.219   5.336   6.716  2.4444 -0.0335  1.5041
17067TIP3    H272617   3.256   5.361   6.571 -1.1662 -1.2025  0.2715
17068TIP3   OH272618   6.212   2.510  16.652  0.0440 -0.7479  0.4287
17068TIP3    H172619   6.259   2.523  16.734 -1.0821 -0.8112  1.0990
17068TIP3    H272620   6.250   2.430  16.615  0.5537 -0.7181  0.8768
17069TIP3   OH272621   4.610   6.701   4.058  0.4390  0.0492  0.0475
17069TIP3    H172622   4.663   6.622   4.049  0.2023  0.0173 -1.2888
17069TIP3    H272623   4.532   6.684   4.006  0.3896  1.1685 -0.2801
17070TIP3   OH272624   4.317   5.530  13.254  0.3217 -0.2197  0.1834
17070TIP3    H172625   4.319   5.562  13.164 -0.0998 -1.5406 -0.3080
17070TIP3    H272626   4.225   5.538  13.281  0.1019 -1.4606 -0.1300
17071TIP3   OH272627   0.942   4.695   5.203 -0.0222  0.0838  0.3446
17071TIP3    H172628   0.941   4.599   5.206 -2.0610  0.0694  0.6359
17071TIP3    H272629   0.870   4.718   5.144  1.3062  1.4354 -0.8272
17072TIP3   OH272630   0.154   5.672   0.448 -0.0364  0.7421  0.6339
17072TIP3    H172631   0.173   5.618   0.372 -0.9958 -1.0330  1.5759
17072TIP3    H272632   0.234   5.723   0.462  0.5315  0.3353 -0.9183
17073TIP3   OH272633   4.845   2.088  12.103 -0.2033 -0.0806  0.1176
17073TIP3    H172634   4.884   2.099  12.016 -0.6195 -1.3821 -0.2626
17073TIP3    H272635   4.765   2.141  12.101  0.0257  0.2536 -0.1374
17074TIP3   OH272636   3.525   3.025  12.339 -0.3780 -0.4035 -0.7666
17074TIP3    H172637   3.585   2.951  12.328  0.5540  0.1799  0.1688
17074TIP3    H272638   3.555   3.067  12.419 -0.7830  1.0850 -1.3739
17075TIP3   OH272639   2.395   1.536  11.869  0.5208  0.3276  0.0440
17075TIP3    H172640   2.403   1.628  11.844  0.3707  0.1290 -0.7761
17075TIP3    H272641   2.486   1.507  11.884  0.6073  0.4863 -0.1707
17076TIP3   OH272642   4.774   2.827  14.833 -0.7523 -0.1545 -0.1142
17076TIP3    H172643   4.703   2.767  14.810 -0.8379 -0.1560  0.1482
17076TIP3    H272644   4.846   2.769  14.859 -1.0234 -0.1440  0.6972
17077TIP3   OH272645   6.459   3.865   5.509  0.5364 -0.2378 -0.5518
17077TIP3    H172646   6.364   3.857   5.519  0.4927 -0.9575 -1.4043
17077TIP3    H272647   6.495   3.800   5.569  0.6529  2.1864  2.2292
17078TIP3   OH272648   1.740   5.571  11.419 -0.0517 -0.0513  0.6266
17078TIP3    H172649   1.678   5.579  11.347  0.0006  0.9948  0.6717
17078TIP3    H272650   1.691   5.602  11.496  1.0772  2.8584  0.3152
17079TIP3   OH272651   3.202   4.969  15.287  0.6332 -0.2674  0.0101
17079TIP3    H172652   3.271   4.944  15.226 -0.1970 -3.4859  0.2347
17079TIP3    H272653   3.158   5.042  15.243  2.7627  0.4367 -1.1240
17080TIP3   OH272654   6.761   3.440   5.054 -0.7690 -0.3368  0.1420
17080TIP3    H172655   6.747   3.472   4.964 -1.5220  2.1907  1.0773
17080TIP3    H272656   6.805   3.513   5.098 -4.7723  0.6531  3.0880
17081TIP3   OH272657   4.259   3.029   1.644  0.1764 -1.0621  0.1540
17081TIP3    H172658   4.177   3.077   1.657 -0.1523 -1.8445  1.0849
17081TIP3    H272659   4.312   3.087   1.589 -0.3504  0.1921  0.9273
17082TIP3   OH272660   1.039   2.339   5.213  0.0105 -0.0345 -0.4757
17082TIP3    H172661   1.052   2.407   5.280  0.6756 -0.2428 -0.3900
17082TIP3    H272662   0.969   2.374   5.158 -0.1342  0.4104 -0.0214
17083TIP3   OH272663   0.037   1.091  12.730 -0.0290  0.2441 -0.3226
17083TIP3    H172664   0.017   1.071  12.822  0.4886  2.3710  0.3042
17083TIP3    H272665  -0.014   1.027  12.680 -3.3197  1.3258  1.3539
17084TIP3   OH272666   2.444   1.433  15.857  0.3859 -0.0241 -0.0711
17084TIP3    H172667   2.370   1.376  15.835  1.3538 -0.7380 -1.6358
17084TIP3    H272668   2.445   1.499  15.788  1.5249 -0.3497 -0.3813
17085TIP3   OH272669   6.585   6.428  16.385  1.0447  0.4722 -0.2984
17085TIP3    H172670   6.623   6.370  16.318 -0.5598  0.4528 -1.2320
17085TIP3    H272671   6.621   6.395  16.467  2.7917  0.2687 -1.0951
17086TIP3   OH272672   4.079   0.304   5.264 -0.2780 -0.5431  0.4766
17086TIP3    H172673   4.119   0.302   5.177  1.2610  0.7947  1.0944
17086TIP3    H272674   4.135   0.248   5.318 -2.6961 -3.5285  0.1334
17087TIP3   OH272675   5.817   5.173  11.589 -0.0451  0.0715  0.2330
17087TIP3    H172676   5.890   5.171  11.527  2.3204  0.6880  2.8307
17087TIP3    H272677   5.797   5.080  11.605 -1.3454 -0.1248 -2.0026
17088TIP3   OH272678   2.493   1.653  15.651  0.3700 -0.2313  0.3075
17088TIP3    H172679   2.572   1.704  15.633  0.7072 -0.5447  0.8559
17088TIP3    H272680   2.427   1.687  15.590  0.3532  1.4006  1.1832
17089TIP3   OH272681   3.797   5.252   4.651 -0.3672 -0.1347 -0.2888
17089TIP3    H172682   3.723   5.295   4.694  1.0264 -0.4303  2.6542
17089TIP3    H272683   3.873   5.302   4.681  0.8707 -1.6152 -0.8603
17090TIP3   OH272684   4.188   2.188   5.962 -0.1293 -0.1221 -0.4685
17090TIP3    H172685   4.229   2.159   6.043 -0.3037 -0.1507 -0.3909
17090TIP3    H272686   4.130   2.117   5.937 -1.3262  0.5616  0.2625
17091TIP3   OH272687   1.768   5.259  13.065 -0.0068  0.0991  0.5635
17091TIP3    H172688   1.860   5.275  13.047 -0.3510  2.5050  0.5881
17091TIP3    H272689   1.759   5.274  13.160 -0.4280  0.0276  0.5399
17092TIP3   OH272690   0.935   3.616  11.798  0.7574 -0.4129 -0.3879
17092TIP3    H172691   1.025   3.621  11.764  0.9964  1.0401  0.4214
17092TIP3    H272692   0.892   3.695  11.764 -0.2293 -1.0807 -0.7452
17093TIP3   OH272693   4.175   2.486   0.399  0.6306  0.3049 -0.4811
17093TIP3    H172694   4.182   2.508   0.306  2.0339 -0.1997 -0.5169
17093TIP3    H272695   4.083   2.504   0.421  0.1163 -0.1461 -2.1078
17094TIP3   OH272696   0.719   0.623  12.821 -0.2622 -0.2988  0.5244
17094TIP3    H172697   0.784   0.552  12.818 -0.3786 -0.5030  2.0645
17094TIP3    H272698   0.636   0.579  12.836 -0.3216  0.1599  1.6020
17095TIP3   OH272699   2.523   2.762  12.088 -1.1780 -0.5397  0.2111
17095TIP3    H172700   2.483   2.824  12.026  0.1396  0.6727  0.5019
17095TIP3    H272701   2.586   2.713  12.035 -1.6572 -1.1024  0.1483
17096TIP3   OH272702   2.534   5.145  11.952 -0.4056 -0.2289 -0.7059
17096TIP3    H172703   2.479   5.087  11.899 -0.3237 -1.0312  0.0558
17096TIP3    H272704   2.621   5.106  11.947 -0.1648  0.3209 -0.8753
17097TIP3   OH272705   0.387   5.374  13.268  0.1976  0.1443  0.3131
17097TIP3    H172706   0.306   5.415  13.238 -0.7215 -2.1884 -0.6755
17097TIP3    H272707   0.437   5.445  13.309 -1.5335  2.0298 -0.6673
17098TIP3   OH272708   3.005   2.409   0.994 -0.3461 -1.0399 -0.5157
17098TIP3    H172709   3.057   2.464   1.052  0.3838 -2.0133 -0.2014
17098TIP3    H272710   3.050   2.414   0.910 -1.7130  0.8050 -1.1992
17099TIP3   OH272711   2.686   5.494  14.369  0.4320 -0.3892  0.8385
17099TIP3    H172712   2.687   5.534  14.456 -0.9902  0.7086  0.3929
17099TIP3    H272713   2.593   5.490  14.345  0.8578  1.5307 -1.5746
17100TIP3   OH272714   4.402   4.221  12.870  0.3942 -0.4146  0.1470
17100TIP3    H172715   4.469   4.155  12.886  1.9346  1.1589  0.6253
17100TIP3    H272716   4.440   4.302  12.904 -0.9463  0.9333 -1.3473
17101TIP3   OH272717   1.553   4.945  13.862  0.1275  0.1587 -0.1723
17101TIP3    H172718   1.574   4.961  13.954  1.1252 -0.0094 -0.3562
17101TIP3    H272719   1.467   4.984  13.850  0.4226  1.0913  0.5901
17102TIP3   OH272720   3.121   3.155   3.203  0.6362  0.0107  0.1025
17102TIP3    H172721   3.077   3.106   3.133  2.4226 -0.9613 -0.3933
17102TIP3    H272722   3.146   3.238   3.162  0.6684 -0.0893 -0.0814
17103TIP3   OH272723   0.704   2.907  16.247  0.0061  0.2554 -0.2227
17103TIP3    H172724   0.658   2.987  16.273 -0.2265 -0.1188  0.5782
17103TIP3    H272725   0.787   2.911  16.294  0.2403  0.3003 -0.6387
17104TIP3   OH272726   2.525   5.525  16.281 -0.3082  0.2583 -0.3824
17104TIP3    H172727   2.562   5.605  16.244  2.3703 -1.0946 -0.8779
17104TIP3    H272728   2.430   5.539  16.277  0.0317  3.2166 -0.7668
17105TIP3   OH272729   2.112   3.220  15.629 -0.1453 -0.3646 -0.0992
17105TIP3    H172730   2.035   3.237  15.575 -0.2650 -3.4060 -1.1020
17105TIP3    H272731   2.186   3.230  15.569  0.2029  1.5028  0.5922
17106TIP3   OH272732   3.175   5.468   2.915  0.5712  0.0100 -0.4017
17106TIP3    H172733   3.095   5.506   2.949  0.0974  1.3887 -2.8104
17106TIP3    H272734   3.153   5.442   2.825  2.4787 -0.7344 -0.7047
17107TIP3   OH272735   4.176   3.463   4.294  0.7262  0.7123 -0.2938
17107TIP3    H172736   4.161   3.469   4.389  0.2186  0.5895 -0.3635
17107TIP3    H272737   4.145   3.547   4.260  0.0326  0.3937 -0.4594
17108TIP3   OH272738   2.868   5.279  16.640 -0.4136 -0.3956 -0.0618
17108TIP3    H172739   2.773   5.270  16.631 -0.7443  1.4476  1.1149
17108TIP3    H272740   2.886   5.369  16.614  0.9229 -0.4872  0.4767
17109TIP3   OH272741   6.583   2.527  12.288  0.0696 -0.6473 -0.8132
17109TIP3    H172742   6.609   2.601  12.232  0.5681  0.0330  0.2690
17109TIP3    H272743   6.488   2.533  12.292  0.1837  1.1381  0.7599
17110TIP3   OH272744   2.833   3.019   0.853 -0.1658 -0.4733  0.2181
17110TIP3    H172745   2.835   2.944   0.793 -1.8517 -0.0958 -0.3473
17110TIP3    H272746   2.923   3.052   0.853  0.6833 -2.6352  0.6827
17111TIP3   OH272747   1.124   3.599   1.266 -0.2051 -0.0999 -0.0981
17111TIP3    H172748   1.218   3.599   1.286 -0.0379 -0.0685 -0.8549
17111TIP3    H272749   1.114   3.537   1.194 -0.9737 -1.0977  0.8500
17112TIP3   OH272750   3.849   5.169   6.672  0.3569  0.1797 -0.2862
17112TIP3    H172751   3.863   5.087   6.625 -0.5025 -0.7714  1.0282
17112TIP3    H272752   3.916   5.170   6.740 -0.1553  0.1370  0.2288
17113TIP3   OH272753   2.030   2.675  13.619  0.5735  0.2924  0.2259
17113TIP3    H172754   2.015   2.669  13.525 -0.1999 -1.2974  0.4196
17113TIP3    H272755   1.957   2.728  13.652  0.2376 -0.0681  0.0668
17114TIP3   OH272756   2.738   1.904  12.937  0.0143  0.1576 -0.1440
17114TIP3    H172757   2.752   1.809  12.941  1.4335  0.3890  2.0698
17114TIP3    H272758   2.747   1.925  12.844 -0.9024 -1.9207 -0.7748
17115TIP3   OH272759   3.884   6.359   1.272 -0.2273 -0.0419  0.5843
17115TIP3    H172760   3.893   6.444   1.316  1.0417 -1.0433  2.3587
17115TIP3    H272761   3.912   6.376   1.182 -1.6111  1.7664  0.4319
17116TIP3   OH272762   2.503   1.622   4.403  0.1859  0.6885  0.2191
17116TIP3    H172763   2.520   1.530   4.425 -1.4782  0.1976 -0.3706
17116TIP3    H272764   2.586   1.654   4.370  0.3057 -1.2157 -1.5436
17117TIP3   OH272765   0.706   3.714   4.324  0.3077  0.0045  0.1839
17117TIP3    H172766   0.665   3.796   4.297 -0.8219 -1.0278 -1.4683
17117TIP3    H272767   0.792   3.715   4.282  0.1283  0.1609 -0.1824
17118TIP3   OH272768   1.257   5.719  14.704 -0.5437 -0.2390  0.4511
17118TIP3    H172769   1.285   5.759  14.786  0.8946  0.2103 -0.2278
17118TIP3    H272770   1.237   5.794  14.647  0.5702 -0.4759 -0.2918
17119TIP3   OH272771   5.379   4.500  12.539 -0.8557 -0.3654 -0.1222
17119TIP3    H172772   5.441   4.529  12.606 -0.4637 -0.8784 -0.2601
17119TIP3    H272773   5.418   4.421  12.503 -0.8697  0.1175 -1.2314
17120TIP3   OH272774   5.376   0.457  17.034  0.0095 -0.2220 -0.1427
17120TIP3    H172775   5.296   0.475  17.083 -1.2845 -3.3105 -0.8329
17120TIP3    H272776   5.430   0.408  17.095 -0.2003 -1.2144 -0.7244
17121TIP3   OH272777   4.042   1.241   3.119 -0.1493  0.0372  0.0869
17121TIP3    H172778   4.109   1.212   3.057  0.1136  2.1915 -0.7235
17121TIP3    H272779   4.067   1.200   3.201  1.5009 -0.1678 -0.4693
17122TIP3   OH272780   3.677   2.670  14.320 -0.4139  0.2404 -0.4216
17122TIP3    H172781   3.765   2.653  14.287  0.6261 -0.0839  2.2492
17122TIP3    H272782   3.671   2.765  14.328 -0.3353  0.2661 -0.6850
17123TIP3   OH272783   5.140   2.621  12.170  0.3996  0.1217  0.1565
17123TIP3    H172784   5.090   2.701  12.186  0.3564  0.3835 -1.1710
17123TIP3    H272785   5.081   2.550  12.194 -1.0192  0.3917 -2.1845
17124TIP3   OH272786   3.659   3.537   0.256  0.2254 -0.1286 -0.4990
17124TIP3    H172787   3.626   3.544   0.345 -0.1169  1.2936 -0.7176
17124TIP3    H272788   3.634   3.449   0.228 -2.8032  0.5868 -0.4021
17125TIP3   OH272789   1.662   0.045   3.067  0.8796  0.3633  0.4182
17125TIP3    H172790   1.713   0.099   3.127  1.6710 -0.5063  0.5410
17125TIP3    H272791   1.655  -0.040   3.111  2.1769 -0.5609 -1.0411
17126TIP3   OH272792   3.377   0.822  13.529  0.1961  0.5354  0.0366
17126TIP3    H172793   3.365   0.751  13.466  0.5860  0.7646 -0.2946
17126TIP3    H272794   3.356   0.782  13.614 -1.3076  0.4978 -0.3347
17127TIP3   OH272795   3.636   0.222   3.372  0.0145 -0.1063  0.0557
17127TIP3    H172796   3.724   0.213   3.335  0.3366 -0.1138  0.8090
17127TIP3    H272797   3.650   0.260   3.459 -0.6785 -0.6937  0.4354
17128TIP3   OH272798   4.418   6.541   5.437 -0.3131 -0.7828 -0.1361
17128TIP3    H172799   4.463   6.457   5.444  1.0678 -0.1644 -1.0627
17128TIP3    H272800   4.486   6.603   5.410 -0.6600  1.2204  3.0493
17129TIP3   OH272801   3.434   2.032   0.046 -0.5074  0.2870  0.0254
17129TIP3    H172802   3.418   2.053  -0.046  0.2558  2.0019  0.2479
17129TIP3    H272803   3.486   2.105   0.078 -0.7656 -0.2840  1.8290
17130TIP3   OH272804   1.351   2.091  11.922  0.1229  0.1461  0.1775
17130TIP3    H172805   1.349   2.042  11.839  1.7692 -0.6606  0.5883
17130TIP3    H272806   1.412   2.162  11.906 -0.4696  0.7023  0.3446
17131TIP3   OH272807   3.593   0.320  15.259 -0.6338 -0.2128  0.1209
17131TIP3    H172808   3.572   0.227  15.254 -0.0765 -0.3450  0.1623
17131TIP3    H272809   3.687   0.325  15.239 -0.6937  0.3576 -0.0575
17132TIP3   OH272810   2.287   0.477   2.032  0.1265  0.2198  0.4931
17132TIP3    H172811   2.358   0.460   2.094  1.0010 -0.8963 -0.7380
17132TIP3    H272812   2.319   0.549   1.978 -0.1938  0.5160  0.6976
17133TIP3   OH272813   0.381   1.042  14.589 -0.2773  0.5486 -0.2674
17133TIP3    H172814   0.455   1.048  14.649 -0.3596 -1.1299  0.0530
17133TIP3    H272815   0.396   1.112  14.525  1.5625  0.2740 -0.1940
17134TIP3   OH272816   1.674   6.485   2.242 -0.2764 -0.1711 -0.3122
17134TIP3    H172817   1.741   6.423   2.213  0.4697 -1.2117  3.1790
17134TIP3    H272818   1.723   6.565   2.262 -0.3134 -0.3571  0.5627
17135TIP3   OH272819   0.768   2.424   2.843 -0.0151 -0.1150 -0.2697
17135TIP3    H172820   0.819   2.345   2.860  0.1085  0.2091  1.0353
17135TIP3    H272821   0.834   2.494   2.838 -0.1001 -0.1089 -1.6551
17136TIP3   OH272822   3.947   6.786  11.716  0.2730 -0.3496 -0.0579
17136TIP3    H172823   3.917   6.817  11.630  0.3857 -0.6909 -0.2215
17136TIP3    H272824   3.896   6.706  11.731 -0.6708  0.3788  0.7598
17137TIP3   OH272825   6.786   1.027   4.692 -0.1567 -0.3281  0.2979
17137TIP3    H172826   6.787   1.036   4.787 -2.0111 -0.3354  0.3516
17137TIP3    H272827   6.789   0.933   4.676 -2.7879 -0.5102  0.4939
17138TIP3   OH272828   2.523   0.752   5.480  0.0021  0.5439 -0.0394
17138TIP3    H172829   2.434   0.719   5.463  0.5405  0.0403 -2.1364
17138TIP3    H272830   2.551   0.704   5.558 -0.7374 -0.9785 -0.6695
17139TIP3   OH272831   3.826   2.991  16.305  0.4077  0.1955 -0.2023
17139TIP3    H172832   3.788   2.970  16.219 -0.9169  0.8383  0.1972
17139TIP3    H272833   3.907   3.037  16.284  0.5307 -0.3889 -1.0984
17140TIP3   OH272834   6.543   4.546  13.453 -0.0877 -0.3529  0.1213
17140TIP3    H172835   6.632   4.516  13.438 -0.3030 -0.6792 -0.5371
17140TIP3    H272836   6.521   4.598  13.375 -0.3490  0.0206  0.4383
17141TIP3   OH272837   4.051   1.620   5.293  0.3748 -0.6440  0.2032
17141TIP3    H172838   3.969   1.572   5.303 -0.6596  0.3521 -2.4951
17141TIP3    H272839   4.036   1.703   5.338  0.3328 -0.9234  0.7042
17142TIP3   OH272840   1.384   4.091  10.875  0.1462  0.3732  0.3881
17142TIP3    H172841   1.349   4.167  10.921  1.1912  0.4615  1.0727
17142TIP3    H272842   1.327   4.019  10.902  0.7379  0.4200  1.8656
17143TIP3   OH272843   3.763   2.621  10.912 -0.0772 -0.1895 -0.8058
17143TIP3    H172844   3.799   2.551  10.858 -0.3634 -0.6812 -0.3704
17143TIP3    H272845   3.839   2.664  10.950  0.0809 -0.9874 -0.1822
17144TIP3   OH272846   2.447   0.838  16.184 -0.1713  0.3455  0.1891
17144TIP3    H172847   2.379   0.875  16.241  0.0785  0.5327  0.3731
17144TIP3    H272848   2.518   0.815  16.245 -0.5329 -0.9368  0.1396
17145TIP3   OH272849   2.675   5.903  13.023  0.6389 -0.1094 -0.9739
17145TIP3    H172850   2.757   5.854  13.030  1.8795  1.9107 -0.8305
17145TIP3    H272851   2.628   5.860  12.952  1.0282 -2.3540  0.0185
17146TIP3   OH272852   4.319   1.316  12.876  0.0040 -0.1793 -0.2099
17146TIP3    H172853   4.370   1.262  12.936 -1.1291 -1.2816 -0.2070
17146TIP3    H272854   4.306   1.262  12.798  2.5595  1.6642 -2.1149
17147TIP3   OH272855   6.334   1.318  13.529 -0.1176 -0.3325  0.4604
17147TIP3    H172856   6.374   1.359  13.452 -0.2734  2.4101  1.7464
17147TIP3    H272857   6.253   1.367  13.543 -0.8202 -1.7208  1.5726
17148TIP3   OH272858   2.108   4.187   1.506  0.3025 -0.1401 -0.0742
17148TIP3    H172859   2.170   4.144   1.448 -0.1361  1.2355 -1.6479
17148TIP3    H272860   2.023   4.177   1.463 -0.2326 -0.1328  0.9454
17149TIP3   OH272861   0.203   1.441  13.889 -0.6342  0.5455  0.2657
17149TIP3    H172862   0.170   1.439  13.979  1.3980 -0.2102  1.0686
17149TIP3    H272863   0.159   1.515  13.848 -1.0990  1.3410  2.1091
17150TIP3   OH272864   5.038   0.914  13.482  0.0503 -0.2987 -0.1052
17150TIP3    H172865   4.966   0.853  13.468 -1.0007  0.9094 -0.0421
17150TIP3    H272866   5.110   0.858  13.512 -0.7123 -1.5736 -0.5526
17151TIP3   OH272867   6.507   6.408   3.380  0.4884 -0.0537 -0.3144
17151TIP3    H172868   6.451   6.462   3.323 -0.3964  0.3535  0.8798
17151TIP3    H272869   6.480   6.432   3.469  2.6860  0.2491  0.3296
17152TIP3   OH272870   3.765   2.562   4.083 -0.1829 -0.3156  0.0401
17152TIP3    H172871   3.736   2.567   4.174  1.4197  2.3985  0.5066
17152TIP3    H272872   3.768   2.653   4.053  1.1190 -0.9974 -2.1343
17153TIP3   OH272873   4.905   5.933  15.407 -0.2318 -0.5541 -0.5719
17153TIP3    H172874   4.889   5.883  15.487  0.5533 -0.2763 -0.2373
17153TIP3    H272875   4.996   5.916  15.385  0.1821  1.0634 -0.2171
17154TIP3   OH272876   0.681   6.020  16.739 -0.7356 -0.3056 -0.1859
17154TIP3    H172877   0.707   5.936  16.776 -0.7520 -0.3463 -0.2676
17154TIP3    H272878   0.647   6.070  16.814  1.3367  0.4633  0.3363
17155TIP3   OH272879   0.846   5.900  11.092 -0.4561 -0.2356  0.3607
17155TIP3    H172880   0.923   5.860  11.133  1.5104  2.8144 -0.0608
17155TIP3    H272881   0.882   5.952  11.021 -2.4535  3.7574  1.9822
17156TIP3   OH272882   3.337   3.463  14.757  0.2115  0.3336  0.2257
17156TIP3    H172883   3.269   3.523  14.727 -1.1674 -1.1579  0.2395
17156TIP3    H272884   3.301   3.425  14.837  0.8024 -0.8922 -0.0702
17157TIP3   OH272885   6.776   1.664  14.055 -0.3795 -0.1826  0.5001
17157TIP3    H172886   6.823   1.689  13.975 -0.6757  1.1659  0.7203
17157TIP3    H272887   6.803   1.574  14.071 -0.4802 -0.5691 -1.2384
17158TIP3   OH272888   1.691   3.066   1.153  0.4221 -0.1087 -0.0899
17158TIP3    H172889   1.636   2.989   1.171 -0.5187  0.9393  1.9123
17158TIP3    H272890   1.752   3.037   1.085  1.0222 -3.0632  1.5399
17159TIP3   OH272891   1.568   1.862  16.776 -0.2820 -0.1665  0.1414
17159TIP3    H172892   1.611   1.784  16.741 -0.1255 -0.4988  1.0399
17159TIP3    H272893   1.491   1.875  16.721  0.3517 -0.2305 -0.7795
17160TIP3   OH272894   0.072   1.802  13.123 -0.4554  0.2526  0.2774
17160TIP3    H172895   0.010   1.737  13.090 -0.4586  0.1062  0.5672
17160TIP3    H272896   0.094   1.855  13.047 -3.7914  2.7454  0.8141
17161TIP3   OH272897   5.732   5.465  10.898 -0.0429 -0.1586  0.1408
17161TIP3    H172898   5.776   5.397  10.948  2.4211  0.2263 -1.3021
17161TIP3    H272899   5.683   5.417  10.831 -0.5276 -0.5703  0.7835
17162TIP3   OH272900   5.178   1.029  12.959 -0.8066 -0.5009  0.0815
17162TIP3    H172901   5.203   1.065  13.044 -0.3050 -0.8435  0.0852
17162TIP3    H272902   5.114   1.091  12.925 -0.5026  0.0054  0.4091
17163TIP3   OH272903   6.671   3.158  16.405 -0.0923 -0.4684  0.6511
17163TIP3    H172904   6.673   3.125  16.315 -2.0417  3.4409 -1.0764
17163TIP3    H272905   6.730   3.233  16.404  0.8807 -1.1191  3.0948
17164TIP3   OH272906   5.544   3.021   0.524 -0.1390 -0.3856 -0.0193
17164TIP3    H172907   5.545   2.992   0.433 -1.6013  0.3929 -0.3132
17164TIP3    H272908   5.521   2.943   0.574  1.9071 -1.1309 -0.1413
17165TIP3   OH272909   5.529   5.088  15.405  0.2024 -0.5148  0.2183
17165TIP3    H172910   5.553   5.177  15.430  1.8933 -0.9505  0.2774
17165TIP3    H272911   5.571   5.075  15.320 -1.9274 -0.5110 -0.9144
17166TIP3   OH272912   4.182   3.272   2.313 -0.1094 -0.0467  0.2048
17166TIP3    H172913   4.269   3.258   2.352 -0.6910  1.9360  2.5096
17166TIP3    H272914   4.128   3.202   2.348  0.0848 -0.0460  0.5085
17167TIP3   OH272915   4.108   4.433   5.379 -0.7418  0.1544 -0.4789
17167TIP3    H172916   4.072   4.505   5.326  0.1809  1.2090  0.2971
17167TIP3    H272917   4.097   4.462   5.469 -0.4362 -0.7387 -0.1445
17168TIP3   OH272918   1.789   3.594  14.863 -0.6015 -0.0491  0.2853
17168TIP3    H172919   1.756   3.650  14.792  2.7580  2.2126  0.2915
17168TIP3    H272920   1.743   3.624  14.941 -2.8035 -1.1361 -0.5152
17169TIP3   OH272921   4.376   0.214   6.328  0.1167  0.3290 -0.2333
17169TIP3    H172922   4.361   0.258   6.245 -0.5489 -0.0608 -0.3326
17169TIP3    H272923   4.471   0.214   6.339  0.1302  2.1809 -0.0016
17170TIP3   OH272924   0.150   5.256  14.975 -0.5046 -0.5844 -0.6981
17170TIP3    H172925   0.097   5.327  14.939 -0.0674 -0.5951 -1.3877
17170TIP3    H272926   0.096   5.178  14.964 -1.3746 -0.2523  0.9164
17171TIP3   OH272927   5.375   2.444  12.078 -0.0863 -0.2544 -0.4133
17171TIP3    H172928   5.284   2.465  12.058 -0.0844 -1.0007 -1.2679
17171TIP3    H272929   5.379   2.349  12.074  1.0333 -0.1886 -1.8692
17172TIP3   OH272930   5.709   4.637   3.248 -0.1232  0.8508  0.2499
17172TIP3    H172931   5.754   4.561   3.210 -2.6845 -0.0020 -1.3513
17172TIP3    H272932   5.746   4.712   3.201  2.1796  0.6720  1.5941
17173TIP3   OH272933   1.000   3.691  12.077 -0.0041 -0.1862  0.5847
17173TIP3    H172934   0.999   3.595  12.085 -0.0455 -0.2162  0.1991
17173TIP3    H272935   0.948   3.710  12.000 -0.1799  0.1637  0.7869
17174TIP3   OH272936   0.468   3.183  11.621 -0.4735 -0.2205 -0.3493
17174TIP3    H172937   0.390   3.136  11.648  0.3321 -0.3573  1.9541
17174TIP3    H272938   0.436   3.267  11.588 -1.8426 -1.8103 -3.4450
17175TIP3   OH272939   1.505   3.222   3.577  0.2658  0.7398  0.2282
17175TIP3    H172940   1.582   3.246   3.629  1.4298 -1.6227 -0.2608
17175TIP3    H272941   1.511   3.127   3.569 -1.3649  0.7523 -1.9444
17176TIP3   OH272942   4.795   3.204   2.184  0.5230  0.3491 -0.5877
17176TIP3    H172943   4.800   3.135   2.118  0.2945 -0.8164  0.5686
17176TIP3    H272944   4.885   3.214   2.216  0.3521 -0.3653  0.1583
17177TIP3   OH272945   2.120   4.857   1.913  0.0539 -0.3103 -0.1228
17177TIP3    H172946   2.148   4.835   1.824  0.4276  0.5847 -0.2402
17177TIP3    H272947   2.047   4.799   1.931 -1.1700  0.6720 -1.6951
17178TIP3   OH272948   0.666   0.844  12.966  0.4088  0.1671  0.0484
17178TIP3    H172949   0.662   0.788  12.889  0.7797 -0.9907  0.8319
17178TIP3    H272950   0.576   0.875  12.977 -0.1953 -1.6156  0.5068
17179TIP3   OH272951   4.879   2.695  13.122 -0.0722  0.1719  0.4596
17179TIP3    H172952   4.938   2.720  13.193 -0.8025  3.1883  0.1404
17179TIP3    H272953   4.934   2.693  13.044  0.3756 -1.2873  0.7936
17180TIP3   OH272954   4.964   0.046   4.540  0.1421 -0.4378  0.2512
17180TIP3    H172955   4.968  -0.045   4.511  1.4315 -0.3757  0.1740
17180TIP3    H272956   4.890   0.083   4.493  0.8120 -0.9412 -1.2537
17181TIP3   OH272957   0.190   5.390   3.320  0.3297 -0.0335  0.6513
17181TIP3    H172958   0.153   5.304   3.300 -0.7477  0.5787 -0.1394
17181TIP3    H272959   0.126   5.429   3.380 -1.7492  1.9660 -2.5356
17182TIP3   OH272960   5.309   1.397  13.989  0.0354 -0.3999 -0.0396
17182TIP3    H172961   5.215   1.415  13.985 -0.0846 -0.7779  0.8868
17182TIP3    H272962   5.320   1.314  13.942 -0.1386 -0.5289  0.1497
17183TIP3   OH272963   1.177   2.373   1.287 -0.3758 -0.6880  0.1173
17183TIP3    H172964   1.133   2.300   1.243 -0.8908 -0.1364 -0.2875
17183TIP3    H272965   1.106   2.430   1.317 -0.0308 -0.8578  1.3470
17184TIP3   OH272966   4.854   1.078  14.487  0.2865  0.3994 -0.0070
17184TIP3    H172967   4.935   1.078  14.436  0.3412 -0.8317  0.0373
17184TIP3    H272968   4.884   1.073  14.578  0.1804 -0.8708 -0.0229
17185TIP3   OH272969   1.862   3.531  11.883  0.2297  0.4623  0.3535
17185TIP3    H172970   1.835   3.572  11.801 -2.1367 -0.5821  0.5437
17185TIP3    H272971   1.800   3.564  11.948  0.3152 -0.8812  1.1440
17186TIP3   OH272972   2.552   1.382   5.170  0.2502 -0.9347  0.1311
17186TIP3    H172973   2.585   1.379   5.260  0.1735 -2.5315  0.1440
17186TIP3    H272974   2.527   1.291   5.151  0.0068 -0.5729 -1.4110
17187TIP3   OH272975   1.180   4.768   5.112 -0.1866 -0.7546  0.5881
17187TIP3    H172976   1.193   4.789   5.020 -1.5156 -0.9377  0.3485
17187TIP3    H272977   1.085   4.762   5.123 -0.0363 -1.1109  1.8852
17188TIP3   OH272978   2.697   6.690  14.430 -0.1763 -0.3761  0.2575
17188TIP3    H172979   2.625   6.631  14.453 -1.5138  0.4078 -1.5998
17188TIP3    H272980   2.654   6.763  14.385  1.3888  2.0652  2.3905
17189TIP3   OH272981   6.077   0.311  13.741 -0.9815 -0.5671  0.6934
17189TIP3    H172982   6.065   0.247  13.812 -0.8696 -0.3702  0.8923
17189TIP3    H272983   6.159   0.285  13.698 -0.3312  0.1086  1.4877
17190TIP3   OH272984   0.192   2.840   0.443 -0.5715 -0.5875  0.1814
17190TIP3    H172985   0.205   2.853   0.349 -1.7270 -1.6099 -0.1396
17190TIP3    H272986   0.280   2.848   0.480 -0.2187  0.7094 -0.8589
17191TIP3   OH272987   0.708   4.955   4.932  0.0384 -0.7550  0.0438
17191TIP3    H172988   0.798   4.980   4.955  0.2238 -1.2940 -0.0805
17191TIP3    H272989   0.714   4.927   4.840 -0.6661  1.2638 -0.6640
17192TIP3   OH272990   1.884   3.651  13.707  0.5278 -0.0418 -0.4529
17192TIP3    H172991   1.840   3.615  13.784  0.2151 -1.8105 -1.3958
17192TIP3    H272992   1.824   3.718  13.674 -0.4018 -0.8173 -0.4011
17193TIP3   OH272993   5.292   6.129   5.018 -0.3332  0.1613  0.2465
17193TIP3    H172994   5.357   6.198   5.032 -1.3421  1.2856 -0.4144
17193TIP3    H272995   5.296   6.111   4.924  1.0048 -1.8325  0.6306
17194TIP3   OH272996   0.424   0.202  12.463  0.3998 -0.2476  0.6574
17194TIP3    H172997   0.509   0.239  12.485  1.0910 -1.8680  0.8407
17194TIP3    H272998   0.443   0.131  12.402 -1.0474  0.8408 -1.1964
17195TIP3   OH272999   0.523   5.751   3.198  0.1623  0.1420  0.3941
17195TIP3    H173000   0.488   5.815   3.137  0.0765 -0.9887 -0.7901
17195TIP3    H273001   0.466   5.757   3.275 -1.0144  0.1793 -0.4496
17196TIP3   OH273002   5.180   4.779   3.012 -0.7367  0.5883  0.6020
17196TIP3    H173003   5.238   4.703   3.016  0.0179  1.0471 -0.6103
17196TIP3    H273004   5.233   4.851   3.048  0.1100  1.3307 -1.8583
17197TIP3   OH273005   2.010   4.042   1.746 -0.2720  0.8080 -0.7719
17197TIP3    H173006   2.091   4.020   1.793  0.5904  0.4522 -2.3490
17197TIP3    H273007   2.040   4.094   1.671 -1.5635  1.0515 -1.1315
17198TIP3   OH273008   3.636   1.818  16.948 -0.2339  0.2064  0.0510
17198TIP3    H173009   3.628   1.738  16.999 -2.6574 -0.9800 -1.9825
17198TIP3    H273010   3.547   1.853  16.945  0.7936  3.2258  1.1094
17199TIP3   OH273011   3.333   4.417   4.860 -0.6956 -0.1101 -0.6298
17199TIP3    H173012   3.299   4.328   4.855  1.1459 -0.9195  0.3927
17199TIP3    H273013   3.284   4.458   4.931 -1.3516 -0.3698 -0.9220
17200TIP3   OH273014   1.412   2.696  14.647  0.0825  0.6206 -0.2619
17200TIP3    H173015   1.428   2.742  14.729  1.5699  0.7037 -0.5647
17200TIP3    H273016   1.473   2.736  14.585  1.9184 -2.1074 -0.3895
17201TIP3   OH273017   5.134   0.588  16.841  0.1939  0.5035 -0.2231
17201TIP3    H173018   5.180   0.635  16.771 -1.1989  1.8086 -0.3039
17201TIP3    H273019   5.155   0.636  16.920  0.0865  0.2634 -0.0477
17202TIP3   OH273020   3.251   2.932  12.197 -0.4793 -0.0358 -0.6282
17202TIP3    H173021   3.315   2.862  12.186  0.4555  0.6800  0.0622
17202TIP3    H273022   3.274   2.997  12.131  0.8119  1.1327  0.8957
17203TIP3   OH273023   0.272   1.844  14.926 -0.3309  0.3981  0.0728
17203TIP3    H173024   0.204   1.779  14.908  0.8696 -0.4316 -1.7854
17203TIP3    H273025   0.262   1.909  14.855  0.5534  0.4678 -0.0009
17204TIP3   OH273026   4.198   2.702   0.179  0.5716  0.1762  0.6546
17204TIP3    H173027   4.284   2.688   0.140  1.2238  0.6686  1.8430
17204TIP3    H273028   4.213   2.769   0.247 -0.4952 -0.6051  1.7163
17205TIP3   OH273029   5.926   4.237   0.628 -0.2259 -0.0976  0.8400
17205TIP3    H173030   5.925   4.328   0.660  0.4538  1.0620 -2.0858
17205TIP3    H273031   5.835   4.219   0.605 -0.0936  0.5425 -0.2507
17206TIP3   OH273032   4.045   3.548   0.209  0.4249  0.1075 -0.1495
17206TIP3    H173033   4.043   3.638   0.241 -0.0979  0.6937 -1.7490
17206TIP3    H273034   4.114   3.547   0.143 -1.7681  0.2820 -2.6222
17207TIP3   OH273035   4.351   5.993   4.623  0.5885 -0.5309 -0.3098
17207TIP3    H173036   4.298   5.930   4.574 -0.2351  0.2064 -0.3749
17207TIP3    H273037   4.421   6.017   4.562  0.5666 -0.9304 -0.4978
17208TIP3   OH273038   1.403   6.482  13.773  0.3550 -0.2187  0.6686
17208TIP3    H173039   1.421   6.397  13.814  0.9614 -0.1613  0.5235
17208TIP3    H273040   1.367   6.536  13.844 -1.0022 -0.9028  0.5307
17209TIP3   OH273041   6.759   3.774  15.836  0.0058  0.0409 -0.2249
17209TIP3    H173042   6.745   3.797  15.928 -2.6267  1.6978 -0.9403
17209TIP3    H273043   6.803   3.689  15.839 -0.3300 -0.1163  2.5497
17210TIP3   OH273044   5.908   4.391   5.933  0.0923  0.0812 -0.0518
17210TIP3    H173045   5.988   4.415   5.980  0.2127 -1.0250  0.3502
17210TIP3    H273046   5.848   4.359   6.002 -1.4559  2.6759 -0.0704
17211TIP3   OH273047   1.016   6.537  14.635  0.1222  0.1862 -0.3937
17211TIP3    H173048   1.069   6.519  14.557 -0.5521 -0.6740 -0.6657
17211TIP3    H273049   1.078   6.530  14.708  0.3083 -1.3245 -0.6608
17212TIP3   OH273050   0.083   1.657   1.716 -0.0511 -0.0530  0.3071
17212TIP3    H173051  -0.011   1.649   1.731 -0.3368 -1.6041 -1.8856
17212TIP3    H273052   0.094   1.747   1.684 -0.9512 -0.1733 -0.3720
17213TIP3   OH273053   0.559   2.825   0.154 -0.3438  0.5019 -0.1458
17213TIP3    H173054   0.529   2.790   0.070  2.6870 -0.3103 -0.9946
17213TIP3    H273055   0.606   2.753   0.195 -1.5155  0.9667  2.2185
17214TIP3   OH273056   3.393   0.937  11.327  0.1343 -0.3714  0.4194
17214TIP3    H173057   3.411   0.920  11.420  2.0326 -0.1863  0.1256
17214TIP3    H273058   3.474   0.975  11.293 -0.9300  0.6944 -1.0610
17215TIP3   OH273059   5.481   1.268   1.512 -0.1819  0.0882 -0.0060
17215TIP3    H173060   5.484   1.343   1.572 -0.5895  0.0700  0.0395
17215TIP3    H273061   5.534   1.294   1.437  0.5846 -0.0054  0.5001
17216TIP3   OH273062   4.199   6.013  15.218 -0.5655 -0.1356 -0.0714
17216TIP3    H173063   4.268   5.949  15.201 -1.0113 -0.6554  0.0394
17216TIP3    H273064   4.118   5.970  15.190 -1.0098 -0.0558  1.0134
17217TIP3   OH273065   2.025   2.754  14.594  0.1984 -0.2743  0.0405
17217TIP3    H173066   2.086   2.812  14.549  0.0404  1.3508  1.8281
17217TIP3    H273067   2.004   2.687  14.528  0.5012  1.5661 -2.0674
17218TIP3   OH273068   1.338   1.716   0.616  0.4287 -0.7156  0.4581
17218TIP3    H173069   1.375   1.737   0.530  0.6026 -1.5840  0.3054
17218TIP3    H273070   1.254   1.762   0.618  0.6820 -0.2262  0.0541
17219TIP3   OH273071   1.611   3.668  15.063  0.1911  0.1457  0.4477
17219TIP3    H173072   1.629   3.604  15.132  1.3618 -0.0974 -0.0463
17219TIP3    H273073   1.525   3.644  15.030  0.8856 -1.6503 -0.1983
17220TIP3   OH273074   6.207   3.371   0.957 -0.3560 -0.6213  0.1544
17220TIP3    H173075   6.211   3.385   1.052 -0.9877  0.6424  0.0156
17220TIP3    H273076   6.273   3.431   0.921 -0.8968 -0.2663 -0.2655
17221TIP3   OH273077   4.715   5.318   3.387  0.1365  0.0986  0.3506
17221TIP3    H173078   4.623   5.294   3.393  0.6356 -1.7030  1.3029
17221TIP3    H273079   4.724   5.394   3.444 -0.3040 -1.2215  2.2523
17222TIP3   OH273080   0.586   4.883  12.447 -0.7032 -0.2879  0.2603
17222TIP3    H173081   0.647   4.958  12.446 -0.6132 -0.3698 -0.6247
17222TIP3    H273082   0.562   4.874  12.540 -1.4022  1.3957  0.2874
17223TIP3   OH273083   0.104   0.012   3.153  0.3404  0.0614 -0.2001
17223TIP3    H173084   0.155   0.016   3.234 -0.5286  1.4363  0.3071
17223TIP3    H273085   0.044  -0.062   3.167 -0.9372  1.2970  1.1357
17224TIP3   OH273086   4.166   6.114  12.392 -0.0570 -0.2394 -0.3679
17224TIP3    H173087   4.197   6.196  12.354  0.3490 -0.5728 -0.7801
17224TIP3    H273088   4.244   6.059  12.398  0.3414  0.4752  2.8815
17225TIP3   OH273089   2.540   4.213   2.707  0.3202  0.4891  0.3680
17225TIP3    H173090   2.569   4.295   2.667  2.1812 -0.5888 -0.6456
17225TIP3    H273091   2.520   4.156   2.632  3.1328 -1.3230  0.8828
17226TIP3   OH273092   6.025   3.087   1.191 -0.5149 -0.3488  0.1559
17226TIP3    H173093   5.987   3.060   1.108  0.4210 -0.7327 -0.1594
17226TIP3    H273094   6.116   3.059   1.186 -0.9420 -2.3498  2.1654
17227TIP3   OH273095   2.419   4.921   5.266 -0.0684  0.3737  0.2614
17227TIP3    H173096   2.503   4.952   5.232  1.7504 -3.4139  0.8193
17227TIP3    H273097   2.411   4.963   5.352  1.6278  0.2311  0.5091
17228TIP3   OH273098   6.453   0.344   2.996  0.3327  0.0792  0.2178
17228TIP3    H173099   6.414   0.422   2.958  1.3697  0.9377  0.8515
17228TIP3    H273100   6.533   0.330   2.944 -0.1245 -0.9095 -0.2566
17229TIP3   OH273101   4.445   2.838   1.785 -0.3370 -0.0372 -0.1439
17229TIP3    H173102   4.518   2.841   1.723  0.1191  0.1926  0.3961
17229TIP3    H273103   4.380   2.898   1.748  0.5124  1.2003  0.3154
17230TIP3   OH273104   0.706   3.830   2.582 -0.0866 -0.2798 -0.2566
17230TIP3    H173105   0.761   3.903   2.608 -1.0453  0.1829  0.5111
17230TIP3    H273106   0.729   3.814   2.490  0.3161  0.8184 -0.3566
17231TIP3   OH273107   1.082   4.512  12.888  0.2929  0.8186 -0.5845
17231TIP3    H173108   1.111   4.428  12.851 -1.8909 -0.1682 -0.2236
17231TIP3    H273109   0.993   4.522  12.856 -1.1347  0.7523  2.9444
17232TIP3   OH273110   0.816   2.053   4.006 -0.2114 -0.5339  0.0133
17232TIP3    H173111   0.817   1.995   4.082 -1.3382 -1.0057 -0.3102
17232TIP3    H273112   0.723   2.074   3.993  0.1377  1.0018 -0.1398
17233TIP3   OH273113   0.342   1.910   0.763  0.2995  0.1257  0.0380
17233TIP3    H173114   0.384   1.911   0.849 -0.6694 -0.4289  0.5333
17233TIP3    H273115   0.377   1.832   0.720 -0.0407 -0.2133  0.3655
17234TIP3   OH273116   6.462   1.406   6.353  0.7605  0.2609 -0.6133
17234TIP3    H173117   6.526   1.449   6.297  0.4136 -1.1036 -2.1137
17234TIP3    H273118   6.514   1.348   6.409  0.8756 -0.8773 -1.8565
17235TIP3   OH273119   1.729   5.470   0.471 -0.6788  0.1554 -0.3763
17235TIP3    H173120   1.821   5.492   0.484 -0.7578  0.7133 -0.7268
17235TIP3    H273121   1.702   5.525   0.397 -1.3467  0.1454 -0.1413
17236TIP3   OH273122   5.135   1.179   0.639  0.0883 -0.3716  0.2877
17236TIP3    H173123   5.116   1.250   0.700 -0.0205  0.6096 -0.8672
17236TIP3    H273124   5.057   1.123   0.643 -1.2417  1.2723 -1.1174
17237TIP3   OH273125   0.107   0.331   1.067  0.3293  0.4828  0.3500
17237TIP3    H173126   0.166   0.276   1.119 -0.6751 -0.4583  0.5490
17237TIP3    H273127   0.097   0.283   0.985 -1.0814 -0.0043  0.7786
17238TIP3   OH273128   4.333   4.891  13.537  0.6572 -0.3149 -0.5955
17238TIP3    H173129   4.255   4.840  13.515  0.9603 -0.4622 -1.3411
17238TIP3    H273130   4.402   4.826  13.549  0.7090 -0.1737 -0.0859
17239TIP3   OH273131   1.553   2.031   5.168 -0.5164 -0.7305  0.4745
17239TIP3    H173132   1.470   2.060   5.205 -1.6335 -0.9555 -1.6949
17239TIP3    H273133   1.619   2.059   5.232 -1.9922  1.9462  0.9638
17240TIP3   OH273134   4.083   1.828   4.141  0.1264 -0.2486 -0.0021
17240TIP3    H173135   4.011   1.886   4.117  0.9984  0.4391 -1.1261
17240TIP3    H273136   4.104   1.781   4.060  0.4737 -0.9478  0.4853
17241TIP3   OH273137   0.209   0.937   1.471 -0.0403 -0.0933  0.3453
17241TIP3    H173138   0.193   0.989   1.550 -0.6783  0.6753 -0.2685
17241TIP3    H273139   0.171   0.852   1.489 -2.1084  0.7255  0.1094
17242TIP3   OH273140   3.938   2.759  14.560 -0.3203  0.2440 -0.2115
17242TIP3    H173141   4.014   2.748  14.504 -0.8335  0.7731 -1.0363
17242TIP3    H273142   3.902   2.844  14.535 -0.2257  0.7683  1.3429
17243TIP3   OH273143   5.704   6.470   0.848  0.3245  0.0478 -0.0996
17243TIP3    H173144   5.792   6.497   0.874  0.6912 -0.2606 -1.0047
17243TIP3    H273145   5.717   6.389   0.800 -0.4831 -0.1302 -0.0306
17244TIP3   OH273146   0.721   6.248   1.931 -0.1732  0.1329  0.1503
17244TIP3    H173147   0.726   6.343   1.936  0.4843  0.0829  0.5115
17244TIP3    H273148   0.778   6.225   1.857  1.5477 -0.1309  1.5051
17245TIP3   OH273149   6.108   4.476   2.332  0.0215 -0.3070 -0.2886
17245TIP3    H173150   6.105   4.568   2.307  0.5727 -0.2411 -0.1042
17245TIP3    H273151   6.140   4.431   2.253 -1.0562 -0.4501 -0.6646
17246TIP3   OH273152   6.108   3.552   3.748  0.4372  0.2635 -0.2634
17246TIP3    H173153   6.104   3.457   3.733 -0.2096  0.2177  0.1732
17246TIP3    H273154   6.081   3.563   3.839 -0.4672  0.9404 -0.6002
17247TIP3   OH273155   0.317   4.805   2.958  0.0613 -0.3546 -0.1950
17247TIP3    H173156   0.349   4.842   3.041 -1.8803  2.2239 -0.5081
17247TIP3    H273157   0.390   4.816   2.897  0.8680 -0.6091  0.6980
17248TIP3   OH273158   5.801   1.150  12.880 -0.4918 -0.0516  0.4331
17248TIP3    H173159   5.867   1.104  12.932  0.1249  0.4972  0.1493
17248TIP3    H273160   5.718   1.107  12.903  0.2147 -2.3825 -0.9622
17249TIP3   OH273161   0.605   0.337  13.066 -0.7564 -0.1800  0.2223
17249TIP3    H173162   0.620   0.331  13.160 -1.4860 -0.3210  0.3358
17249TIP3    H273163   0.568   0.424  13.052 -1.1308 -0.3457  0.1440
17250TIP3   OH273164   4.516   6.709   2.027 -0.1612 -0.2418  0.2027
17250TIP3    H173165   4.602   6.701   2.068 -0.6766  2.0446  1.9037
17250TIP3    H273166   4.491   6.800   2.041 -0.8967  0.4969 -4.3286
17251TIP3   OH273167   2.705   6.175  11.275  0.1745 -0.1106 -0.4853
17251TIP3    H173168   2.682   6.148  11.186 -0.9737  1.1328 -0.5827
17251TIP3    H273169   2.751   6.099  11.311 -3.7047 -2.7003 -0.3909
17252TIP3   OH273170   4.087   3.382  16.207 -0.5833 -0.4661  0.7371
17252TIP3    H173171   4.135   3.433  16.143  1.0594 -4.0049 -1.1226
17252TIP3    H273172   3.996   3.385  16.177  0.4275 -4.4570 -4.0410
17253TIP3   OH273173   1.474   0.070  12.038  0.1804  0.2233  0.0214
17253TIP3    H173174   1.399   0.128  12.021  1.6089  1.9409 -0.7780
17253TIP3    H273175   1.545   0.130  12.063  1.6254 -1.2369 -0.4357
17254TIP3   OH273176   6.535   1.556  13.108  0.8540 -0.4452  0.5185
17254TIP3    H173177   6.581   1.566  13.192  0.0096  0.7256  0.8518
17254TIP3    H273178   6.518   1.645  13.079 -0.6580 -0.8566  0.0899
17255TIP3   OH273179   0.631   3.382  12.151 -0.4807  0.4773 -0.7349
17255TIP3    H173180   0.567   3.431  12.099 -0.7008 -0.1150 -1.0424
17255TIP3    H273181   0.682   3.449  12.196 -0.3661  1.0049 -1.6198
17256TIP3   OH273182   3.001   2.942  12.660 -0.5407 -0.1176  0.1808
17256TIP3    H173183   2.939   2.870  12.647 -1.3088  0.7121 -0.9894
17256TIP3    H273184   2.945   3.020  12.667  0.2589  0.3615  1.6506
17257TIP3   OH273185   1.873   1.602   2.944 -0.1016  0.7119 -0.3107
17257TIP3    H173186   1.850   1.509   2.934 -2.4476  0.9283  1.8351
17257TIP3    H273187   1.964   1.601   2.974  0.0612 -0.8646 -0.7413
17258TIP3   OH273188   0.948   3.554   0.078  0.7778 -0.4562  0.2320
17258TIP3    H173189   0.996   3.475   0.101 -0.7482 -1.6001 -0.3447
17258TIP3    H273190   0.969   3.568  -0.014 -0.4024 -1.3117 -0.1941
17259TIP3   OH273191   5.660   1.617   5.245  0.4277  0.1338 -0.2211
17259TIP3    H173192   5.736   1.614   5.303  1.5102  2.4276 -1.4052
17259TIP3    H273193   5.607   1.689   5.278 -2.2470 -2.4190  1.5954
17260TIP3   OH273194   4.568   4.311  13.587 -0.2158  0.3961 -0.1926
17260TIP3    H173195   4.552   4.318  13.493  0.4373 -0.9341 -0.4230
17260TIP3    H273196   4.585   4.218  13.602 -1.1140  0.4497  1.3816
17261TIP3   OH273197   3.274   1.071  14.585  0.5535  0.5507 -0.3612
17261TIP3    H173198   3.366   1.088  14.608  0.6376  2.5678 -1.9709
17261TIP3    H273199   3.275   0.982  14.549  2.1027  0.9327 -1.3606
17262TIP3   OH273200   0.564   2.728   1.502  0.0750  0.2613  0.5647
17262TIP3    H173201   0.542   2.671   1.429  0.6965  1.2643 -0.4542
17262TIP3    H273202   0.528   2.814   1.477  0.0555  0.5588  1.5656
17263TIP3   OH273203   3.667   2.628  12.696 -0.1254 -0.2193 -0.1792
17263TIP3    H173204   3.696   2.705  12.746  0.2046 -1.2961  1.3451
17263TIP3    H273205   3.589   2.658  12.650 -0.5180  0.7987  1.0868
17264TIP3   OH273206   2.627   1.027   0.010  0.0435 -0.1640 -0.1482
17264TIP3    H173207   2.577   0.946   0.005 -0.4504  0.1669 -0.6882
17264TIP3    H273208   2.561   1.096   0.009  0.4515  0.2437  0.4586
17265TIP3   OH273209   0.318   5.563  15.190  0.3458  0.1771  0.0662
17265TIP3    H173210   0.360   5.641  15.156 -0.5406  0.7445  0.2209
17265TIP3    H273211   0.352   5.491  15.137 -1.1246  1.0312 -2.1994
17266TIP3   OH273212   3.435   3.633  11.001 -0.8979 -0.0227 -0.0304
17266TIP3    H173213   3.350   3.663  11.034 -1.7253  0.7949 -2.6901
17266TIP3    H273214   3.417   3.546  10.965 -1.0487  0.8260 -2.0948
17267TIP3   OH273215   1.125   0.798   6.544 -0.4427 -0.3592  0.5828
17267TIP3    H173216   1.053   0.782   6.605  0.2705 -0.0973  1.5189
17267TIP3    H273217   1.095   0.872   6.491 -0.1325  0.9983  2.2216
17268TIP3   OH273218   1.287   2.701  16.422  0.0738 -0.4398  0.2047
17268TIP3    H173219   1.235   2.753  16.361 -0.2817 -0.5499  0.4080
17268TIP3    H273220   1.233   2.697  16.501  1.5855  1.8887  1.4649
17269TIP3   OH273221   2.244   0.614  11.187  0.1906 -0.7561 -0.0410
17269TIP3    H173222   2.251   0.578  11.099 -2.0362 -0.1686 -0.5019
17269TIP3    H273223   2.323   0.668  11.196  1.8547 -2.9526 -0.5881
17270TIP3   OH273224   3.772   3.232   3.691  0.3145 -0.3654 -0.4766
17270TIP3    H173225   3.865   3.253   3.695  0.1263  0.3859  0.2921
17270TIP3    H273226   3.749   3.205   3.779 -0.2806 -0.1609 -0.5601
17271TIP3   OH273227   2.436   4.621   1.778  0.2885 -0.0376  0.8547
17271TIP3    H173228   2.350   4.657   1.801 -0.0609 -0.8218  0.8140
17271TIP3    H273229   2.430   4.603   1.684 -0.3149 -2.1859  1.2579
17272TIP3   OH273230   2.647   3.223   2.330 -0.0545  0.5666 -0.4753
17272TIP3    H173231   2.727   3.274   2.312  0.1337  0.1253 -0.9057
17272TIP3    H273232   2.578   3.272   2.286  0.1144  0.4921 -0.8286
17273TIP3   OH273233   3.053   4.030   3.808 -0.6613  0.1116 -0.0349
17273TIP3    H173234   2.960   4.033   3.787 -1.5674  0.1282  3.3974
17273TIP3    H273235   3.058   3.983   3.891  2.3799  0.3795  0.0520
17274TIP3   OH273236   6.519   5.641   5.933  0.2851 -0.5016  0.0678
17274TIP3    H173237   6.462   5.718   5.928 -0.4144 -1.0874 -2.5468
17274TIP3    H273238   6.493   5.598   6.015 -2.2622 -0.1181 -0.4412
17275TIP3   OH273239   3.221   1.978   0.190  0.4302 -0.3959 -0.5706
17275TIP3    H173240   3.296   2.003   0.136  0.0745  1.0420 -0.4324
17275TIP3    H273241   3.188   2.060   0.226 -1.4198 -0.9355 -0.8865
17276TIP3   OH273242   6.475   5.211   4.000 -0.2881  0.2348 -0.0106
17276TIP3    H173243   6.396   5.159   4.010 -0.0333 -0.3095 -0.8011
17276TIP3    H273244   6.547   5.150   4.015 -0.0037  0.7158  0.6609
17277TIP3   OH273245   4.657   6.260  14.788 -0.3851  0.0143 -0.5945
17277TIP3    H173246   4.629   6.221  14.705  2.2859 -3.0572 -0.2419
17277TIP3    H273247   4.583   6.247  14.847 -1.2607 -0.3460 -1.7290
17278TIP3   OH273248   3.032   6.244  14.832  0.7167  0.0565 -0.3529
17278TIP3    H173249   2.973   6.185  14.878  1.2744 -0.5225 -0.3675
17278TIP3    H273250   3.070   6.299  14.901  1.7254 -0.9600 -0.0608
17279TIP3   OH273251   3.203   2.207  12.546  0.5624  0.2759  0.0296
17279TIP3    H173252   3.189   2.113  12.561  0.5927  0.1608 -0.6414
17279TIP3    H273253   3.274   2.211  12.482 -1.4680  0.6549 -2.3281
17280TIP3   OH273254   6.546   0.960  12.434 -0.1632 -0.0598  0.8270
17280TIP3    H173255   6.467   0.934  12.482 -0.5698 -0.0789  0.1649
17280TIP3    H273256   6.513   0.995  12.351  0.6117 -2.1033 -0.4050
17281TIP3   OH273257   3.719   4.210   4.244  0.1784  0.0280 -0.3207
17281TIP3    H173258   3.670   4.237   4.166  2.0071 -2.0496 -2.3475
17281TIP3    H273259   3.666   4.141   4.283 -0.9283  1.3329  0.5646
17282TIP3   OH273260   5.799   4.141   3.497 -0.0803  0.0634 -0.0762
17282TIP3    H173261   5.893   4.158   3.494  0.7249 -3.2408  1.7538
17282TIP3    H273262   5.761   4.222   3.531  2.6127  0.2462  2.9525
17283TIP3   OH273263   3.175   3.972   5.569 -0.1645 -0.0230  0.0428
17283TIP3    H173264   3.267   3.952   5.551 -0.3277 -1.4002  0.6478
17283TIP3    H273265   3.162   4.059   5.530  1.1853 -0.1198 -0.6976
17284TIP3   OH273266   0.041   5.453   3.556  0.1831  0.1107 -0.5005
17284TIP3    H173267   0.004   5.376   3.599 -1.0986  1.4615  0.9465
17284TIP3    H273268   0.131   5.458   3.588 -0.1892  0.0372  0.5860
17285TIP3   OH273269   1.129   6.761  17.124 -0.2060 -0.4948  0.1147
17285TIP3    H173270   1.052   6.706  17.133  0.5793 -1.6006  0.2778
17285TIP3    H273271   1.139   6.804  17.209 -1.1636  0.3975 -0.1981
17286TIP3   OH273272   4.710   2.628  15.376 -0.6107 -0.2010  0.1102
17286TIP3    H173273   4.665   2.600  15.296 -0.6617  0.9903 -0.2876
17286TIP3    H273274   4.707   2.550  15.433 -1.5975 -0.7014 -0.5906
17287TIP3   OH273275   5.736   3.549   1.932  0.2480 -0.3603 -0.1187
17287TIP3    H173276   5.812   3.507   1.891  1.3845 -0.4473  1.9041
17287TIP3    H273277   5.773   3.595   2.007 -1.3508  1.9986 -0.6850
17288TIP3   OH273278   4.457   4.440  17.083  0.4428 -0.2409  0.3941
17288TIP3    H173279   4.450   4.469  17.174  3.2910 -0.6698  0.8568
17288TIP3    H273280   4.453   4.520  17.032  1.5153  0.3176  1.1456
17289TIP3   OH273281   4.535   1.326  15.053  0.1440  0.4744  0.1725
17289TIP3    H173282   4.619   1.301  15.091 -0.0491  1.1594  1.0916
17289TIP3    H273283   4.498   1.244  15.021  0.6191 -0.0358  0.8842
17290TIP3   OH273284   2.126   4.538   5.158 -0.5004  0.2795 -0.0984
17290TIP3    H173285   2.129   4.634   5.161  0.9427  0.3879 -2.4286
17290TIP3    H273286   2.135   4.516   5.065 -0.9737 -2.1339  0.3483
17291TIP3   OH273287   2.063   0.299   4.337  0.3016  0.0262 -0.3223
17291TIP3    H173288   2.001   0.233   4.305  0.7373 -1.0599  0.9806
17291TIP3    H273289   2.070   0.282   4.431  0.9561  1.5051 -0.0805
17292TIP3   OH273290   1.269   0.753  12.138 -0.4858  0.3189 -0.1841
17292TIP3    H173291   1.309   0.669  12.159 -1.4513 -0.6143 -1.8545
17292TIP3    H273292   1.191   0.756  12.193 -2.0338 -1.2882 -2.1224
17293TIP3   OH273293   2.983   1.118   4.911 -0.0366 -0.1091  0.5264
17293TIP3    H173294   3.028   1.113   4.827  0.8129 -0.9629  1.0091
17293TIP3    H273295   2.930   1.198   4.905 -0.1985 -0.2910 -0.9057
17294TIP3   OH273296   2.798   4.917   5.437 -0.1198  0.4069 -0.0379
17294TIP3    H173297   2.830   5.006   5.421  0.1730  0.1863 -0.7091
17294TIP3    H273298   2.800   4.875   5.351 -0.8451 -0.0625  0.1669
17295TIP3   OH273299   3.061   2.788   1.881 -0.2123 -0.2200  0.2851
17295TIP3    H173300   3.081   2.781   1.974 -1.3551  2.3857  0.8047
17295TIP3    H273301   2.966   2.795   1.877 -0.0688  1.7428 -0.8518
17296TIP3   OH273302   6.158   6.768   0.359 -0.0590 -0.5989 -0.7118
17296TIP3    H173303   6.141   6.756   0.452  0.3638 -0.5469 -0.6251
17296TIP3    H273304   6.109   6.698   0.316 -0.8974 -0.1482 -0.5095
17297TIP3   OH273305   3.643   4.813  15.540  0.0994 -0.3845  0.2013
17297TIP3    H173306   3.602   4.899  15.546  1.6759  0.6569 -2.2149
17297TIP3    H273307   3.656   4.786  15.631 -2.3045  0.9457  1.0232
17298TIP3   OH273308   1.427   0.952   5.155  0.2015 -0.0663 -0.7374
17298TIP3    H173309   1.489   0.880   5.170  0.6328  0.4137 -0.1666
17298TIP3    H273310   1.341   0.913   5.170  0.4669 -0.3195  0.1998
17299TIP3   OH273311   4.905   4.909  14.561  0.4489 -0.0103 -0.0561
17299TIP3    H173312   4.944   4.863  14.636 -0.2045 -0.4013  0.0523
17299TIP3    H273313   4.925   5.001  14.577  2.1002 -0.2689 -0.4648
17300TIP3   OH273314   3.015   6.248   4.177 -0.5279 -0.1288  0.3577
17300TIP3    H173315   2.926   6.271   4.204 -1.4352 -0.4082 -2.1450
17300TIP3    H273316   3.020   6.273   4.085  0.3314 -4.3667 -0.9757
17301TIP3   OH273317   4.119   3.499   2.614  0.0352 -0.2078  0.1272
17301TIP3    H173318   4.044   3.548   2.648 -2.5566 -3.2531 -0.6666
17301TIP3    H273319   4.174   3.565   2.573 -0.0013  2.7722  4.1845
17302TIP3   OH273320   6.471   1.682  11.860  0.6765  0.0066 -0.0436
17302TIP3    H173321   6.544   1.664  11.800 -0.5921 -0.0074 -1.6616
17302TIP3    H273322   6.506   1.745  11.922  2.2735 -0.5293 -0.3426
17303TIP3   OH273323   0.663   5.815   1.827  0.2089  0.6762  0.7573
17303TIP3    H173324   0.579   5.780   1.796  0.4413  0.8040 -0.0519
17303TIP3    H273325   0.687   5.758   1.900  0.5462 -0.8631 -0.4934
17304TIP3   OH273326   4.256   0.672   4.298  0.2607 -0.9177 -0.3029
17304TIP3    H173327   4.262   0.753   4.247 -1.5615 -0.7664 -0.3615
17304TIP3    H273328   4.340   0.666   4.344  1.0794  0.1042 -1.5927
17305TIP3   OH273329   4.512   1.784   3.238 -0.3669  0.0804  0.2572
17305TIP3    H173330   4.528   1.843   3.312 -0.9275 -0.6215  0.9519
17305TIP3    H273331   4.597   1.746   3.219 -0.0568  0.8697  0.0008
17306TIP3   OH273332   1.474   0.830   4.592  0.5391 -0.0569 -0.6311
17306TIP3    H173333   1.512   0.877   4.518  0.8777 -0.7476 -0.9103
17306TIP3    H273334   1.431   0.897   4.645  1.7070  0.6688 -0.5812
17307TIP3   OH273335   5.759   5.909  15.626  0.3699 -0.1034 -1.3085
17307TIP3    H173336   5.713   5.870  15.700  0.9170 -0.7300 -1.2941
17307TIP3    H273337   5.807   5.837  15.586 -0.9806 -0.0751 -3.1111
17308TIP3   OH273338   3.283   2.063   0.607  0.3466 -0.0324  0.0321
17308TIP3    H173339   3.326   2.044   0.691  0.9238  2.9504  0.5120
17308TIP3    H273340   3.190   2.050   0.625  0.5589 -0.6172  0.7612
17309TIP3   OH273341   5.062   1.220  11.073  0.1560  0.3043 -0.1743
17309TIP3    H173342   5.077   1.189  10.983  1.5625 -1.4226  0.6036
17309TIP3    H273343   5.149   1.241  11.106 -0.2490  0.1743  1.0278
17310TIP3   OH273344   5.294   1.174  13.164 -0.1544  0.3182  0.3563
17310TIP3    H173345   5.233   1.196  13.234  0.0156 -0.4828  0.7671
17310TIP3    H273346   5.377   1.214  13.191  0.3529 -1.3638  1.4806
17311TIP3   OH273347   4.734   3.221  14.048 -0.6769  0.3894 -0.0967
17311TIP3    H173348   4.690   3.238  13.965 -1.1983 -0.9278 -0.1027
17311TIP3    H273349   4.803   3.159  14.027 -0.9184 -0.0840  0.4775
17312TIP3   OH273350   2.686   2.671   4.892 -0.3475  0.8304 -0.6778
17312TIP3    H173351   2.656   2.742   4.835 -1.0917  0.5654 -0.6234
17312TIP3    H273352   2.719   2.604   4.833  1.9125  1.8772 -0.6912
17313TIP3   OH273353   2.549   6.406   1.113 -0.3472 -0.1820  0.1723
17313TIP3    H173354   2.610   6.335   1.131 -0.2287 -0.5715 -1.5597
17313TIP3    H273355   2.601   6.470   1.063 -1.1273 -0.1601 -0.6450
17314TIP3   OH273356   1.326   0.188  14.027  0.6571  0.5559  0.4546
17314TIP3    H173357   1.300   0.277  14.050  4.7021  1.9839  0.2654
17314TIP3    H273358   1.344   0.146  14.111 -0.0139  0.2964  0.4785
17315TIP3   OH273359   0.189   2.789   2.317  0.1731 -0.2098 -0.0450
17315TIP3    H173360   0.235   2.870   2.294 -0.4565  0.6897  1.6582
17315TIP3    H273361   0.115   2.818   2.371 -1.9480 -1.6568 -2.0012
17316TIP3   OH273362   5.227   6.766   5.454 -0.3198  0.2115 -0.4062
17316TIP3    H173363   5.236   6.814   5.371  2.2838 -0.0286 -0.3548
17316TIP3    H273364   5.152   6.805   5.497 -0.7567  1.4385 -2.1882
17317TIP3   OH273365   4.917   0.616  11.119  0.2273 -0.1476 -0.9266
17317TIP3    H173366   4.913   0.597  11.025 -0.1311 -2.0680 -0.5720
17317TIP3    H273367   5.005   0.590  11.146 -0.3894 -1.7986 -0.3567
17318TIP3   OH273368   4.831   5.647   1.212 -0.1084 -0.0366 -0.2086
17318TIP3    H173369   4.911   5.643   1.160 -0.2483 -0.1660 -0.4131
17318TIP3    H273370   4.765   5.679   1.152 -1.1353 -3.5650 -1.2161
17319TIP3   OH273371   1.195   3.723  13.853 -0.0247  0.3160  0.4926
17319TIP3    H173372   1.152   3.720  13.767  1.5780  0.7078 -0.3549
17319TIP3    H273373   1.137   3.777  13.906 -1.9285 -1.3037  0.2088
17320TIP3   OH273374   2.540   4.685   4.768  0.0747  0.4354  0.0930
17320TIP3    H173375   2.488   4.692   4.688 -2.0843 -2.0695  1.1333
17320TIP3    H273376   2.491   4.738   4.832 -1.1939 -1.6854  0.9968
17321TIP3   OH273377   4.212   6.673  15.581 -0.2660  0.3050  0.0311
17321TIP3    H173378   4.162   6.695  15.502  2.1287 -0.9142 -1.9657
17321TIP3    H273379   4.293   6.724  15.573  1.5059 -2.3676 -0.1332
17322TIP3   OH273380   3.779   4.759  12.424 -0.0014  0.2446 -0.0266
17322TIP3    H173381   3.759   4.766  12.330  0.7654 -1.7646 -0.3875
17322TIP3    H273382   3.697   4.732  12.464 -0.2414  0.7529 -0.1706
17323TIP3   OH273383   1.151   2.239  12.964  0.0466  0.4929 -0.1301
17323TIP3    H173384   1.186   2.328  12.963  0.0725  0.4824 -0.8373
17323TIP3    H273385   1.066   2.246  12.921  0.3054  0.0850 -0.7383
17324TIP3   OH273386   1.824   6.064   1.172  0.9947 -0.2050 -0.1097
17324TIP3    H173387   1.880   6.056   1.250 -0.5986 -1.6852  0.9595
17324TIP3    H273388   1.862   6.004   1.109  1.1893 -0.4607  0.2442
17325TIP3   OH273389   3.811   0.734  14.605 -0.6358  0.1592  0.4491
17325TIP3    H173390   3.770   0.751  14.520 -0.6423 -1.3596  0.1087
17325TIP3    H273391   3.796   0.814  14.656 -1.1801  0.8568 -0.7656
17326TIP3   OH273392   3.489   3.702   0.475 -0.5181 -0.4255  0.3821
17326TIP3    H173393   3.493   3.735   0.385  0.1257 -0.8374  0.2541
17326TIP3    H273394   3.396   3.701   0.496 -0.5849  3.8906  1.3096
17327TIP3   OH273395   1.938   1.087   5.751  0.2646 -0.0437  0.1579
17327TIP3    H173396   1.888   1.150   5.802  1.8036 -0.4066  2.2404
17327TIP3    H273397   1.890   1.005   5.760  0.2044  0.0294  0.5124
17328TIP3   OH273398   0.502   3.068  13.908  0.1145  0.1489 -0.4793
17328TIP3    H173399   0.480   3.141  13.850  2.6883  0.4651 -1.1742
17328TIP3    H273400   0.533   3.109  13.989  0.2498 -0.2218 -0.3374
17329TIP3   OH273401   2.623   3.560  14.484 -0.0239 -0.3006  0.2213
17329TIP3    H173402   2.593   3.639  14.529 -0.2672 -0.0798 -0.3214
17329TIP3    H273403   2.601   3.489  14.544 -0.7139 -0.0496  0.2773
17330TIP3   OH273404   6.214   6.181   2.720  0.2065 -0.1295 -0.3283
17330TIP3    H173405   6.284   6.116   2.731 -0.3368 -0.5737  0.6876
17330TIP3    H273406   6.250   6.246   2.660  0.2231 -2.1120 -2.5675
17331TIP3   OH273407   0.312   5.627  14.416 -0.3186  0.4432  0.2415
17331TIP3    H173408   0.298   5.536  14.392 -0.8366  0.5050  0.2982
17331TIP3    H273409   0.227   5.657  14.450  0.0101  0.7606  0.8163
17332TIP3   OH273410   5.167   6.500   0.821 -0.2270  0.1028 -0.5972
17332TIP3    H173411   5.129   6.438   0.884 -1.2455 -0.9332 -2.1524
17332TIP3    H273412   5.229   6.551   0.872  0.4175 -1.9959  0.8437
17333TIP3   OH273413   0.655   3.511   5.340 -0.4163  1.0332 -0.2153
17333TIP3    H173414   0.628   3.420   5.328 -1.8137  1.4959 -0.7418
17333TIP3    H273415   0.740   3.505   5.386 -0.5817 -0.5109 -0.0604
17334TIP3   OH273416   0.606   0.352   0.208  0.1403  0.0843 -0.1776
17334TIP3    H173417   0.557   0.272   0.188  0.5178 -0.2600  0.2608
17334TIP3    H273418   0.644   0.336   0.295  0.2967  0.7022 -0.1259
17335TIP3   OH273419   5.794   2.764   0.943  0.3234  0.7359  0.1727
17335TIP3    H173420   5.869   2.750   1.000 -0.5045  0.4200  1.2273
17335TIP3    H273421   5.815   2.844   0.894  2.8563 -1.1424 -2.1299
17336TIP3   OH273422   0.635   4.539  10.947  0.0305 -0.5788 -0.1945
17336TIP3    H173423   0.684   4.464  10.913 -1.1871 -0.6901 -1.8289
17336TIP3    H273424   0.610   4.513  11.036  3.2540 -0.3118  0.9090
17337TIP3   OH273425   3.587   0.616  13.933  0.1069  0.1666  0.5658
17337TIP3    H173426   3.649   0.606  14.005  0.6428 -0.2956  0.0564
17337TIP3    H273427   3.627   0.568  13.861 -1.2496 -0.8588  0.4624
17338TIP3   OH273428   3.365   1.315  14.752  0.0419  0.0306 -0.1937
17338TIP3    H173429   3.313   1.286  14.826  0.3540 -0.4436 -0.1542
17338TIP3    H273430   3.301   1.348  14.689 -0.2143  0.5116  0.3148
17339TIP3   OH273431   6.248   2.408  12.505  0.3933 -0.2974  0.0866
17339TIP3    H173432   6.263   2.451  12.421  1.2098 -0.4445  0.1449
17339TIP3    H273433   6.250   2.480  12.569  0.9365 -0.3168  0.0975
17340TIP3   OH273434   1.191   3.540  14.732 -0.3045  1.0914 -0.3400
17340TIP3    H173435   1.180   3.469  14.669 -0.3599  1.3487 -0.6196
17340TIP3    H273436   1.238   3.608  14.683 -1.4524  1.8050 -0.4802
17341TIP3   OH273437   0.042   3.878  16.095  0.3705 -0.1442  0.4359
17341TIP3    H173438   0.088   3.878  16.179  1.0170 -0.6424  0.0927
17341TIP3    H273439  -0.005   3.961  16.094  1.9274  0.7894  0.4573
17342TIP3   OH273440   5.376   0.895   2.106  0.1850  0.6244 -0.0431
17342TIP3    H173441   5.399   0.802   2.095  0.4083  0.7144 -0.3494
17342TIP3    H273442   5.316   0.896   2.181  0.7516  0.3215  0.4264
17343TIP3   OH273443   4.048   3.240  13.049 -0.6211  0.1387 -0.0402
17343TIP3    H173444   4.128   3.276  13.010 -0.3342 -0.3289  0.1159
17343TIP3    H273445   3.978   3.265  12.988 -0.1640 -0.6852 -0.9211
17344TIP3   OH273446   5.373   0.534   2.535  0.6723  0.1482  0.1131
17344TIP3    H173447   5.424   0.458   2.508 -0.0570 -0.3914  0.2232
17344TIP3    H273448   5.289   0.498   2.562 -0.2564  1.1523 -1.3122
17345TIP3   OH273449   4.579   4.870  11.853  0.4460 -0.0133 -0.3835
17345TIP3    H173450   4.567   4.915  11.936  0.8151 -2.8617  1.3395
17345TIP3    H273451   4.672   4.882  11.833  1.3201 -2.4072  1.7045
17346TIP3   OH273452   0.140   2.739  13.146 -1.0330  0.0782  0.2799
17346TIP3    H173453   0.171   2.802  13.081 -0.8095 -0.4279 -0.1083
17346TIP3    H273454   0.138   2.656  13.100 -1.0466 -0.2559  0.8728
17347TIP3   OH273455   4.353   4.404  13.758 -0.3577 -0.2147 -0.8199
17347TIP3    H173456   4.374   4.483  13.708  0.8743  0.7214  1.0915
17347TIP3    H273457   4.423   4.342  13.736 -0.5726 -0.3119 -1.2581
17348TIP3   OH273458   2.767   5.070  12.193 -0.0396  0.4491  0.1157
17348TIP3    H173459   2.759   5.018  12.114 -1.6033  1.9399 -0.7873
17348TIP3    H273460   2.855   5.108  12.189 -0.2979  0.9533 -1.2220
17349TIP3   OH273461   4.799   0.329  11.862 -0.1446  0.2068 -0.1121
17349TIP3    H173462   4.855   0.388  11.811 -1.6194  0.0491 -2.0650
17349TIP3    H273463   4.712   0.371  11.859 -0.9624 -1.4334 -0.5267
17350TIP3   OH273464   5.714   3.998  14.119 -0.0507 -0.0693 -0.2199
17350TIP3    H173465   5.718   4.079  14.068  3.0061  0.9561  1.3633
17350TIP3    H273466   5.648   4.015  14.186 -0.1969  0.7092 -0.5491
17351TIP3   OH273467   6.473   1.135   4.360 -0.0428 -0.2880  0.0218
17351TIP3    H173468   6.513   1.148   4.274  1.6495 -0.0089  0.8102
17351TIP3    H273469   6.542   1.159   4.423 -1.8238  1.4439  1.4773
17352TIP3   OH273470   4.500   1.116   0.311 -0.2925  0.1706  0.3657
17352TIP3    H173471   4.474   1.187   0.371  0.0442 -0.1263  0.8732
17352TIP3    H273472   4.454   1.135   0.230  1.5698  2.2847 -0.2893
17353TIP3   OH273473   1.620   3.849   0.624 -0.3313 -0.3560  0.1535
17353TIP3    H173474   1.622   3.939   0.592 -0.3984 -0.6902 -0.8097
17353TIP3    H273475   1.585   3.856   0.713 -0.2549  0.5744  0.1206
17354TIP3   OH273476   2.379   4.954   4.786  0.1743  0.4090 -0.0102
17354TIP3    H173477   2.308   4.906   4.744  0.7083 -0.7470  0.3763
17354TIP3    H273478   2.384   4.918   4.875  0.1249  1.6794  0.5323
17355TIP3   OH273479   0.533   2.125   4.017  0.9278  0.2902 -0.2649
17355TIP3    H173480   0.516   2.198   3.958 -0.6251  0.1026 -0.0868
17355TIP3    H273481   0.507   2.047   3.968  2.7989 -0.2153 -0.5499
17356TIP3   OH273482   4.423   1.695   0.841 -0.3005  0.0388  0.2239
17356TIP3    H173483   4.424   1.608   0.882 -0.9032 -1.5346 -2.8042
17356TIP3    H273484   4.372   1.683   0.761  0.8907  2.8318 -1.0710
17357TIP3   OH273485   5.212   1.757   4.188  0.1547 -0.3170  0.4348
17357TIP3    H173486   5.234   1.670   4.156  0.4205  0.0383 -0.3682
17357TIP3    H273487   5.290   1.809   4.171  0.2390 -0.0611  1.4976
17358TIP3   OH273488   1.846   6.147  16.365  0.1969  0.0539 -0.1682
17358TIP3    H173489   1.913   6.173  16.428 -0.3067 -0.1490  0.4582
17358TIP3    H273490   1.881   6.067  16.325  0.3294 -0.0565  0.1647
17359TIP3   OH273491   1.035   4.801  14.366 -0.4807 -0.0887 -0.3142
17359TIP3    H173492   1.004   4.711  14.381 -1.0710  0.0990 -0.4018
17359TIP3    H273493   1.106   4.791  14.302 -1.8427 -0.2990 -1.8296
17360TIP3   OH273494   0.946   5.939   0.370  0.4492 -0.4477 -0.2617
17360TIP3    H173495   1.006   5.974   0.303  0.5705 -0.0875  0.0253
17360TIP3    H273496   1.001   5.933   0.449 -0.4013  2.0038  0.6107
17361TIP3   OH273497   3.149   4.545  13.848  0.3450 -0.0966  0.1371
17361TIP3    H173498   3.173   4.538  13.755 -0.2866 -0.5142 -0.0024
17361TIP3    H273499   3.229   4.572  13.892  0.3559  1.2923 -0.6907
17362TIP3   OH273500   3.468   4.814   0.624  0.1925 -0.0472  0.4412
17362TIP3    H173501   3.454   4.819   0.529 -1.0010 -1.7757  0.4667
17362TIP3    H273502   3.527   4.739   0.635  0.9365  0.6154  1.0304
17363TIP3   OH273503   3.526   5.707   3.688  0.5072 -0.1145  0.0599
17363TIP3    H173504   3.462   5.667   3.747  0.4786 -1.4229 -0.8041
17363TIP3    H273505   3.550   5.789   3.730 -2.2661  0.7918  0.0946
17364TIP3   OH273506   0.237   3.798   2.483 -0.2569 -0.2092 -0.4756
17364TIP3    H173507   0.154   3.845   2.484  0.3850  1.0195 -1.9075
17364TIP3    H273508   0.233   3.743   2.405  0.4779  0.2342 -0.8334
17365TIP3   OH273509   6.502   3.093   1.629  1.0272  0.0207 -0.7134
17365TIP3    H173510   6.530   3.106   1.720  0.6967  1.5825 -0.8043
17365TIP3    H273511   6.504   2.998   1.617  1.1522 -0.2162  0.9000
17366TIP3   OH273512   5.489   6.728   0.018 -0.4869 -0.4161  0.1561
17366TIP3    H173513   5.462   6.751   0.107  0.1941  1.8364 -0.1602
17366TIP3    H273514   5.412   6.745  -0.036  0.0750  1.5877 -0.1088
17367TIP3   OH273515   5.137   5.107   2.546 -0.2979 -0.1104 -0.8903
17367TIP3    H173516   5.074   5.179   2.538  0.1187  0.2088 -1.3324
17367TIP3    H273517   5.138   5.086   2.639 -0.6420  0.2601 -0.8010
17368TIP3   OH273518   0.897   6.085   4.953 -0.0982  0.0013  0.5784
17368TIP3    H173519   0.946   6.130   5.022 -1.1607 -0.8848  1.9469
17368TIP3    H273520   0.810   6.070   4.990 -0.4164 -1.3232 -0.6160
17369TIP3   OH273521   5.832   0.418  16.072 -0.4641  0.1947  0.2028
17369TIP3    H173522   5.861   0.455  15.988  0.1817 -1.7552 -0.4723
17369TIP3    H273523   5.891   0.457  16.137  0.3067  0.2342 -0.5071
17370TIP3   OH273524   0.697   4.263   1.743 -0.4892  0.0779 -0.0509
17370TIP3    H173525   0.690   4.168   1.731 -0.4783  0.2427 -1.5496
17370TIP3    H273526   0.614   4.289   1.781 -1.1514 -0.3242 -1.1840
17371TIP3   OH273527   0.534   1.756   1.239  0.0439 -0.3089  0.0117
17371TIP3    H173528   0.595   1.725   1.305  0.5816  0.3731 -0.1526
17371TIP3    H273529   0.590   1.786   1.167 -0.5422 -1.8193 -1.1262
17372TIP3   OH273530   6.490   0.016  13.823  0.2318 -0.3242 -0.3556
17372TIP3    H173531   6.492   0.100  13.868  0.7293 -0.4611 -0.1147
17372TIP3    H273532   6.436   0.031  13.745  1.7737  0.6854 -1.2630
17373TIP3   OH273533   0.545   1.668  13.061 -0.1750 -0.4170 -0.5246
17373TIP3    H173534   0.507   1.755  13.051 -0.2951 -0.0593  2.3238
17373TIP3    H273535   0.580   1.647  12.974 -2.6011  1.2350 -2.0362
17374TIP3   OH273536   0.471   0.593   4.230  0.1099 -0.4593 -0.2628
17374TIP3    H173537   0.546   0.641   4.264 -0.6009  1.6119 -1.4768
17374TIP3    H273538   0.415   0.579   4.307 -0.1072  1.5448 -0.0009
17375TIP3   OH273539   1.998   1.642   2.689  0.1366  0.5788  0.1134
17375TIP3    H173540   2.071   1.581   2.699  0.9474  1.5499  0.1819
17375TIP3    H273541   1.967   1.657   2.778  1.6074  2.2507  0.3963
17376TIP3   OH273542   1.660   3.028   3.143 -0.2453 -0.0170 -0.0852
17376TIP3    H173543   1.571   3.012   3.175 -0.2601 -2.1451 -1.0271
17376TIP3    H273544   1.712   3.040   3.223 -1.3298  1.1885  0.4796
17377TIP3   OH273545   1.166   0.250   4.612 -0.4003  0.5420 -0.1183
17377TIP3    H173546   1.155   0.164   4.652 -1.2792  0.4159 -0.6255
17377TIP3    H273547   1.178   0.309   4.687  0.9551 -0.1012  0.2131
17378TIP3   OH273548   2.107   4.969   0.672 -0.1032 -0.0636  0.5348
17378TIP3    H173549   2.074   4.885   0.638  0.4206  0.2256 -0.7166
17378TIP3    H273550   2.100   5.029   0.599  3.5999 -0.0766 -0.0126
17379TIP3   OH273551   5.576   1.344   2.670  0.0734 -0.0708 -0.0816
17379TIP3    H173552   5.530   1.266   2.639 -1.0403  0.8312 -0.8045
17379TIP3    H273553   5.605   1.388   2.590  1.2057 -0.0339  0.3400
17380TIP3   OH273554   4.157   4.362   3.083 -0.1128 -0.2039  0.0499
17380TIP3    H173555   4.207   4.402   3.012 -0.9024 -0.3565 -0.6107
17380TIP3    H273556   4.173   4.419   3.159  0.9795 -0.2135 -0.1675
17381TIP3   OH273557   6.757   3.221  12.610 -0.6326 -0.0279 -0.0038
17381TIP3    H173558   6.800   3.245  12.692 -1.3835 -0.4611  0.5292
17381TIP3    H273559   6.664   3.225  12.630 -0.8139 -1.1624 -0.5392
17382TIP3   OH273560   4.569   0.382  14.980  0.4689  0.1882 -0.1537
17382TIP3    H173561   4.638   0.395  14.915  0.3824  1.3292 -0.0456
17382TIP3    H273562   4.586   0.295  15.016  2.6171  0.8848  0.7209
17383TIP3   OH273563   3.071   4.103  12.882 -0.3956  0.1827  0.0410
17383TIP3    H173564   3.119   4.044  12.824 -0.4974 -1.0000  1.1061
17383TIP3    H273565   3.034   4.169  12.824 -1.3620 -1.5278 -1.4052
17384TIP3   OH273566   4.850   3.035   0.443  0.1647 -0.6494 -0.8534
17384TIP3    H173567   4.841   2.960   0.503 -0.0224 -0.2125 -0.3225
17384TIP3    H273568   4.807   3.006   0.362 -0.9243 -0.7189 -0.2760
17385TIP3   OH273569   4.441   3.264   2.080 -0.3201  0.7185  0.0190
17385TIP3    H173570   4.494   3.344   2.076 -0.9714  1.1249 -1.5987
17385TIP3    H273571   4.432   3.237   1.988 -3.3966  1.0351  0.1323
17386TIP3   OH273572   2.556   1.492  13.851 -0.1943  0.3101 -0.2913
17386TIP3    H173573   2.602   1.571  13.879 -2.0826  1.1411  0.6346
17386TIP3    H273574   2.569   1.430  13.922 -0.4196  0.5091 -0.0766
17387TIP3   OH273575   1.871   4.421   3.848  0.5519 -0.2109  0.6455
17387TIP3    H173576   1.923   4.501   3.839  2.1041 -1.2470  0.0081
17387TIP3    H273577   1.923   4.365   3.906 -1.1628 -0.2866  2.2098
17388TIP3   OH273578   3.584   5.946  11.619  0.7519 -0.3809  0.1880
17388TIP3    H173579   3.601   5.916  11.709 -1.1444 -0.3141  0.6040
17388TIP3    H273580   3.611   6.037  11.619  0.6548 -0.3460  0.7379
17389TIP3   OH273581   1.324   1.795   6.515  0.1206 -0.6987 -0.4027
17389TIP3    H173582   1.237   1.783   6.478  0.0892 -0.0220 -0.5677
17389TIP3    H273583   1.360   1.870   6.467  0.3012 -0.1742  0.5220
17390TIP3   OH273584   0.699   6.396   3.364  0.5234 -0.5898 -0.0547
17390TIP3    H173585   0.778   6.401   3.310  1.3412 -2.6558  0.8360
17390TIP3    H273586   0.732   6.373   3.451 -1.0348 -0.9571  0.4679
17391TIP3   OH273587   3.112   0.520  13.598 -0.0217  0.5923  0.1249
17391TIP3    H173588   3.047   0.589  13.613  0.6663  1.1934  0.3765
17391TIP3    H273589   3.106   0.502  13.505 -0.1877  1.0049  0.0515
17392TIP3   OH273590   1.398   5.493   5.760 -0.2092  0.4462 -0.4750
17392TIP3    H173591   1.440   5.440   5.828 -0.4232  0.5051 -0.2961
17392TIP3    H273592   1.367   5.429   5.696  0.5755  0.4305 -0.8517
17393TIP3   OH273593   6.737   2.060   3.680 -0.1904 -0.3893  0.4884
17393TIP3    H173594   6.736   1.966   3.664  1.6216 -0.2309 -0.8591
17393TIP3    H273595   6.653   2.091   3.646  0.2611 -1.1996 -1.4911
17394TIP3   OH273596   0.763   3.255  17.133  0.0716  0.2390 -0.1102
17394TIP3    H173597   0.715   3.181  17.170  2.1024  0.4204  3.3149
17394TIP3    H273598   0.729   3.332  17.180  0.6859  0.9468 -0.7864
17395TIP3   OH273599   3.781   1.184   1.823 -0.3517  0.5998 -0.2368
17395TIP3    H173600   3.867   1.146   1.808 -0.0972 -0.1502  2.5329
17395TIP3    H273601   3.722   1.109   1.826 -0.8475  0.9717 -0.5885
17396TIP3   OH273602   1.059   4.081  14.696 -0.3140 -0.2766 -0.7294
17396TIP3    H173603   1.010   4.047  14.621  0.4187 -0.4458 -1.1394
17396TIP3    H273604   1.040   4.020  14.767  0.7344 -1.3830 -1.3755
17397TIP3   OH273605   0.157   6.433   3.645 -0.3471 -0.2210  0.1533
17397TIP3    H173606   0.170   6.469   3.557  1.0245 -1.5677 -0.2456
17397TIP3    H273607   0.244   6.400   3.670 -0.3734  1.3126  2.5856
17398TIP3   OH273608   3.381   0.325   5.564  0.2479  0.2975 -0.1500
17398TIP3    H173609   3.325   0.350   5.490 -2.5185 -1.1702  1.2814
17398TIP3    H273610   3.428   0.405   5.586 -0.2641  1.2800 -2.2782
17399TIP3   OH273611   0.294   3.574  15.691  0.3125 -0.5020 -0.3627
17399TIP3    H173612   0.314   3.662  15.724  0.4983 -0.4497 -0.6113
17399TIP3    H273613   0.375   3.525  15.705 -1.0097 -1.9237  3.9000
17400TIP3   OH273614   2.210   2.456  13.595  1.3000  1.1257 -0.0161
17400TIP3    H173615   2.242   2.464  13.505 -0.4431  0.6492 -0.7242
17400TIP3    H273616   2.147   2.528  13.604 -0.6498 -0.4541 -0.1971
17401TIP3   OH273617   1.494   0.244  16.063  0.4159  0.2300 -1.1745
17401TIP3    H173618   1.451   0.188  15.998  0.0876  1.0803 -1.7041
17401TIP3    H273619   1.470   0.333  16.038  0.1562  0.5700  0.2106
17402TIP3   OH273620   0.371   5.505  12.215  0.0622  0.0391  0.5653
17402TIP3    H173621   0.278   5.500  12.195  0.1912  0.6398 -0.2380
17402TIP3    H273622   0.396   5.414  12.235 -0.1638 -0.5911 -1.7598
17403TIP3   OH273623   1.010   3.894   3.309 -0.7614 -0.3159  0.1432
17403TIP3    H173624   1.099   3.881   3.342 -1.3504 -2.2978  1.0785
17403TIP3    H273625   0.978   3.970   3.358  0.4359  0.5098 -0.3046
17404TIP3   OH273626   4.724   5.859   4.941 -0.1149  0.0350  0.2152
17404TIP3    H173627   4.803   5.842   4.889  1.1041  0.4460  1.8176
17404TIP3    H273628   4.721   5.954   4.949 -1.6785  0.1347 -1.0790
17405TIP3   OH273629   5.224   0.589  13.256 -0.7264 -0.6367 -0.5925
17405TIP3    H173630   5.292   0.528  13.229  0.7890  1.2425 -1.3264
17405TIP3    H273631   5.185   0.619  13.174 -0.2202  0.6554 -0.3849
17406TIP3   OH273632   5.169   2.630   3.312 -0.3518  0.3184  0.0960
17406TIP3    H173633   5.085   2.620   3.356  0.0721  0.4250  0.9533
17406TIP3    H273634   5.169   2.562   3.245 -0.6909 -0.3781  0.7834
17407TIP3   OH273635   3.214   5.160   3.494  0.0472  0.3732 -0.2199
17407TIP3    H173636   3.270   5.165   3.571  0.7415  0.7037 -0.7357
17407TIP3    H273637   3.240   5.235   3.440  1.4777 -1.3092 -2.0169
17408TIP3   OH273638   0.424   0.629   5.307  0.1527  0.2137 -0.1479
17408TIP3    H173639   0.449   0.709   5.261  2.0718  0.1644  0.7168
17408TIP3    H273640   0.502   0.605   5.357 -0.8241 -1.4777  0.6382
17409TIP3   OH273641   4.054   5.452  15.107  0.1713 -0.2244 -0.0577
17409TIP3    H173642   4.090   5.389  15.045 -0.9823 -0.3017 -0.6660
17409TIP3    H273643   4.056   5.535  15.060  0.9615  0.0743  0.4658
17410TIP3   OH273644   5.697   5.538   1.499 -0.0092 -0.3687  0.2644
17410TIP3    H173645   5.754   5.506   1.569  0.8165 -0.3904 -0.4110
17410TIP3    H273646   5.756   5.566   1.430 -0.8183 -0.2611 -0.4032
17411TIP3   OH273647   1.073   3.103   3.126  0.0891 -0.4863 -0.2906
17411TIP3    H173648   1.081   3.194   3.099  0.2630 -0.1215  0.9478
17411TIP3    H273649   0.995   3.100   3.180  0.8849 -0.7522  0.8866
17412TIP3   OH273650   5.139   2.258   2.729  0.1848 -0.4888 -0.6357
17412TIP3    H173651   5.116   2.282   2.639  1.1671  0.5069 -0.6334
17412TIP3    H273652   5.234   2.261   2.731  0.2502 -2.0186  0.0498
17413TIP3   OH273653   2.707   5.880   4.998 -0.2131  0.1226 -0.1442
17413TIP3    H173654   2.649   5.911   5.068 -0.7747  2.8842 -1.7004
17413TIP3    H273655   2.787   5.931   5.009  1.4944 -2.5867  1.0521
17414TIP3   OH273656   4.669   5.500  12.332 -0.4770 -0.0042 -0.0342
17414TIP3    H173657   4.704   5.443  12.264  0.1652 -0.2856  0.5169
17414TIP3    H273658   4.603   5.447  12.377 -0.5990  0.0348 -0.1666
17415TIP3   OH273659   2.638   2.535  12.694 -0.1112  0.3058 -0.3402
17415TIP3    H173660   2.547   2.517  12.669  0.2512 -1.0234 -0.8137
17415TIP3    H273661   2.669   2.453  12.731  0.4678  1.1917  1.2404
17416TIP3   OH273662   0.350   0.636   6.736  0.3862 -0.3223 -0.0605
17416TIP3    H173663   0.257   0.651   6.752  0.6574  3.0160 -0.8931
17416TIP3    H273664   0.373   0.564   6.794 -2.3656 -0.1637  1.3760
17417TIP3   OH273665   4.512   6.166  12.661 -0.4847  0.2166 -0.0163
17417TIP3    H173666   4.522   6.227  12.588  1.5586  1.3081  1.0719
17417TIP3    H273667   4.586   6.106  12.652 -1.4475 -1.0055 -0.0310
17418TIP3   OH273668   0.161   6.568  12.175 -0.1120  0.5811  0.2433
17418TIP3    H173669   0.083   6.519  12.198 -0.2621  0.8120  0.2304
17418TIP3    H273670   0.195   6.524  12.097  0.9447 -0.7960  1.4394
17419TIP3   OH273671   6.055   2.388   3.010 -0.0390 -0.7026 -0.4965
17419TIP3    H173672   6.075   2.471   2.968 -1.8268 -0.4218 -0.9010
17419TIP3    H273673   6.137   2.361   3.052  0.4795  1.4632  0.0082
17420TIP3   OH273674   6.226   0.359   3.858  0.7999 -0.3143  0.0444
17420TIP3    H173675   6.321   0.367   3.849  0.7694  1.5201  1.0133
17420TIP3    H273676   6.200   0.433   3.912 -1.3294 -0.1948 -1.0323
17421TIP3   OH273677   1.921   5.478   0.847  0.0110 -0.2474  0.3620
17421TIP3    H173678   1.965   5.403   0.806 -0.2495  1.1007 -2.6805
17421TIP3    H273679   1.828   5.464   0.829 -0.3250 -0.4691  2.1293
17422TIP3   OH273680   5.349   0.402   2.818 -0.5431 -1.2108  0.6525
17422TIP3    H173681   5.411   0.331   2.800 -0.3062 -0.9074  0.2553
17422TIP3    H273682   5.290   0.401   2.743  0.8764  0.5234 -0.5821
17423TIP3   OH273683   6.252   1.263  11.616 -0.0636 -0.1277  0.6955
17423TIP3    H173684   6.232   1.196  11.551  0.0604  1.1965 -0.7590
17423TIP3    H273685   6.323   1.225  11.668  0.0279 -1.1186 -0.1123
17424TIP3   OH273686   0.746   0.078  11.476  0.2202 -0.6637  0.2468
17424TIP3    H173687   0.754   0.147  11.410  0.7752 -0.4515  0.5321
17424TIP3    H273688   0.836   0.060  11.503 -0.0868  0.2575  1.9929
17425TIP3   OH273689   4.986   5.446  14.366  0.1762 -0.2120  0.3359
17425TIP3    H173690   4.932   5.524  14.354 -0.2696 -0.4728  0.6152
17425TIP3    H273691   5.062   5.477  14.415 -1.0324 -0.3333  2.3985
17426TIP3   OH273692   5.710   4.336  12.713 -0.5300  0.9062  0.5388
17426TIP3    H173693   5.696   4.244  12.731 -0.6827  1.1230  1.5745
17426TIP3    H273694   5.777   4.364  12.776 -2.7867  2.2377  2.5333
17427TIP3   OH273695   1.725   5.044   3.393  0.4044 -0.2457  0.1715
17427TIP3    H173696   1.791   5.000   3.447  1.8135  0.0848 -1.2155
17427TIP3    H273697   1.723   4.994   3.312 -2.2032 -1.1636  0.7137
17428TIP3   OH273698   5.443   5.099   2.517  0.4429  0.6337  0.3774
17428TIP3    H173699   5.354   5.120   2.489  1.0356  1.0312 -1.2938
17428TIP3    H273700   5.446   5.003   2.515  0.3197  0.6464 -0.4297
17429TIP3   OH273701   6.197   3.006  14.607  0.1131 -0.3773  0.1200
17429TIP3    H173702   6.179   2.967  14.692  2.6899 -0.5609  0.6510
17429TIP3    H273703   6.292   3.018  14.605 -0.0506  1.2632 -2.0289
17430TIP3   OH273704   2.769   2.445   0.794 -0.2265 -0.4340 -0.1477
17430TIP3    H173705   2.803   2.501   0.864  1.6365 -2.0054  0.3047
17430TIP3    H273706   2.793   2.490   0.713  1.7535 -0.7849  0.1967
17431TIP3   OH273707   4.177   2.076  16.339  0.3046  0.0810  0.2496
17431TIP3    H173708   4.205   1.996  16.293 -0.4127 -0.4043  0.6350
17431TIP3    H273709   4.209   2.065  16.428 -0.8972 -0.3980  0.6493
17432TIP3   OH273710   6.521   4.546  17.060 -0.0053 -0.5154 -0.3813
17432TIP3    H173711   6.610   4.511  17.056 -0.1556 -0.9206 -0.2060
17432TIP3    H273712   6.474   4.485  17.116  0.6434  1.9488  3.1798
17433TIP3   OH273713   0.232   3.573   0.290  0.2184 -0.4856 -0.3603
17433TIP3    H173714   0.326   3.559   0.305  0.2186 -1.3801 -1.0749
17433TIP3    H273715   0.190   3.544   0.370  0.5635  0.0956  0.0363
17434TIP3   OH273716   4.250   3.759  13.957  0.1663  0.1868  0.0769
17434TIP3    H173717   4.175   3.804  13.917 -0.7453  0.0689  1.5780
17434TIP3    H273718   4.315   3.755  13.887 -0.8035  1.2861 -0.9424
17435TIP3   OH273719   0.213   2.876  11.886  0.2059  0.5309  0.4030
17435TIP3    H173720   0.223   2.784  11.860  1.5178  0.4500  1.1447
17435TIP3    H273721   0.298   2.901  11.922  0.1132  2.2836 -0.4821
17436TIP3   OH273722   0.749   6.299  12.012  0.0294  0.2333 -0.1890
17436TIP3    H173723   0.736   6.209  12.043 -0.6729  1.0268  1.9782
17436TIP3    H273724   0.663   6.339  12.016  0.1747  0.8237 -1.9588
17437TIP3   OH273725   4.626   5.173  13.598 -0.3585  0.1010 -0.3461
17437TIP3    H173726   4.717   5.171  13.628 -0.8374  2.6569  1.6477
17437TIP3    H273727   4.576   5.144  13.674 -1.2492 -2.5887 -1.8327
17438TIP3   OH273728   6.380   4.723   0.102  0.3377 -0.0096  0.0458
17438TIP3    H173729   6.405   4.662   0.033  0.8831 -0.5898  0.7506
17438TIP3    H273730   6.461   4.768   0.125 -0.2114  1.7142 -1.1262
17439TIP3   OH273731   1.037   6.048   3.402 -0.2448 -0.5310 -0.5226
17439TIP3    H173732   1.083   5.971   3.369 -0.6276 -0.2319 -1.8242
17439TIP3    H273733   0.946   6.019   3.412  0.1805 -1.1766  2.2234
17440TIP3   OH273734   4.234   3.491   6.278  0.4232 -0.2074  0.3812
17440TIP3    H173735   4.216   3.507   6.185  1.0223  0.7946  0.4222
17440TIP3    H273736   4.152   3.512   6.322  0.5534  0.6977  0.2097
17441TIP3   OH273737   2.412   5.825   0.003 -0.0624  0.2247  0.0923
17441TIP3    H173738   2.406   5.804  -0.090 -0.7428 -0.3239  0.2482
17441TIP3    H273739   2.327   5.862   0.025 -0.0725 -0.0855  0.5940
17442TIP3   OH273740   0.503   4.050  15.081  0.5250 -0.3544  0.6927
17442TIP3    H173741   0.565   3.996  15.130  0.8729  0.0206  0.6736
17442TIP3    H273742   0.503   4.134  15.127 -1.5336 -0.9748  1.9561
17443TIP3   OH273743   1.805   5.170   5.166  0.4737 -0.1710  0.7433
17443TIP3    H173744   1.722   5.130   5.192  0.7096 -0.6125  0.8146
17443TIP3    H273745   1.787   5.208   5.080  0.5165 -1.2583  0.2468
17444TIP3   OH273746   3.751   5.289   2.708  1.1500  0.2523 -0.3636
17444TIP3    H173747   3.656   5.300   2.696  0.7092  0.4737  2.4853
17444TIP3    H273748   3.775   5.221   2.645 -1.0340 -0.2492 -0.7534
17445TIP3   OH273749   0.310   2.108  13.656 -0.0952  0.2876  0.3219
17445TIP3    H173750   0.304   2.115  13.751 -2.8445 -1.2147  0.3629
17445TIP3    H273751   0.277   2.192  13.623  2.3099  1.4296  0.5936
17446TIP3   OH273752   0.198   4.273  13.545  0.5842 -0.2303  0.3507
17446TIP3    H173753   0.192   4.356  13.592 -0.1826 -0.4207  0.5980
17446TIP3    H273754   0.274   4.284  13.488  1.1777  0.2263  1.1968
17447TIP3   OH273755   2.493   6.124   4.979  0.2728  0.1872 -0.2955
17447TIP3    H173756   2.410   6.077   4.973 -0.5732  1.5361  0.4634
17447TIP3    H273757   2.520   6.114   5.070  1.1837 -0.5746 -0.6216
17448TIP3   OH273758   6.044   0.438   6.325  0.1365  0.3172  0.4956
17448TIP3    H173759   6.046   0.407   6.416  1.0818 -1.2364 -0.0080
17448TIP3    H273760   6.008   0.526   6.331  0.4449  0.3715  2.4086
17449TIP3   OH273761   4.140   2.869   4.488 -0.4633 -0.2170  0.0308
17449TIP3    H173762   4.204   2.810   4.528  0.2154  0.3105 -0.2633
17449TIP3    H273763   4.063   2.814   4.473  0.1668 -1.0404 -0.2651
17450TIP3   OH273764   0.998   6.287  11.878  0.4047 -0.0246  0.2695
17450TIP3    H173765   0.967   6.197  11.873  2.2858 -0.7239  0.2103
17450TIP3    H273766   0.947   6.326  11.948 -1.4728 -0.6739 -0.6686
17451TIP3   OH273767   2.793   2.820   2.616 -0.1243 -0.2566 -0.2925
17451TIP3    H173768   2.724   2.818   2.551 -0.3287  1.2751 -0.1619
17451TIP3    H273769   2.836   2.905   2.604 -0.9018  0.6095  2.2706
17452TIP3   OH273770   3.672   3.833  16.680 -0.3629  0.4665  0.6227
17452TIP3    H173771   3.738   3.836  16.611 -0.5275 -0.7294  0.3826
17452TIP3    H273772   3.588   3.842  16.634 -0.4450  0.2438  0.7240
17453TIP3   OH273773   0.876   0.736   1.010  0.2625 -0.3175 -0.4203
17453TIP3    H173774   0.838   0.708   1.094  1.9666 -0.3131  0.4124
17453TIP3    H273775   0.847   0.670   0.947 -0.3764 -0.7936  0.3531
17454TIP3   OH273776   2.999   0.821  15.452 -0.8071 -0.4337 -0.3082
17454TIP3    H173777   3.070   0.845  15.511 -1.2351 -1.6627  0.7549
17454TIP3    H273778   2.977   0.902  15.406 -2.1945  1.3217  3.1042
17455TIP3   OH273779   3.561   6.130   3.222  0.1486  0.8472  0.4598
17455TIP3    H173780   3.656   6.121   3.222  0.0073 -1.2902 -0.1772
17455TIP3    H273781   3.537   6.133   3.129 -0.4437  0.7996  0.6064
17456TIP3   OH273782   1.696   2.005   0.458 -0.1451  0.1758  0.1399
17456TIP3    H173783   1.704   1.933   0.520 -0.3012  0.3235  0.3320
17456TIP3    H273784   1.738   2.079   0.502 -0.2274  0.2717  0.0550
17457TIP3   OH273785   6.589   1.094  14.554 -0.0283 -0.0704 -0.4275
17457TIP3    H173786   6.621   1.041  14.481  0.4314  1.0446 -1.0643
17457TIP3    H273787   6.616   1.047  14.632 -1.0040 -1.5731 -0.9577
17458TIP3   OH273788   6.034   6.204   5.347 -0.3496 -0.2116 -0.3330
17458TIP3    H173789   5.971   6.248   5.290  0.9321  2.3012  0.0548
17458TIP3    H273790   6.040   6.261   5.424  2.8687  0.0626 -0.6486
17459TIP3   OH273791   4.267   6.593   5.890  0.6569  0.2319 -0.5259
17459TIP3    H173792   4.288   6.500   5.891  1.1051  0.3015 -1.5136
17459TIP3    H273793   4.326   6.630   5.824  2.5553  1.7279  1.8346
17460TIP3   OH273794   3.092   6.018  11.677 -0.0596  0.0841  0.1445
17460TIP3    H173795   3.186   6.034  11.686 -0.1878  2.6291 -2.0035
17460TIP3    H273796   3.064   5.993  11.766  2.2470  1.4380  1.3585
17461TIP3   OH273797   0.080   3.428  11.168  0.2566 -0.3762  0.5804
17461TIP3    H173798   0.032   3.391  11.242 -1.7601 -1.3621 -1.1225
17461TIP3    H273799   0.013   3.460  11.108  1.8667  3.2062  0.4475
17462TIP3   OH273800   2.673   1.794   3.685 -0.3943 -0.1075 -0.2973
17462TIP3    H173801   2.673   1.853   3.761  0.4633 -0.2516 -0.1685
17462TIP3    H273802   2.721   1.717   3.715 -2.4780 -1.3869 -0.0978
17463TIP3   OH273803   2.915   3.326  16.624  0.4357  1.0234  0.1166
17463TIP3    H173804   2.974   3.259  16.657  1.7175  0.2730 -3.3094
17463TIP3    H273805   2.828   3.296  16.650  1.0179 -1.7138 -0.8030
17464TIP3   OH273806   0.422   1.212  14.390 -0.7554  0.0671 -0.1503
17464TIP3    H173807   0.437   1.169  14.305  2.6116 -0.9773  0.8014
17464TIP3    H273808   0.452   1.302  14.377  0.6090 -0.3257  0.0860
17465TIP3   OH273809   0.921   3.841   4.945  0.4209  0.3805  0.2087
17465TIP3    H173810   0.831   3.829   4.978  0.1659  0.0982 -0.5772
17465TIP3    H273811   0.910   3.884   4.860  0.9921 -0.3716 -0.2494
17466TIP3   OH273812   2.037   0.526  13.744 -0.3571 -0.0330 -0.2534
17466TIP3    H173813   1.993   0.537  13.828 -0.6104 -0.4788 -0.3247
17466TIP3    H273814   2.130   0.528  13.766 -0.4066 -1.7533  0.2759
17467TIP3   OH273815   1.434   6.690   3.744 -0.1421  0.2365 -0.0660
17467TIP3    H173816   1.463   6.642   3.821  1.0475 -0.8972 -1.1784
17467TIP3    H273817   1.425   6.780   3.774 -1.3413 -0.4380  1.7888
17468TIP3   OH273818   2.205   1.544  13.335  0.1690 -0.7471  0.1110
17468TIP3    H173819   2.197   1.450  13.352  1.2024 -1.0926 -1.1720
17468TIP3    H273820   2.285   1.570  13.380 -0.2619 -0.4051  0.6960
17469TIP3   OH273821   0.352   1.075  12.732 -0.0891  0.2336 -0.1034
17469TIP3    H173822   0.256   1.072  12.737 -0.2291 -2.1353 -2.2946
17469TIP3    H273823   0.379   1.093  12.822 -2.5502 -0.4563  0.8760
17470TIP3   OH273824   2.507   4.822  16.042 -0.3907  0.4468 -0.3680
17470TIP3    H173825   2.452   4.745  16.025 -0.2751 -0.1306  1.7048
17470TIP3    H273826   2.582   4.811  15.983 -0.3744 -1.0453 -0.1069
17471TIP3   OH273827   2.323   6.669   0.937 -0.2772  0.3386  0.2370
17471TIP3    H173828   2.263   6.616   0.989 -0.1817 -0.0998 -0.0975
17471TIP3    H273829   2.409   6.632   0.955 -0.4384 -1.3613 -1.9980
17472TIP3   OH273830   1.673   4.180   5.721  0.0121 -0.2692 -0.6200
17472TIP3    H173831   1.709   4.203   5.635 -0.7375  0.2224 -0.8125
17472TIP3    H273832   1.701   4.090   5.735  1.2227  0.0517 -0.7999
17473TIP3   OH273833   0.242   5.559   1.886  0.9096 -0.1030  0.3266
17473TIP3    H173834   0.255   5.504   1.963  0.9321  1.3514  1.4068
17473TIP3    H273835   0.176   5.513   1.834 -0.4307 -0.2548  2.0975
17474TIP3   OH273836   0.999   5.776   2.502  1.0202  0.1068 -0.2483
17474TIP3    H173837   0.977   5.849   2.560 -0.0505 -1.1154  0.9463
17474TIP3    H273838   1.095   5.777   2.498  1.0534  1.0699  0.4152
17475TIP3   OH273839   4.786   6.614   6.215  0.3733 -0.0643 -0.1727
17475TIP3    H173840   4.785   6.656   6.301  1.9952 -0.1694 -0.0769
17475TIP3    H273841   4.719   6.661   6.164  0.3308  0.8807  0.7321
17476TIP3   OH273842   3.977   4.498   0.396 -0.3231 -0.0743  0.0261
17476TIP3    H173843   3.956   4.518   0.487 -0.6657 -3.0550  0.7088
17476TIP3    H273844   4.063   4.537   0.381 -0.6584  1.2129  1.3274
17477TIP3   OH273845   1.374   4.483   3.933  0.3921 -0.1162  0.2071
17477TIP3    H173846   1.429   4.426   3.987  3.3116  2.9188  0.7743
17477TIP3    H273847   1.436   4.541   3.888 -2.2768  2.6675 -0.2082
17478TIP3   OH273848   0.980   6.226  17.142 -0.6238 -0.1129  0.4840
17478TIP3    H173849   0.933   6.303  17.109 -0.0335 -0.4574 -1.2903
17478TIP3    H273850   0.913   6.157  17.145 -0.9543  0.2307  1.2096
17479TIP3   OH273851   2.861   4.320   3.169  0.0900  0.0396 -0.4768
17479TIP3    H173852   2.794   4.292   3.231  0.5275 -1.3230 -0.5959
17479TIP3    H273853   2.812   4.340   3.089 -0.1117 -2.1446 -0.9694
17480TIP3   OH273854   0.115   6.607  15.810 -0.4045  0.0624 -0.1445
17480TIP3    H173855   0.177   6.535  15.799 -1.9567 -1.2265 -0.7691
17480TIP3    H273856   0.077   6.619  15.723 -1.1577  0.6999  0.2659
17481TIP3   OH273857   4.455   4.233   3.276  0.5143 -0.0742 -0.3516
17481TIP3    H173858   4.462   4.297   3.204  0.1660  0.0341 -0.2892
17481TIP3    H273859   4.473   4.149   3.234 -3.0438 -0.4980 -1.3566
17482TIP3   OH273860   2.385   5.149  14.564 -0.8882 -0.0411 -0.0113
17482TIP3    H173861   2.351   5.091  14.632 -3.2701  0.1235 -0.9735
17482TIP3    H273862   2.435   5.215  14.611 -1.4271 -0.6511  1.4567
17483TIP3   OH273863   3.474   1.496   5.454  0.5855  0.6264 -0.3458
17483TIP3    H173864   3.459   1.411   5.495 -0.6496  0.8138 -0.3682
17483TIP3    H273865   3.534   1.477   5.381  1.7921  0.0950  0.7407
17484TIP3   OH273866   1.113   0.935   4.703  0.9303 -0.3454  0.5677
17484TIP3    H173867   1.101   0.885   4.783  1.0417 -2.0486 -0.4247
17484TIP3    H273868   1.024   0.953   4.673  0.8587 -1.2320  0.2003
17485TIP3   OH273869   2.601   6.725   5.756 -0.1723 -0.3405  0.3735
17485TIP3    H173870   2.521   6.737   5.808 -0.5374 -0.5047 -0.1447
17485TIP3    H273871   2.607   6.630   5.743  0.9636 -0.4865  1.7353
17486TIP3   OH273872   3.935   2.489  17.038 -0.1218 -0.3971  0.4914
17486TIP3    H173873   4.018   2.447  17.015  0.5324  0.9974  0.1569
17486TIP3    H273874   3.961   2.564  17.092 -1.1820 -0.0724  0.5627
17487TIP3   OH273875   4.325   5.212   0.675 -0.1155  0.8336 -0.3404
17487TIP3    H173876   4.262   5.279   0.647 -2.3050 -0.2244  1.6994
17487TIP3    H273877   4.273   5.151   0.727  2.2503 -1.2601 -0.2655
17488TIP3   OH273878   2.488   1.495  16.990 -0.1864  0.0012 -0.1626
17488TIP3    H173879   2.525   1.464  16.908 -0.5520  0.9558 -0.7033
17488TIP3    H273880   2.531   1.578  17.006  0.8018 -0.7452  1.2849
17489TIP3   OH273881   3.391   6.309   0.755  0.1993 -0.9997  0.1568
17489TIP3    H173882   3.424   6.320   0.666  1.3592  0.1005  0.6880
17489TIP3    H273883   3.462   6.263   0.801  0.0716 -0.6042  0.7613
17490TIP3   OH273884   1.674   0.041   2.218 -0.4630  0.0136  0.0796
17490TIP3    H173885   1.739  -0.008   2.268 -2.3739 -1.0824  1.6184
17490TIP3    H273886   1.641   0.107   2.280 -1.4782 -0.0784 -0.3348
17491TIP3   OH273887   1.448   4.283   5.938 -0.5801 -0.0074 -0.0874
17491TIP3    H173888   1.522   4.224   5.950  0.2082  0.7797 -0.9321
17491TIP3    H273889   1.393   4.240   5.872  0.4593  0.6008 -1.3856
17492TIP3   OH273890   6.321   6.138   5.269 -0.3037 -0.1229 -0.0412
17492TIP3    H173891   6.239   6.157   5.315 -0.9215  2.0502 -1.8441
17492TIP3    H273892   6.389   6.154   5.335 -1.1350  3.0716  0.2209
17493TIP3   OH273893   2.600   4.144   5.608  0.2417 -0.0734  0.2283
17493TIP3    H173894   2.676   4.194   5.639  0.7735 -0.6451 -0.1470
17493TIP3    H273895   2.565   4.196   5.536 -0.0581  0.4661  0.7542
17494TIP3   OH273896   0.066   3.741  13.473 -0.3968  0.0856  0.5767
17494TIP3    H173897   0.121   3.794  13.531  1.8442 -0.0215 -1.3061
17494TIP3    H273898   0.111   3.657  13.467  0.1632  0.4778 -2.1731
17495TIP3   OH273899   5.111   2.226   0.549 -0.1669 -0.4680  0.2382
17495TIP3    H173900   5.205   2.239   0.539 -0.1560 -1.1388 -0.6218
17495TIP3    H273901   5.104   2.152   0.610 -0.1126 -0.9141 -0.2851
17496TIP3   OH273902   1.362   5.778   4.467 -0.1953 -0.0259 -0.2910
17496TIP3    H173903   1.432   5.806   4.525  0.6611 -1.0656 -0.7821
17496TIP3    H273904   1.347   5.852   4.409  1.1384 -0.0988 -0.7532
17497TIP3   OH273905   1.437   0.748  16.471 -0.3805 -0.1172  0.1398
17497TIP3    H173906   1.437   0.700  16.554 -1.6954  0.6051  0.5808
17497TIP3    H273907   1.443   0.840  16.496  1.1652  0.0441 -0.6657
17498TIP3   OH273908   2.905   0.247   6.012  0.4333  0.1474 -0.4309
17498TIP3    H173909   2.851   0.313   6.054  0.0025 -1.9883  2.7185
17498TIP3    H273910   2.994   0.264   6.043  0.6396  0.3077 -1.0854
17499TIP3   OH273911   4.137   1.532   4.743  0.0561  0.1049  0.0844
17499TIP3    H173912   4.091   1.468   4.798  0.3320  0.0817  0.2926
17499TIP3    H273913   4.230   1.515   4.760  0.1527  2.1237  1.9918
17500TIP3   OH273914   4.222   1.727   3.335 -0.7541 -0.3237 -0.1999
17500TIP3    H173915   4.212   1.806   3.282  0.6853  0.2121  0.2702
17500TIP3    H273916   4.311   1.696   3.315 -0.0384  0.0573  2.0616
17501TIP3   OH273917   2.735   2.931   2.325  0.1243 -0.1886  0.2993
17501TIP3    H173918   2.729   3.005   2.385 -1.1893  0.0537 -0.0985
17501TIP3    H273919   2.701   2.965   2.242  1.2696 -0.7100 -0.4171
17502TIP3   OH273920   6.402   1.664   6.521  0.3656 -0.2705 -0.0394
17502TIP3    H173921   6.456   1.586   6.529  0.3536 -0.7116 -3.0233
17502TIP3    H273922   6.449   1.731   6.569  2.2353 -1.2727 -0.3649
17503TIP3   OH273923   2.234   6.346   3.604  0.1675  0.1039 -0.0738
17503TIP3    H173924   2.291   6.296   3.661  0.8911  0.1740 -0.7161
17503TIP3    H273925   2.150   6.301   3.608 -0.0801  0.6375  1.7423
17504TIP3   OH273926   2.257   2.672   3.456 -0.2014  0.3492 -0.2083
17504TIP3    H173927   2.215   2.596   3.496 -0.1893  1.1472  1.3975
17504TIP3    H273928   2.306   2.636   3.382 -1.6039 -0.9468 -0.5662
17505TIP3   OH273929   3.219   5.631  15.562  0.8494  0.1694  0.2455
17505TIP3    H173930   3.227   5.547  15.608  1.3343  0.5846  0.9541
17505TIP3    H273931   3.253   5.695  15.625 -1.4997  1.1891  0.5925
17506TIP3   OH273932   0.451   3.314   3.869 -0.1786  0.0672  0.3050
17506TIP3    H173933   0.413   3.346   3.951  0.6461 -0.1728  0.7903
17506TIP3    H273934   0.523   3.375   3.852 -1.9462  1.7466 -1.6595
17507TIP3   OH273935   1.587   5.902   1.858  0.0879  0.2065 -0.4397
17507TIP3    H173936   1.559   5.911   1.949 -0.1982 -0.2570 -0.4775
17507TIP3    H273937   1.659   5.839   1.862 -0.8649 -0.9335 -0.6948
17508TIP3   OH273938   0.429   0.839  13.126 -0.3348  0.1007 -0.5697
17508TIP3    H173939   0.403   0.851  13.218  0.2609  0.2452 -0.4133
17508TIP3    H273940   0.348   0.852  13.076 -0.0828  3.3219 -0.3299
17509TIP3   OH273941   6.383   3.554   1.564  0.4604  0.0185 -0.0801
17509TIP3    H173942   6.288   3.540   1.565 -0.0470  2.8489  0.6684
17509TIP3    H273943   6.400   3.611   1.639  2.6407  0.2491 -0.6734
17510TIP3   OH273944   4.439   2.703  14.412  0.6373 -0.4363  0.5284
17510TIP3    H173945   4.473   2.700  14.323  0.2397  2.1298  0.2156
17510TIP3    H273946   4.429   2.797  14.431 -0.9584 -0.9488  2.6175
17511TIP3   OH273947   6.678   5.039   2.599 -0.2640 -0.5384  0.4128
17511TIP3    H173948   6.724   4.955   2.590 -0.6163 -0.9159  1.8060
17511TIP3    H273949   6.637   5.034   2.686  0.2900  1.3736  0.8141
17512TIP3   OH273950   6.227   3.382  13.597 -0.4754 -0.4279  0.4480
17512TIP3    H173951   6.174   3.433  13.657  0.9764 -0.1638  1.5530
17512TIP3    H273952   6.228   3.432  13.516 -0.3161  0.5386  1.0398
17513TIP3   OH273953   0.626   1.479  15.800 -0.0368  0.0989 -0.1838
17513TIP3    H173954   0.692   1.530  15.847 -0.4859  0.8179 -0.3224
17513TIP3    H273955   0.560   1.458  15.866 -0.7231  1.2030 -0.4969
17514TIP3   OH273956   6.124   2.678  13.766 -0.3740 -0.3365  0.0057
17514TIP3    H173957   6.057   2.643  13.707 -1.8418 -0.4813  1.6745
17514TIP3    H273958   6.187   2.606  13.776 -1.6837 -1.4173  0.8978
17515TIP3   OH273959   2.966   6.012   4.794  0.5217 -0.5964  0.2441
17515TIP3    H173960   2.878   6.052   4.796  0.3727 -0.8921 -0.3646
17515TIP3    H273961   2.977   5.983   4.704  1.2439 -0.5790  0.3275
17516TIP3   OH273962   0.470   2.269  11.313 -0.1963  0.0338 -0.2564
17516TIP3    H173963   0.471   2.227  11.227  1.4534 -0.7525  0.0829
17516TIP3    H273964   0.563   2.287  11.331 -0.4569 -0.2279  1.5275
17517TIP3   OH273965   5.892   4.627  15.616  0.2987  0.3419  0.2061
17517TIP3    H173966   5.800   4.650  15.605  0.3447  0.8604  0.8504
17517TIP3    H273967   5.937   4.672  15.544  0.1770  0.9503  0.5035
17518TIP3   OH273968   6.624   2.256   0.718  0.9591 -0.3019 -0.3217
17518TIP3    H173969   6.660   2.341   0.743  0.3820  0.2426 -1.2627
17518TIP3    H273970   6.700   2.198   0.713  1.2271 -0.1750  1.5264
17519TIP3   OH273971   6.764   4.560   5.567 -0.2650 -0.2183  0.2168
17519TIP3    H173972   6.678   4.584   5.532 -0.3274 -0.6807  0.0511
17519TIP3    H273973   6.823   4.569   5.492 -0.5222 -1.9342 -0.2194
17520TIP3   OH273974   4.874   1.628   0.998  0.4566  0.2923  0.0721
17520TIP3    H173975   4.785   1.646   1.028  0.3517 -0.4843  0.2535
17520TIP3    H273976   4.925   1.620   1.079  0.3790 -0.7708  0.0381
17521TIP3   OH273977   2.093   6.704  14.852  0.7001 -0.5397 -0.1169
17521TIP3    H173978   2.165   6.644  14.872  0.3247 -1.2044 -0.7187
17521TIP3    H273979   2.073   6.746  14.936  1.2642 -0.9305  0.2189
17522TIP3   OH273980   1.338   0.480  16.090  0.8198 -0.0164  0.6784
17522TIP3    H173981   1.353   0.563  16.135 -2.7145  0.2776  1.6314
17522TIP3    H273982   1.274   0.434  16.145  0.0473 -1.8200 -1.5676
17523TIP3   OH273983   0.819   2.338  13.041  0.5273 -0.0892  0.0868
17523TIP3    H173984   0.822   2.412  12.982 -2.3935  1.5111  1.7290
17523TIP3    H273985   0.841   2.375  13.127 -1.0071 -1.0855  0.9421
17524TIP3   OH273986   6.709   0.390  12.826  0.2512 -0.5696 -1.0176
17524TIP3    H173987   6.674   0.336  12.897  0.1023  0.5580 -0.1908
17524TIP3    H273988   6.738   0.328  12.760  1.2367 -1.6996  0.4163
17525TIP3   OH273989   0.198   4.586   6.057  0.4259 -0.2413  0.0962
17525TIP3    H173990   0.206   4.500   6.097  0.1970 -0.1366  0.3656
17525TIP3    H273991   0.238   4.646   6.121 -1.8879  0.2230  1.1955
17526TIP3   OH273992   0.408   5.748  16.250 -0.4303 -0.6747 -0.3750
17526TIP3    H173993   0.444   5.717  16.332 -0.2135  0.5247  0.0078
17526TIP3    H273994   0.335   5.689  16.231 -0.2153 -1.2119  0.4570
17527TIP3   OH273995   0.768   0.528   5.685 -0.4285  0.0955 -0.0162
17527TIP3    H173996   0.707   0.601   5.686 -0.9404 -0.1812 -2.8098
17527TIP3    H273997   0.713   0.451   5.667  0.4377 -0.5325 -0.0426
17528TIP3   OH273998   4.134   3.978   4.444  0.3378  0.1557 -0.1743
17528TIP3    H173999   4.149   3.946   4.533  0.8872  1.6797  0.3182
17528TIP3    H274000   4.039   3.969   4.431  0.3609 -0.7860  0.2701
17529TIP3   OH274001   2.621   5.760   6.016 -0.1055 -0.1421  0.6716
17529TIP3    H174002   2.628   5.674   5.974  0.3764  0.5893 -0.8282
17529TIP3    H274003   2.539   5.757   6.065 -1.7208 -0.4238 -1.8833
17530TIP3   OH274004   6.579   1.287   2.426 -0.4397  0.4396 -0.2443
17530TIP3    H174005   6.563   1.276   2.333 -1.2911  2.6759 -0.4168
17530TIP3    H274006   6.545   1.207   2.466 -0.9371 -0.1303 -1.7461
17531TIP3   OH274007   3.569   2.808   4.511  0.4029 -0.4218  0.1951
17531TIP3    H174008   3.576   2.868   4.585 -1.6565  1.1801 -0.7917
17531TIP3    H274009   3.504   2.743   4.538  0.1055 -0.1927  0.0433
17532TIP3   OH274010   6.724   2.582  13.542 -0.3490 -0.1817 -0.3798
17532TIP3    H174011   6.699   2.514  13.605  0.4160  0.5060  0.6979
17532TIP3    H274012   6.728   2.536  13.458  0.4424 -1.5436  0.3702
17533TIP3   OH274013   6.530   1.351  10.704  0.2238  0.0255 -0.1083
17533TIP3    H174014   6.441   1.349  10.738  0.7533 -0.0103  1.3325
17533TIP3    H274015   6.582   1.389  10.774  1.5491 -1.1114 -0.4209
17534TIP3   OH274016   2.039   5.713   0.798  0.7206  0.7284  0.3779
17534TIP3    H174017   2.013   5.632   0.842  1.5301  0.7782  0.9726
17534TIP3    H274018   1.957   5.750   0.764  0.1243  0.5110  1.5383
17535TIP3   OH274019   6.381   4.389  17.223 -0.0447 -0.2686 -0.3882
17535TIP3    H174020   6.298   4.342  17.211  0.7617 -1.5655 -1.0640
17535TIP3    H274021   6.407   4.370  17.313  0.3531 -1.2663 -0.7062
17536TIP3   OH274022   2.520   1.387  16.224 -0.2703  0.6078  0.3743
17536TIP3    H174023   2.460   1.460  16.208  0.0715  0.9951  0.8102
17536TIP3    H274024   2.598   1.408  16.172 -0.5223  0.0879 -0.2202
17537TIP3   OH274025   1.019   1.645   1.789  0.4990 -0.3839 -0.8657
17537TIP3    H174026   1.069   1.712   1.835 -1.8575  0.8917  0.0307
17537TIP3    H274027   1.025   1.568   1.846  0.3820  0.1508 -0.1059
17538TIP3   OH274028   3.458   0.727  11.042  0.2255 -0.2372  0.9458
17538TIP3    H174029   3.550   0.712  11.020  0.4325  0.2684  1.4436
17538TIP3    H274030   3.425   0.782  10.972  0.0969 -1.0355  0.3672
17539TIP3   OH274031   4.526   6.423   1.911  0.0479  0.2720 -0.1010
17539TIP3    H174032   4.471   6.351   1.882 -1.0402  0.6480  0.9722
17539TIP3    H274033   4.550   6.469   1.830 -1.2058  0.0915 -0.5866
17540TIP3   OH274034   3.614   1.988  15.268 -0.6012  0.1797 -0.3490
17540TIP3    H174035   3.640   1.933  15.341 -2.2981  2.4505  2.1459
17540TIP3    H274036   3.554   1.933  15.217  0.9598 -1.5969 -0.3829
17541TIP3   OH274037   4.080   3.575  14.111 -0.1000 -0.2668 -0.0874
17541TIP3    H174038   4.007   3.637  14.108 -1.3984 -1.7671 -1.0360
17541TIP3    H274039   4.150   3.619  14.062 -0.9108  0.5354 -0.5691
17542TIP3   OH274040   0.279   5.810  12.468  0.2404  0.1783  0.1632
17542TIP3    H174041   0.238   5.724  12.459  0.0624  0.3359 -0.6753
17542TIP3    H274042   0.206   5.872  12.460  0.4555  0.4236  0.0836
17543TIP3   OH274043   5.898   1.857   2.754  0.6244 -0.2732 -0.7375
17543TIP3    H174044   5.829   1.851   2.688  0.2282  0.9745 -0.4622
17543TIP3    H274045   5.917   1.766   2.777 -1.1419 -0.6295 -0.5942
17544TIP3   OH274046   5.412   3.687  12.292  0.0282  0.0657 -0.3586
17544TIP3    H174047   5.500   3.713  12.321  0.0415  1.1102 -1.2676
17544TIP3    H274048   5.379   3.764  12.246 -1.3108 -0.3700 -0.1588
17545TIP3   OH274049   3.399   1.273  12.460 -0.2524 -0.1825  0.7856
17545TIP3    H174050   3.364   1.200  12.511 -0.3832 -0.5263  0.2173
17545TIP3    H274051   3.494   1.261  12.463 -0.3081 -1.0348 -0.2327
17546TIP3   OH274052   3.011   5.821  15.529  0.1424  0.7168  0.7484
17546TIP3    H174053   3.071   5.746  15.538 -1.2767 -0.2354  3.3097
17546TIP3    H274054   2.933   5.795  15.578 -1.4764  2.8396 -0.5496
17547TIP3   OH274055   3.862   2.723   4.556 -0.5118  0.0022  0.1697
17547TIP3    H174056   3.784   2.774   4.532 -0.7354 -0.6693 -0.5777
17547TIP3    H274057   3.891   2.761   4.639 -1.3696  0.5608  0.2270
17548TIP3   OH274058   2.350   6.034  13.110  0.0172  0.0615  0.1773
17548TIP3    H174059   2.374   5.983  13.032 -0.5175  1.6049 -1.0463
17548TIP3    H274060   2.309   5.970  13.168  0.0914 -1.0758 -0.9734
17549TIP3   OH274061   5.531   5.654  13.329 -0.2251 -0.1825 -0.2485
17549TIP3    H174062   5.472   5.699  13.390 -0.8002  0.7202 -1.4295
17549TIP3    H274063   5.491   5.568  13.317 -0.3226 -0.2235  0.3323
17550TIP3   OH274064   6.095   1.688  14.327 -0.7901  0.2684  0.0561
17550TIP3    H174065   6.161   1.628  14.292 -0.8120  0.3192 -0.0740
17550TIP3    H274066   6.013   1.658  14.288 -0.5024  1.8019 -1.9117
17551TIP3   OH274067   3.647   6.184   1.181 -0.5499 -0.3120 -0.2714
17551TIP3    H174068   3.722   6.220   1.227  0.6529  0.4774 -2.7085
17551TIP3    H274069   3.679   6.102   1.144 -1.6507 -1.1896  0.6154
17552TIP3   OH274070   3.479   6.654   3.087 -0.3462 -0.1335 -0.7988
17552TIP3    H174071   3.534   6.596   3.141  0.3281  1.2829  0.0847
17552TIP3    H274072   3.478   6.737   3.133 -1.4328  0.5424 -1.9596
17553TIP3   OH274073   4.038   4.342  12.085  0.5070 -0.0857  0.4283
17553TIP3    H174074   4.074   4.308  12.167  1.4297  0.9107  0.4574
17553TIP3    H274075   3.970   4.404  12.112 -0.6965 -1.3210  0.3819
17554TIP3   OH274076   6.583   4.696   1.988  0.1700  0.1743  0.0142
17554TIP3    H174077   6.651   4.688   2.055  1.4404  0.4538 -1.1937
17554TIP3    H274078   6.529   4.769   2.018  1.4448  1.1011  0.1373
17555TIP3   OH274079   3.475   5.544  11.027 -0.0550  0.6654 -0.2123
17555TIP3    H174080   3.423   5.623  11.038 -0.6431  0.5243 -1.7911
17555TIP3    H274081   3.555   5.574  10.983  1.0687  0.8060  1.7760
17556TIP3   OH274082   1.983   6.768   5.035  0.3541  0.6411  0.1668
17556TIP3    H174083   1.975   6.762   5.130  2.3452  0.8994  0.3953
17556TIP3    H274084   1.965   6.859   5.015 -1.8411  0.2348  0.0371
17557TIP3   OH274085   1.763   1.448  14.948  0.1272 -0.3096 -0.9564
17557TIP3    H174086   1.692   1.395  14.984  0.7518 -0.7425 -0.3345
17557TIP3    H274087   1.736   1.539  14.965 -0.7170 -0.4333 -1.5893
17558TIP3   OH274088   4.116   6.465   1.821  0.2401 -0.0738  0.1560
17558TIP3    H174089   4.180   6.536   1.828  1.7726 -1.4193  0.3912
17558TIP3    H274090   4.085   6.453   1.911  0.6484 -0.2824  0.2718
17559TIP3   OH274091   3.729   5.305  15.503 -0.2362 -0.1382  0.6523
17559TIP3    H174092   3.655   5.328  15.559 -0.7797 -3.2333  1.3859
17559TIP3    H274093   3.709   5.348  15.419 -1.3070  1.5236  1.7088
17560TIP3   OH274094   2.080   1.268   1.929  0.1934 -0.1081  0.0405
17560TIP3    H174095   2.065   1.263   2.023 -0.2146  1.0895  0.0514
17560TIP3    H274096   2.036   1.348   1.902 -0.3422 -0.8355 -1.3002
17561TIP3   OH274097   0.637   1.365  13.857  0.3050  0.4290  0.1540
17561TIP3    H174098   0.701   1.366  13.786  0.8874  1.6147  0.6702
17561TIP3    H274099   0.624   1.457  13.879  1.9662  0.0621  3.1810
17562TIP3   OH274100   1.638   4.585   3.865  0.1594  0.2693  0.0318
17562TIP3    H174101   1.719   4.538   3.848 -0.5884 -0.4555 -1.8272
17562TIP3    H274102   1.625   4.640   3.787 -1.2579  0.1696  0.1629
17563TIP3   OH274103   0.303   5.344   4.713  0.3141  0.3931  0.1496
17563TIP3    H174104   0.218   5.301   4.718  0.0702  0.5782 -1.7766
17563TIP3    H274105   0.359   5.292   4.771 -0.7818 -0.5076  0.4414
17564TIP3   OH274106   2.217   0.830  14.200  0.0150  0.4874  0.5840
17564TIP3    H174107   2.252   0.762  14.256  0.4113  0.2097  0.0098
17564TIP3    H274108   2.247   0.807  14.112 -2.0903 -0.1091 -0.0309
17565TIP3   OH274109   0.620   0.880   5.484  0.0940  0.1859 -0.1104
17565TIP3    H174110   0.645   0.795   5.449 -0.5446  0.1201 -0.4286
17565TIP3    H274111   0.541   0.863   5.535  0.8827  0.3201  1.1990
17566TIP3   OH274112   1.039   2.522  16.009  0.4579  1.0172 -0.0426
17566TIP3    H174113   1.036   2.616  15.991  0.0476  1.1915  0.8911
17566TIP3    H274114   0.967   2.507  16.070 -0.8566 -0.2773 -1.8002
17567TIP3   OH274115   3.827   3.911  15.951  0.0241 -0.0249  0.0441
17567TIP3    H174116   3.880   3.985  15.980  1.7562 -0.7183 -1.1503
17567TIP3    H274117   3.801   3.867  16.032  1.9311 -0.0696  0.6833
17568TIP3   OH274118   4.889   4.251   1.518 -0.4107  0.0324  0.0046
17568TIP3    H174119   4.913   4.333   1.476  0.8497 -0.4088 -0.1715
17568TIP3    H274120   4.972   4.211   1.543 -1.0563 -0.1718  2.0794
17569TIP3   OH274121   0.920   5.735   2.235  0.6400 -0.0967  0.1576
17569TIP3    H174122   0.940   5.641   2.238 -1.6068 -0.6233  0.3829
17569TIP3    H274123   0.916   5.761   2.326  0.4250  0.0147  0.1164
17570TIP3   OH274124   1.984   4.542  13.341 -0.3528 -0.2164 -0.1620
17570TIP3    H174125   1.996   4.609  13.274 -2.5276 -0.3136 -0.7299
17570TIP3    H274126   1.921   4.581  13.402 -1.9561 -1.8044 -0.7047
17571TIP3   OH274127   6.047   6.375  11.247  0.0704  0.7210  0.4505
17571TIP3    H174128   6.137   6.344  11.242 -0.7027 -1.8391  0.6601
17571TIP3    H274129   6.003   6.335  11.172 -1.0097  1.4998  0.6339
17572TIP3   OH274130   4.695   2.033  15.070 -0.3005  0.2176 -0.3289
17572TIP3    H174131   4.690   2.119  15.029 -0.8664 -0.1746 -1.1181
17572TIP3    H274132   4.699   2.051  15.164 -1.1094  1.0930 -0.4506
17573TIP3   OH274133   3.953   1.289   5.557 -0.1231 -0.0566  0.3158
17573TIP3    H174134   3.943   1.384   5.569  3.0530  0.3748  0.3054
17573TIP3    H274135   3.897   1.269   5.482 -0.8168  1.8053  0.2653
17574TIP3   OH274136   4.866   1.018  15.439 -0.1644  0.2333  0.0607
17574TIP3    H174137   4.812   1.007  15.517 -1.6606  1.4790 -0.7335
17574TIP3    H274138   4.840   1.103  15.403  0.9588  0.0048 -1.4248
17575TIP3   OH274139   4.051   0.203   0.124  0.6046  0.0057 -0.1494
17575TIP3    H174140   4.062   0.288   0.082 -2.3982  1.3822  1.5283
17575TIP3    H274141   4.121   0.199   0.190  2.5645 -0.2171 -2.1323
17576TIP3   OH274142   4.914   3.918  12.817 -0.0578 -0.3241 -0.0020
17576TIP3    H174143   4.835   3.879  12.853  0.5182 -1.1251  0.4211
17576TIP3    H274144   4.899   3.920  12.723 -1.0800  0.6692  0.1599
17577TIP3   OH274145   1.106   6.776   5.530 -0.0783  0.4450 -0.8425
17577TIP3    H174146   1.089   6.746   5.441  0.4079 -0.9229 -0.5064
17577TIP3    H274147   1.196   6.749   5.548 -0.9249 -1.5235  0.8688
17578TIP3   OH274148   3.389   3.192  14.742 -0.0233  0.3442  0.3175
17578TIP3    H174149   3.346   3.276  14.729 -0.9720  0.2567  2.5719
17578TIP3    H274150   3.325   3.127  14.715 -0.8063  0.2613  2.2668
17579TIP3   OH274151   2.303   4.341  11.143  0.6942 -0.2280  0.0053
17579TIP3    H174152   2.329   4.260  11.100 -1.6464 -1.2709  0.4137
17579TIP3    H274153   2.324   4.410  11.080  1.5213 -1.2502 -0.8707
17580TIP3   OH274154   5.492   1.459  14.811  0.7514  0.4080  1.1706
17580TIP3    H174155   5.535   1.391  14.863 -0.6193 -0.5568  1.1132
17580TIP3    H274156   5.398   1.446  14.828  0.3694  1.1659 -0.2124
17581TIP3   OH274157   3.867   3.200   1.496 -0.2168 -0.6170  0.3807
17581TIP3    H174158   3.810   3.230   1.426  1.0821 -0.0487 -0.4753
17581TIP3    H274159   3.923   3.275   1.515 -1.0735 -0.4758  2.6381
17582TIP3   OH274160   6.045   4.899   0.851  0.5922 -0.2892 -0.0656
17582TIP3    H174161   6.004   4.867   0.931  0.3985 -0.1148 -0.0955
17582TIP3    H274162   5.985   4.874   0.781  0.3898  0.2321 -0.0791
17583TIP3   OH274163   6.720   4.007   1.129  0.3189  0.0219 -0.2612
17583TIP3    H174164   6.779   3.947   1.174 -0.0235 -0.3507 -0.2986
17583TIP3    H274165   6.727   4.089   1.178  0.2334 -0.2667  0.2470
17584TIP3   OH274166   2.664   6.649   4.908  0.2852  0.1971  0.6925
17584TIP3    H174167   2.710   6.580   4.956 -0.0861 -0.5381  0.0186
17584TIP3    H274168   2.587   6.606   4.873 -1.3728  1.5872  2.4350
17585TIP3   OH274169   1.544   0.870   2.628 -0.6557 -0.5504  0.7566
17585TIP3    H174170   1.478   0.914   2.682 -0.0002  0.8728  0.4653
17585TIP3    H274171   1.569   0.793   2.679  0.4749  1.1147  2.9118
17586TIP3   OH274172   5.841   6.703  16.926 -0.3481 -0.4045  0.5633
17586TIP3    H174173   5.924   6.746  16.947  0.2186 -1.2221  0.0763
17586TIP3    H274174   5.801   6.758  16.859 -0.6385  0.4778  1.4438
17587TIP3   OH274175   0.296   5.654  14.874 -0.4986 -0.0710 -0.1307
17587TIP3    H174176   0.341   5.589  14.820 -1.4356  1.6084 -3.1309
17587TIP3    H274177   0.363   5.683  14.936  0.4667 -2.4921  0.0879
17588TIP3   OH274178   4.533   0.872   5.682 -0.1339  0.5484  0.6498
17588TIP3    H174179   4.518   0.906   5.770  1.2690  0.4988  0.9327
17588TIP3    H274180   4.460   0.812   5.666 -1.1742  1.6348  1.1959
17589TIP3   OH274181   2.611   6.745  17.147 -0.0038 -0.2020  0.2379
17589TIP3    H174182   2.646   6.678  17.089  0.5058  0.3579 -0.1178
17589TIP3    H274183   2.681   6.761  17.210 -0.3167 -0.3614  0.6315
17590TIP3   OH274184   3.902   5.339   2.181 -0.8610 -0.5838  0.5630
17590TIP3    H174185   3.930   5.426   2.150  0.9321 -1.6726 -1.1530
17590TIP3    H274186   3.901   5.346   2.276  0.0497  1.0861  0.4869
17591TIP3   OH274187   5.958   1.820   2.115 -0.2679 -0.4127 -0.0488
17591TIP3    H174188   5.948   1.738   2.163  1.2780 -1.0286 -0.6861
17591TIP3    H274189   5.973   1.886   2.182  0.0564 -0.9454  0.4157
17592TIP3   OH274190   4.858   3.154   4.775  0.0305  0.4006 -0.0393
17592TIP3    H174191   4.830   3.128   4.863  2.5338  0.7337  0.9108
17592TIP3    H274192   4.776   3.169   4.728 -1.3830  0.0772  2.1754
17593TIP3   OH274193   5.917   5.317   1.894  0.2837  0.7024 -0.2353
17593TIP3    H174194   5.861   5.241   1.881  0.8597  0.1165  0.5940
17593TIP3    H274195   5.960   5.330   1.810  0.6837 -0.3146 -0.2025
17594TIP3   OH274196   3.318   5.029   0.759  1.0495 -0.1868 -0.1514
17594TIP3    H174197   3.353   4.969   0.693  0.2572  0.8713 -1.5940
17594TIP3    H274198   3.337   5.116   0.724  0.7729  0.4083  1.1262
17595TIP3   OH274199   3.207   2.898  11.298 -0.1153  0.2451  0.2172
17595TIP3    H174200   3.128   2.845  11.288 -0.2657  0.5202 -0.0703
17595TIP3    H274201   3.246   2.868  11.380  0.2417 -0.8943 -0.3460
17596TIP3   OH274202   0.352   5.676   2.343  0.5455  0.2994  0.0696
17596TIP3    H174203   0.363   5.693   2.436 -1.3207  1.1758  0.1879
17596TIP3    H274204   0.360   5.581   2.334 -1.4931 -0.0896  1.5446
17597TIP3   OH274205   2.761   1.328  11.632 -0.0698 -0.1569  0.4918
17597TIP3    H174206   2.849   1.335  11.595 -0.6248 -1.1063 -1.1392
17597TIP3    H274207   2.756   1.238  11.664 -1.2425 -1.0161 -1.8337
17598TIP3   OH274208   5.139   5.549   3.048  0.4055  0.0262  0.2816
17598TIP3    H174209   5.188   5.520   2.972  0.7792  0.9245  0.1604
17598TIP3    H274210   5.048   5.527   3.029  0.0073  2.9300 -1.8342
17599TIP3   OH274211   1.842   4.736   2.897 -0.3361  0.2826 -0.2167
17599TIP3    H174212   1.786   4.790   2.841  2.2654  1.3117 -1.9984
17599TIP3    H274213   1.792   4.656   2.911 -1.4939  0.3322 -3.3642
17600TIP3   OH274214   3.606   5.195   5.945 -0.5576  0.2454  0.3805
17600TIP3    H174215   3.673   5.208   6.012  0.1016  1.5620 -0.5037
17600TIP3    H274216   3.524   5.188   5.994  0.0565 -0.0048  1.3921
17601TIP3   OH274217   6.691   3.208   4.036  0.2790  0.4899 -0.7459
17601TIP3    H174218   6.665   3.245   4.120 -0.8239 -0.5862 -0.5889
17601TIP3    H274219   6.609   3.184   3.993  0.8001  1.2287 -2.2554
17602TIP3   OH274220   3.953   3.141  15.835 -0.1003 -0.2216 -0.4155
17602TIP3    H174221   3.877   3.156  15.778 -0.5352  0.7276  0.3845
17602TIP3    H274222   3.963   3.223  15.884  0.7175 -0.7562  0.3487
17603TIP3   OH274223   1.467   2.045  14.184  0.0263  0.6170 -1.0420
17603TIP3    H174224   1.479   2.053  14.279 -1.0023 -1.2252 -0.7022
17603TIP3    H274225   1.424   2.127  14.159  0.1453  1.0545  0.1121
17604TIP3   OH274226   6.075   4.961   4.426 -0.9111  0.3778 -0.0801
17604TIP3    H174227   6.167   4.966   4.448 -1.5107 -1.2679  3.4731
17604TIP3    H274228   6.034   5.032   4.475 -1.8303 -0.8719  1.0703
17605TIP3   OH274229   0.949   5.242   4.160 -0.5211 -0.0892  0.6455
17605TIP3    H174230   0.997   5.166   4.128 -1.6368  0.4010 -2.5149
17605TIP3    H274231   1.015   5.298   4.200  0.7647 -1.4236  0.4547
17606TIP3   OH274232   5.853   2.131   2.638  0.1123  0.4371  0.2505
17606TIP3    H174233   5.802   2.153   2.716  1.4555 -1.0282  1.6342
17606TIP3    H274234   5.927   2.080   2.672  0.0978 -1.3127 -2.1184
17607TIP3   OH274235   1.936   3.488   4.897 -0.1766 -0.2228 -0.2435
17607TIP3    H174236   1.982   3.431   4.837  0.6827 -1.3782  1.4299
17607TIP3    H274237   1.859   3.518   4.848 -0.1207 -2.0050 -1.5097
17608TIP3   OH274238   3.612   4.855  16.231 -0.3071 -0.3490  0.2075
17608TIP3    H174239   3.677   4.826  16.294  0.3363 -0.6190 -0.5653
17608TIP3    H274240   3.530   4.813  16.259 -0.3277  0.5495  1.5939
17609TIP3   OH274241   1.431   5.800   0.052  0.5179 -0.1917  0.1831
17609TIP3    H174242   1.356   5.858   0.039  0.3577 -0.7046 -1.4489
17609TIP3    H274243   1.406   5.719   0.007  1.3189 -1.0144  1.1784
17610TIP3   OH274244   2.374   4.213   2.919 -0.1035  0.4570  0.2971
17610TIP3    H174245   2.420   4.206   2.835 -0.7252 -0.2846 -0.0025
17610TIP3    H274246   2.320   4.291   2.911 -1.3940 -0.4868 -0.6519
17611TIP3   OH274247   2.637   4.140   6.446 -0.4878  0.0799  0.0760
17611TIP3    H174248   2.693   4.184   6.510 -1.1056  1.6506 -0.4234
17611TIP3    H274249   2.684   4.059   6.425  1.5783  1.3026 -0.2927
17612TIP3   OH274250   3.418   2.930  11.968  0.0014 -0.1990 -0.3010
17612TIP3    H174251   3.408   3.002  11.906 -0.9106  1.9664  2.1936
17612TIP3    H274252   3.509   2.935  11.996 -0.0956  0.1121 -0.0285
17613TIP3   OH274253   1.836   2.228   0.578  0.7548 -0.3678  0.0208
17613TIP3    H174254   1.790   2.252   0.659 -1.1897  0.0223 -1.1239
17613TIP3    H274255   1.907   2.292   0.572 -1.4508  2.2589 -0.5129
17614TIP3   OH274256   2.431   5.158   4.620 -0.2034 -0.0684 -0.0759
17614TIP3    H174257   2.429   5.143   4.525 -5.0099 -0.4928 -0.1435
17614TIP3    H274258   2.424   5.070   4.658  0.2933  0.1974  0.6479
17615TIP3   OH274259   2.350   4.255  11.909  0.1821  1.1221 -0.0825
17615TIP3    H174260   2.282   4.209  11.861  0.6908  0.8227 -0.5368
17615TIP3    H274261   2.432   4.225  11.868  0.6029  1.1944  0.6857
17616TIP3   OH274262   4.070   4.040  14.746 -0.5331 -0.1455 -0.0206
17616TIP3    H174263   4.028   3.980  14.684 -1.7864  0.8432 -0.1590
17616TIP3    H274264   4.006   4.053  14.815  1.3145 -2.2580  2.2773
17617TIP3   OH274265   1.349   0.492  16.381 -0.0708  0.1796 -0.2600
17617TIP3    H174266   1.371   0.584  16.389  0.8006 -0.0808  0.5072
17617TIP3    H274267   1.434   0.447  16.374 -0.3811 -0.7197  1.2488
17618TIP3   OH274268   1.874   5.839   4.762  0.4891 -0.3134 -0.0574
17618TIP3    H174269   1.906   5.807   4.678 -0.1030 -0.0032 -0.4017
17618TIP3    H274270   1.807   5.903   4.740  3.0936  2.9006  0.4916
17619TIP3   OH274271   4.218   1.295   5.874 -0.2153 -0.1536 -0.5728
17619TIP3    H174272   4.223   1.387   5.901 -0.7019 -0.5429  0.9845
17619TIP3    H274273   4.297   1.280   5.822  0.2627  0.9587 -0.1913
17620TIP3   OH274274   6.406   3.697  13.172 -0.0234 -0.1512  0.2699
17620TIP3    H174275   6.424   3.697  13.078 -0.4715 -2.3148  0.1168
17620TIP3    H274276   6.492   3.702  13.214  0.2202  0.1491 -0.2626
17621TIP3   OH274277   2.618   0.159  16.004  0.1168  0.3048  0.8593
17621TIP3    H174278   2.534   0.128  16.037 -0.2271  1.2662  0.9247
17621TIP3    H274279   2.610   0.157  15.909 -0.6372  2.0592  0.8579
17622TIP3   OH274280   3.679   2.761  13.742 -0.6698  0.2410 -0.0843
17622TIP3    H174281   3.706   2.700  13.811 -0.6180  0.1011 -0.2270
17622TIP3    H274282   3.641   2.835  13.789 -1.7168 -0.3680  0.0824
17623TIP3   OH274283   4.860   4.714  11.988  1.1087  0.2836 -0.0080
17623TIP3    H174284   4.811   4.666  12.055  2.1233 -1.3083 -0.3632
17623TIP3    H274285   4.950   4.716  12.021  1.0913  2.0633  0.0339
17624TIP3   OH274286   4.563   0.579  13.648  0.7692 -0.4489  0.0086
17624TIP3    H174287   4.490   0.609  13.702  0.9453 -1.5523  0.9069
17624TIP3    H274288   4.542   0.610  13.560  0.5862  1.6090  0.7102
17625TIP3   OH274289   2.648   4.216  11.294  0.3914  0.3884 -0.0776
17625TIP3    H174290   2.639   4.121  11.290  0.3877  0.3773  0.1775
17625TIP3    H274291   2.685   4.233  11.381 -1.1059  0.7344  0.5245
17626TIP3   OH274292   2.032   5.228  14.415  0.0187 -0.3846  0.0934
17626TIP3    H174293   1.938   5.237  14.396  0.1841  0.0326 -0.5423
17626TIP3    H274294   2.072   5.207  14.331  0.7572  1.4667 -0.0487
17627TIP3   OH274295   4.437   1.324  16.129  0.2825 -0.5207 -0.5147
17627TIP3    H174296   4.361   1.304  16.184 -0.5249  0.2824 -1.3061
17627TIP3    H274297   4.471   1.406  16.163  1.3100 -1.2776  0.3487
17628TIP3   OH274298   1.974   4.637  15.326 -0.4473  0.2429  0.0584
17628TIP3    H174299   2.065   4.657  15.305 -0.4042 -0.6103 -0.6034
17628TIP3    H274300   1.973   4.543  15.344 -1.2818  0.1387 -0.4746
17629TIP3   OH274301   5.615   5.051   1.566  0.0884  0.3110 -0.1828
17629TIP3    H174302   5.596   4.959   1.582  0.4386  0.1563 -0.6283
17629TIP3    H274303   5.666   5.079   1.641  0.1873  0.0757 -0.1608
17630TIP3   OH274304   5.203   2.469  16.558 -0.5492 -0.1118 -0.1746
17630TIP3    H174305   5.237   2.406  16.622 -1.1865 -0.8713 -0.5597
17630TIP3    H274306   5.114   2.438  16.539 -0.3856  0.1132 -1.3947
17631TIP3   OH274307   4.463   0.514   3.138 -0.1058 -0.8932  0.1915
17631TIP3    H174308   4.394   0.532   3.202 -0.0398 -0.6844  0.2060
17631TIP3    H274309   4.544   0.515   3.189  0.1029  0.7113 -0.1084
17632TIP3   OH274310   6.683   1.819   0.158  0.3800  0.2886 -0.2990
17632TIP3    H174311   6.745   1.820   0.086  1.1646 -1.0930  0.3341
17632TIP3    H274312   6.697   1.736   0.202 -1.1118  0.4528  0.5761
17633TIP3   OH274313   1.843   5.134   2.660  0.6477  0.0154 -0.3004
17633TIP3    H174314   1.929   5.136   2.701 -0.3312  0.6255  1.8528
17633TIP3    H274315   1.815   5.226   2.659 -0.1083 -0.2109 -0.6925
17634TIP3   OH274316   3.079   1.403  12.129 -0.3506  0.2809  0.6507
17634TIP3    H174317   3.041   1.447  12.205  2.2925  0.7869  1.7928
17634TIP3    H274318   3.139   1.468  12.092 -0.9424 -0.2648 -1.4172
17635TIP3   OH274319   1.247   1.859   3.185  0.4365  0.5984 -0.2735
17635TIP3    H174320   1.342   1.858   3.198  0.7506 -0.7942 -2.1857
17635TIP3    H274321   1.236   1.866   3.091 -1.3781  0.7174 -0.0851
17636TIP3   OH274322   0.318   3.627   4.395 -0.3849  0.0551  0.2964
17636TIP3    H174323   0.257   3.570   4.441 -1.2512  0.8511  0.1595
17636TIP3    H274324   0.364   3.674   4.465 -0.7742  0.3121  0.3838
17637TIP3   OH274325   1.264   5.844  12.139  0.6586 -0.6517 -0.0437
17637TIP3    H174326   1.193   5.853  12.075  0.5334 -0.4746  0.1181
17637TIP3    H274327   1.270   5.931  12.180  1.4822 -0.4312 -0.6004
17638TIP3   OH274328   1.872   5.711   1.713  0.1490 -0.2518 -0.2976
17638TIP3    H174329   1.899   5.791   1.758 -1.6440 -0.6640  1.6736
17638TIP3    H274330   1.857   5.739   1.622  0.8704  1.3337  0.0469
17639TIP3   OH274331   1.361   3.487  16.778  0.1601 -0.3990  0.4614
17639TIP3    H174332   1.357   3.537  16.696 -0.6733  0.2854  0.9056
17639TIP3    H274333   1.274   3.497  16.817  0.4159 -1.0625  1.2321
17640TIP3   OH274334   5.195   2.127   2.037 -0.1920  0.0462  0.8453
17640TIP3    H174335   5.240   2.051   2.075  2.8578  1.2349 -0.0752
17640TIP3    H274336   5.198   2.193   2.106  0.1392  0.3666  0.5277
17641TIP3   OH274337   4.402   5.271   1.809  0.2527 -0.1492 -0.0441
17641TIP3    H174338   4.456   5.342   1.842  0.0597  0.7048 -1.4734
17641TIP3    H274339   4.464   5.203   1.782  0.5582  0.2946 -0.4737
17642TIP3   OH274340   0.055   5.750   4.468 -0.7688  0.3073  0.2264
17642TIP3    H174341  -0.024   5.782   4.510  0.1284  0.8702  1.5536
17642TIP3    H274342   0.116   5.824   4.470  0.4937 -0.7000  1.1128
17643TIP3   OH274343   2.273   0.574  16.886 -0.2585 -0.0154  0.6464
17643TIP3    H174344   2.220   0.653  16.895 -0.7691 -0.1720 -0.7830
17643TIP3    H274345   2.360   0.606  16.862 -0.1920  0.1498  1.0950
17644TIP3   OH274346   0.734   5.922   2.742  0.3177  0.0646 -0.2739
17644TIP3    H174347   0.675   5.895   2.812 -0.4815 -0.1515 -1.0166
17644TIP3    H274348   0.720   5.858   2.672  0.4680  0.7731 -0.9701
17645TIP3   OH274349   1.194   3.671  11.709 -0.1057  0.4302 -0.7728
17645TIP3    H174350   1.228   3.586  11.736 -1.1670  0.4389  0.7191
17645TIP3    H274351   1.263   3.733  11.732  0.4279  0.0557 -1.3203
17646TIP3   OH274352   4.772   0.088   1.663  0.1578  0.1219  0.0487
17646TIP3    H174353   4.834   0.140   1.612  0.6732 -0.1535  0.3948
17646TIP3    H274354   4.716   0.153   1.706 -0.9049  0.3652 -1.5951
17647TIP3   OH274355   1.271   0.551  14.609 -0.1839 -0.0703  0.2545
17647TIP3    H174356   1.348   0.519  14.562  0.2183 -1.7074  1.9326
17647TIP3    H274357   1.300   0.633  14.648  0.7213 -0.6424  0.8309
17648TIP3   OH274358   3.014   0.900  16.002  0.1796 -0.5184 -0.5348
17648TIP3    H174359   3.011   0.825  16.062  0.2088 -1.6157 -1.8764
17648TIP3    H274360   3.042   0.864  15.918 -0.4850  0.8764 -1.4020
17649TIP3   OH274361   6.702   3.112   3.578  0.0370  0.2552 -0.1555
17649TIP3    H174362   6.630   3.089   3.636  1.2972 -0.1515  1.3155
17649TIP3    H274363   6.660   3.155   3.503 -1.5580  2.0902  1.6861
17650TIP3   OH274364   4.039   2.607  13.471 -0.0408 -0.4926  0.6278
17650TIP3    H174365   4.013   2.668  13.540 -0.4000  0.3733 -0.2454
17650TIP3    H274366   3.959   2.563  13.445 -0.2676  0.4786 -0.4387
17651TIP3   OH274367   1.698   5.361   3.707 -0.0767  0.5544 -0.6861
17651TIP3    H174368   1.678   5.348   3.614  0.0748  1.8335 -0.9189
17651TIP3    H274369   1.793   5.349   3.713 -0.0271  0.8887 -0.7794
17652TIP3   OH274370   3.054   4.395   1.228 -0.1467 -0.7219  0.1304
17652TIP3    H174371   2.997   4.339   1.281 -0.3785 -0.8846 -0.2857
17652TIP3    H274372   3.142   4.364   1.248 -0.1800 -0.3325  0.9370
17653TIP3   OH274373   2.443   6.175  16.269  0.3500  0.1625 -0.2069
17653TIP3    H174374   2.417   6.255  16.224 -1.6861 -0.6557 -0.5724
17653TIP3    H274375   2.472   6.115  16.200 -2.9103 -1.1444 -0.5891
17654TIP3   OH274376   4.542   4.581  10.544 -0.3920  0.4410 -0.3112
17654TIP3    H174377   4.558   4.670  10.576  0.7609  0.3740 -0.6524
17654TIP3    H274378   4.624   4.534  10.562 -0.9850 -0.5631 -0.1213
17655TIP3   OH274379   1.455   0.732  13.352  0.0232  0.0070  0.2885
17655TIP3    H174380   1.391   0.793  13.389 -0.0904  0.1473 -0.1394
17655TIP3    H274381   1.407   0.685  13.284 -0.1099 -1.0856  1.0922
17656TIP3   OH274382   0.104   4.529  12.389 -0.8504  0.2619  0.3728
17656TIP3    H174383   0.075   4.475  12.462  0.7874  0.1920  1.0018
17656TIP3    H274384   0.147   4.469  12.328 -1.6223  0.4215 -0.3537
17657TIP3   OH274385   0.367   4.440  12.255 -0.5130 -0.3211 -0.1096
17657TIP3    H174386   0.412   4.461  12.337 -2.1159  0.3317  0.6575
17657TIP3    H274387   0.423   4.478  12.187  1.1180 -1.3466  0.6164
17658TIP3   OH274388   1.883   6.518  15.199 -0.1026  0.4598  0.4395
17658TIP3    H174389   1.815   6.463  15.161 -2.1681  1.4079  2.5246
17658TIP3    H274390   1.867   6.605  15.161  0.0138  0.6586  0.8389
17659TIP3   OH274391   1.679   0.940  13.244  0.5904 -0.0241  0.6993
17659TIP3    H174392   1.585   0.924  13.251  0.2448  1.2312 -0.5781
17659TIP3    H274393   1.713   0.871  13.187  0.4248 -0.3823  1.0325
17660TIP3   OH274394   6.305   5.299   1.136  0.3138 -0.1220  0.0764
17660TIP3    H174395   6.275   5.310   1.045  1.1718 -0.3305 -0.2392
17660TIP3    H274396   6.384   5.245   1.129  0.2802 -0.3035  0.9693
17661TIP3   OH274397   3.654   5.819   4.666  0.4575 -0.1141 -0.5203
17661TIP3    H174398   3.635   5.757   4.596  0.3127 -1.0328  0.3084
17661TIP3    H274399   3.594   5.794   4.736 -0.9548  2.1719 -0.8282
17662TIP3   OH274400   4.631   2.119   3.906  0.1978 -0.0116 -0.1153
17662TIP3    H174401   4.696   2.162   3.850  0.8139 -0.3231  0.3473
17662TIP3    H274402   4.623   2.176   3.982 -0.3749  0.2291 -0.3483
17663TIP3   OH274403   3.318   2.804  13.689  0.5032 -0.2971 -0.4236
17663TIP3    H174404   3.239   2.762  13.656 -0.1226  0.1773  0.4143
17663TIP3    H274405   3.384   2.787  13.622 -0.7476  0.7931 -2.0270
17664TIP3   OH274406   1.892   2.534   3.651 -0.7889 -0.0006 -0.2034
17664TIP3    H174407   1.801   2.559   3.643 -1.1107 -1.4023 -1.4430
17664TIP3    H274408   1.892   2.438   3.645  0.6490 -0.1347  1.0516
17665TIP3   OH274409   4.054   3.188   3.978  0.2604  0.2074 -0.0268
17665TIP3    H174410   4.082   3.097   3.971  4.5486  1.3532 -0.8515
17665TIP3    H274411   4.097   3.232   3.905 -0.0850  3.2079  1.4338
17666TIP3   OH274412   1.472   0.734   4.263 -0.4654 -0.1401  0.6015
17666TIP3    H174413   1.516   0.814   4.291  0.9624  0.0040 -1.7067
17666TIP3    H274414   1.525   0.663   4.301  3.1058 -0.0180 -3.3472
17667TIP3   OH274415   2.522   5.430  15.437 -0.5857 -1.1404  0.2907
17667TIP3    H174416   2.582   5.432  15.363 -1.3089  0.5616 -0.3038
17667TIP3    H274417   2.456   5.365  15.413  0.1692 -1.9177  0.2774
17668TIP3   OH274418   0.006   4.615  13.100 -0.3774 -0.2512 -0.5399
17668TIP3    H174419  -0.003   4.592  13.193  0.8339  2.4880  0.3629
17668TIP3    H274420   0.100   4.626  13.087 -0.5241 -0.7341 -2.1707
17669TIP3   OH274421   3.582   2.862  16.915  0.2006 -0.6244  0.2780
17669TIP3    H174422   3.517   2.886  16.849 -0.3145 -0.4174  0.8489
17669TIP3    H274423   3.537   2.797  16.969  0.4663 -0.4667  0.6866
17670TIP3   OH274424   4.296   0.502  12.978  0.0662 -0.2926 -0.2606
17670TIP3    H174425   4.356   0.427  12.973  0.2639 -0.2775  1.2803
17670TIP3    H274426   4.209   0.462  12.971  0.1463 -0.7721  1.1523
17671TIP3   OH274427   6.260   1.249  13.164 -0.0958  0.4281  0.7202
17671TIP3    H174428   6.293   1.323  13.215 -2.2229  1.7362  0.3034
17671TIP3    H274429   6.182   1.221  13.210  0.3839 -1.2596  0.5621
17672TIP3   OH274430   0.511   0.820  12.138 -0.5306 -0.5462 -0.7005
17672TIP3    H174431   0.568   0.850  12.209  1.2378 -2.2572 -1.3020
17672TIP3    H274432   0.454   0.754  12.179 -1.0989  0.1108 -0.4123
17673TIP3   OH274433   4.576   6.466   2.924 -0.7968 -0.1534 -0.4951
17673TIP3    H174434   4.489   6.503   2.910 -1.6853 -1.5820  0.8963
17673TIP3    H274435   4.580   6.392   2.863  0.3915  1.2205 -2.1954
17674TIP3   OH274436   2.951   3.072   4.061  0.2599 -0.1554  0.0509
17674TIP3    H174437   2.866   3.096   4.024  0.5939 -0.9891 -1.3244
17674TIP3    H274438   2.943   3.091   4.155 -1.3050  0.1353 -0.1215
17675TIP3   OH274439   1.660   3.156  14.772  0.3658  0.1189  0.8915
17675TIP3    H174440   1.616   3.240  14.757  0.6211  0.3876  1.6213
17675TIP3    H274441   1.689   3.129  14.685 -1.0301  0.0458  0.4154
17676TIP3   OH274442   4.411   0.894   3.270 -0.0511  0.0459 -0.2162
17676TIP3    H174443   4.447   0.979   3.246 -0.0539 -0.4277 -2.1241
17676TIP3    H274444   4.343   0.878   3.204  1.4459 -2.3531 -1.3405
17677TIP3   OH274445   1.350   2.976  12.366  0.0138  0.3780  0.1459
17677TIP3    H174446   1.316   2.913  12.302 -0.3868 -0.8977  1.5671
17677TIP3    H274447   1.408   3.033  12.315 -0.8488 -0.1465 -1.4805
17678TIP3   OH274448   3.601   1.919  14.859  0.0547 -0.4480  0.7596
17678TIP3    H174449   3.629   1.905  14.950 -2.9279  0.3942  1.9347
17678TIP3    H274450   3.522   1.973  14.867 -1.2181 -1.6699 -2.2482
17679TIP3   OH274451   3.441   5.966   4.377  0.1604  0.5313 -0.0007
17679TIP3    H174452   3.424   5.961   4.471 -1.1849  0.4328 -0.2216
17679TIP3    H274453   3.354   5.975   4.338  0.7017  0.5978 -1.2377
17680TIP3   OH274454   4.616   2.601   3.854 -0.3257  0.0758  0.3211
17680TIP3    H174455   4.651   2.628   3.769  1.0157  0.2885  0.9038
17680TIP3    H274456   4.522   2.613   3.847 -0.3413 -0.8221 -1.4475
17681TIP3   OH274457   5.630   4.944   6.218  0.7452 -0.0724  0.6131
17681TIP3    H174458   5.648   4.852   6.238  3.3779  0.5664  1.5102
17681TIP3    H274459   5.675   4.993   6.287 -1.2288  1.9224  0.5962
17682TIP3   OH274460   4.008   5.282  14.348  0.2215 -0.2305 -0.2500
17682TIP3    H174461   3.991   5.188  14.360  1.5727 -0.3432  1.0879
17682TIP3    H274462   3.922   5.320  14.330 -0.6755 -1.4365  1.2847
17683TIP3   OH274463   5.066   2.227  16.017  0.4064 -0.7865  0.2840
17683TIP3    H174464   5.008   2.195  15.948 -0.1080 -1.4016  0.9766
17683TIP3    H274465   5.039   2.317  16.031  1.1767 -0.3277 -0.9759
17684TIP3   OH274466   5.693   0.173   6.483  0.5678 -0.0447 -0.0072
17684TIP3    H174467   5.724   0.251   6.436  0.3337  0.8858  1.3194
17684TIP3    H274468   5.747   0.170   6.562  0.0817 -0.8262  0.3045
17685TIP3   OH274469   4.766   4.544   3.316  0.1358 -0.3135  0.2134
17685TIP3    H174470   4.771   4.471   3.378 -0.2522 -0.3076  0.2521
17685TIP3    H274471   4.676   4.574   3.321 -0.2923 -1.2101 -1.3581
17686TIP3   OH274472   0.956   4.360  15.269 -0.0292  0.3293 -0.1187
17686TIP3    H174473   0.986   4.415  15.341 -0.5958 -0.6401  0.8774
17686TIP3    H274474   0.893   4.416  15.222 -0.5954  0.5644  0.8751
17687TIP3   OH274475   5.450   0.617  12.310  0.8028  0.4523 -0.2713
17687TIP3    H174476   5.374   0.659  12.349  1.0346  1.7352 -1.1264
17687TIP3    H274477   5.501   0.689  12.272  1.1868 -0.5998 -1.8812
17688TIP3   OH274478   0.835   6.715   6.538 -0.2557  0.2541  0.3986
17688TIP3    H174479   0.815   6.632   6.494 -1.9400  1.1441 -0.6273
17688TIP3    H274480   0.829   6.694   6.631 -1.3173 -0.6559  0.1511
17689TIP3   OH274481   3.184   0.386   0.231 -0.2080  0.3635  0.6026
17689TIP3    H174482   3.236   0.368   0.153  0.6083  1.3418  0.9111
17689TIP3    H274483   3.117   0.448   0.202  1.6261  2.7365  1.1756
17690TIP3   OH274484   5.592   2.811   1.553 -0.8394 -0.0173 -0.2633
17690TIP3    H174485   5.610   2.756   1.476 -2.3284 -1.4720  0.3429
17690TIP3    H274486   5.671   2.864   1.564 -0.1884 -0.4926 -2.1810
17691TIP3   OH274487   3.504   4.974  15.277  0.6556  0.0190 -0.2918
17691TIP3    H174488   3.494   4.969  15.372  0.6727 -0.6345 -0.3159
17691TIP3    H274489   3.562   5.049  15.262 -1.4661  1.8340  0.0445
17692TIP3   OH274490   5.467   2.121  14.833  0.3435  0.6174 -0.4437
17692TIP3    H174491   5.424   2.085  14.755  2.5294 -1.2108 -0.8939
17692TIP3    H274492   5.477   2.214  14.813 -1.3025  0.6515 -1.2667
17693TIP3   OH274493   2.288   1.302  13.455 -0.4529 -0.1603 -0.3108
17693TIP3    H174494   2.353   1.296  13.385  1.0789  0.3048  1.0158
17693TIP3    H274495   2.337   1.285  13.535 -2.1486 -0.6141  0.6857
17694TIP3   OH274496   2.853   2.953   0.438 -0.3059  0.0535  0.1542
17694TIP3    H174497   2.921   2.942   0.505 -0.8360  0.6931  0.8100
17694TIP3    H274498   2.866   3.042   0.405  1.0019 -0.7881 -1.8035
17695TIP3   OH274499   2.106   3.783  15.080  0.3388 -0.3295  0.1739
17695TIP3    H174500   2.039   3.715  15.085 -0.1106 -0.0918 -1.8025
17695TIP3    H274501   2.076   3.850  15.142 -0.5403 -0.8114  0.2981
17696TIP3   OH274502   2.781   4.323  16.515 -0.0912  0.0779  0.1558
17696TIP3    H174503   2.868   4.332  16.476  0.3372  3.1001  1.5119
17696TIP3    H274504   2.721   4.317  16.441  1.0464  0.9706 -0.8714
17697TIP3   OH274505   2.246   0.100   5.416  0.4433 -0.0316 -0.8482
17697TIP3    H174506   2.337   0.122   5.438  0.1636  0.1451  0.2308
17697TIP3    H274507   2.233   0.012   5.452  0.1262  0.0284 -0.8133
17698TIP3   OH274508   4.416   0.910  13.506 -0.6827 -0.1973  0.0895
17698TIP3    H174509   4.387   0.819  13.504 -1.1429 -0.0995  1.4325
17698TIP3    H274510   4.435   0.931  13.415 -2.8380 -0.9007 -0.5836
17699TIP3   OH274511   2.733   2.514   2.071  0.7663  0.3439 -0.4084
17699TIP3    H174512   2.675   2.440   2.051 -0.2786  1.0920 -0.2345
17699TIP3    H274513   2.756   2.550   1.986  2.6724 -1.1544 -0.6191
17700TIP3   OH274514   6.525   4.521   2.295  0.3150 -0.0227  0.1368
17700TIP3    H174515   6.450   4.535   2.237  0.8388 -1.1015 -0.8439
17700TIP3    H274516   6.590   4.585   2.265  1.5514 -2.2508 -2.2694
17701TIP3   OH274517   2.868   1.350  16.701 -0.0392 -0.0014 -0.4036
17701TIP3    H174518   2.898   1.341  16.611 -0.9061  1.9163 -0.9219
17701TIP3    H274519   2.942   1.320  16.754  2.2294  2.8442 -1.6834
17702TIP3   OH274520   3.781   0.535  16.656 -0.3970 -0.8653  0.6557
17702TIP3    H174521   3.797   0.485  16.737 -2.0494  1.6157  2.6830
17702TIP3    H274522   3.695   0.575  16.669 -0.3737  0.2754 -2.0530
17703TIP3   OH274523   0.932   0.536   5.148  0.8403  0.0415  0.1014
17703TIP3    H174524   0.887   0.618   5.130  0.3255 -0.2120  0.2109
17703TIP3    H274525   0.937   0.531   5.244 -0.6584 -0.8464  0.1715
17704TIP3   OH274526   5.077   4.097  17.050  0.1166  0.3396 -0.3849
17704TIP3    H174527   5.115   4.092  16.962 -1.5371  0.8685 -1.1829
17704TIP3    H274528   5.136   4.046  17.105  1.1614 -0.0638 -1.8161
17705TIP3   OH274529   5.926   0.370   5.475 -0.2593  0.3816 -0.1006
17705TIP3    H174530   6.011   0.331   5.452 -0.5445 -0.5818  0.4097
17705TIP3    H274531   5.918   0.355   5.569 -0.1766  2.1463  0.2251
17706TIP3   OH274532   1.952   4.009   3.751 -0.2643  0.2965  0.7613
17706TIP3    H174533   1.883   3.946   3.733 -0.4718  0.6085  0.4466
17706TIP3    H274534   2.026   3.956   3.781 -0.2750 -0.1426  0.0332
17707TIP3   OH274535   6.447   5.042  17.201 -0.6465  0.5934  0.2968
17707TIP3    H174536   6.438   5.130  17.239 -2.0362  0.0277  1.3931
17707TIP3    H274537   6.388   5.043  17.125 -0.9027  0.5274  0.4921
17708TIP3   OH274538   1.039   1.333  14.942  0.5888  0.1412  0.1753
17708TIP3    H174539   0.990   1.378  15.012  0.9998  1.5717 -0.4164
17708TIP3    H274540   1.015   1.380  14.863  1.3294 -0.4863 -0.4295
17709TIP3   OH274541   1.660   3.391   3.127 -0.2950 -0.2043 -0.7496
17709TIP3    H174542   1.674   3.410   3.220 -0.1609 -2.4140 -0.2485
17709TIP3    H274543   1.565   3.393   3.115 -0.2588  1.8149 -1.0260
17710TIP3   OH274544   0.728   1.732   1.882 -0.9114  0.1218 -0.2655
17710TIP3    H174545   0.729   1.644   1.920 -1.1095  0.1181 -0.2682
17710TIP3    H274546   0.821   1.758   1.879 -0.9214  0.2811  0.5776
17711TIP3   OH274547   5.477   4.224   3.988  0.2960  0.2663 -0.2424
17711TIP3    H174548   5.522   4.165   4.049  0.2339  1.5761  1.1364
17711TIP3    H274549   5.386   4.196   3.990  0.1942  0.6454  0.7110
17712TIP3   OH274550   0.690   1.330  14.193  0.1385 -0.0798  0.4637
17712TIP3    H174551   0.626   1.394  14.163 -1.1838 -1.2056  0.7914
17712TIP3    H274552   0.735   1.373  14.266 -0.9948  0.3274  0.9360
17713TIP3   OH274553   3.606   6.644   2.138 -0.0772  0.4181  0.2811
17713TIP3    H174554   3.533   6.582   2.133  1.3165 -1.2020 -2.4246
17713TIP3    H274555   3.567   6.724   2.171 -3.0961 -0.3974 -0.9629
17714TIP3   OH274556   5.736   2.682   2.300 -0.5649  0.0807 -0.6076
17714TIP3    H174557   5.773   2.769   2.313  1.4274 -0.8785  0.6175
17714TIP3    H274558   5.809   2.631   2.264 -0.4718 -1.9839  2.1731
17715TIP3   OH274559   1.182   2.754  14.489  0.3917  0.3314 -0.0362
17715TIP3    H174560   1.241   2.743  14.563  0.5697 -1.5676 -0.3937
17715TIP3    H274561   1.138   2.669  14.481  0.9932  0.1764 -2.6106
17716TIP3   OH274562   0.602   3.936  12.720  0.8472 -0.9089 -0.0066
17716TIP3    H174563   0.673   3.880  12.753  0.4237 -1.4699 -0.0446
17716TIP3    H274564   0.532   3.876  12.697 -1.0812 -0.1950  3.4088
17717TIP3   OH274565   1.030   1.674  16.151 -0.4785 -0.0746 -0.3218
17717TIP3    H174566   1.060   1.748  16.205 -1.7374  1.3005 -1.4110
17717TIP3    H274567   1.106   1.616  16.146  0.5235  1.0756  0.6761
17718TIP3   OH274568   4.043   0.911  11.720 -0.0120  0.0845  0.3404
17718TIP3    H174569   4.033   0.967  11.797 -0.8008  1.9392 -1.0558
17718TIP3    H274570   4.078   0.968  11.652 -0.7274 -1.1245 -1.1159
17719TIP3   OH274571   6.214   4.466   4.189  0.3887  0.4322  0.1783
17719TIP3    H174572   6.246   4.526   4.256 -1.4503  0.2460  1.2771
17719TIP3    H274573   6.145   4.515   4.144 -0.8538 -0.6611  0.8189
17720TIP3   OH274574   5.797   6.206   0.013  0.4269  0.0966 -0.0067
17720TIP3    H174575   5.782   6.301   0.018  1.0416  0.1694  0.5316
17720TIP3    H274576   5.739   6.169   0.079  0.9209  0.1876  0.4846
17721TIP3   OH274577   0.330   5.810   0.992  0.3910 -0.3485 -0.0291
17721TIP3    H174578   0.319   5.887   0.935  0.6350  0.3020  0.7813
17721TIP3    H274579   0.252   5.757   0.976 -1.1230  1.3362  1.3027
17722TIP3   OH274580   6.741   0.945  15.488 -0.3631 -0.5434  0.1817
17722TIP3    H174581   6.760   0.860  15.527  1.7400 -0.5128 -0.5904
17722TIP3    H274582   6.694   0.924  15.407 -1.1074 -0.8581  0.6855
17723TIP3   OH274583   6.218   1.064  14.256  0.0459  0.6589 -0.3892
17723TIP3    H174584   6.189   1.077  14.346 -0.5245 -1.4578 -0.1980
17723TIP3    H274585   6.285   0.995  14.263  0.2819  0.7585 -1.5462
17724TIP3   OH274586   3.133   0.229   0.678 -0.5034 -0.9206 -0.0900
17724TIP3    H174587   3.045   0.253   0.647 -0.9062 -0.3780  1.4010
17724TIP3    H274588   3.169   0.176   0.607 -1.6446 -0.3139 -1.1737
17725TIP3   OH274589   0.696   0.112   2.572  0.0326 -0.0870 -0.0372
17725TIP3    H174590   0.737   0.026   2.586 -0.9114 -0.6437 -0.5908
17725TIP3    H274591   0.684   0.147   2.660  0.2692 -0.6024  0.2067
17726TIP3   OH274592   2.477   4.415  12.840 -0.3699 -0.0267 -0.2686
17726TIP3    H174593   2.408   4.393  12.778  0.8885 -0.1593 -1.6946
17726TIP3    H274594   2.443   4.488  12.890 -1.3585  0.2247 -1.2759
17727TIP3   OH274595   4.106   4.716  11.217 -0.1177  0.1105  0.2554
17727TIP3    H174596   4.103   4.811  11.225 -1.5263  0.1261 -0.2807
17727TIP3    H274597   4.016   4.690  11.198  0.3729 -1.2653 -0.3291
17728TIP3   OH274598   0.547   4.030  15.539 -0.8966 -0.2261  0.0409
17728TIP3    H174599   0.593   3.961  15.587  0.3579  1.2875  1.1330
17728TIP3    H274600   0.457   3.998  15.531 -0.0288 -2.6727 -0.9373
17729TIP3   OH274601   0.928   4.888  16.982 -0.1175 -0.2661 -0.3244
17729TIP3    H174602   0.875   4.896  17.062  0.7005  1.4838  0.0997
17729TIP3    H274603   0.896   4.958  16.926 -0.3635 -1.1912 -1.3675
17730TIP3   OH274604   0.746   0.261  16.108 -0.5164  0.2841  0.1654
17730TIP3    H174605   0.710   0.346  16.134 -0.3698  0.5145 -0.3673
17730TIP3    H274606   0.746   0.263  16.012  0.6712  0.1939  0.1483
17731TIP3   OH274607   5.671   3.414  13.929  0.6482 -0.9958 -0.0601
17731TIP3    H174608   5.683   3.329  13.972  1.7774 -0.3038  1.0474
17731TIP3    H274609   5.746   3.466  13.956 -0.4986  0.6903  0.0636
17732TIP3   OH274610   0.165   5.304   4.297  0.2652 -0.5042  0.1144
17732TIP3    H174611   0.116   5.384   4.280 -1.0489 -0.8149  2.0960
17732TIP3    H274612   0.246   5.334   4.339  0.1919 -0.1716  0.0164
17733TIP3   OH274613   4.004   4.619  13.664 -0.3650  0.4652 -0.5077
17733TIP3    H174614   4.061   4.542  13.668 -1.2208 -0.1433  0.5672
17733TIP3    H274615   3.985   4.630  13.571  0.5609 -0.0248 -0.7687
17734TIP3   OH274616   2.218   3.242   2.013  0.2810 -0.4019  0.0351
17734TIP3    H174617   2.166   3.191   2.076  0.4930 -0.2165  0.3612
17734TIP3    H274618   2.152   3.283   1.955  0.0789 -0.4493  0.2312
17735TIP3   OH274619   3.050   2.137   1.272  0.5879 -0.3401  0.0990
17735TIP3    H174620   2.978   2.085   1.310  1.8937 -1.5658  0.9968
17735TIP3    H274621   3.118   2.135   1.339  1.9479 -0.2814 -1.2508
17736TIP3   OH274622   6.198   3.603   4.449 -0.2001 -0.2579  0.1102
17736TIP3    H174623   6.130   3.575   4.511  0.1148  0.0937  0.6149
17736TIP3    H274624   6.173   3.693   4.426  0.6117  0.2077  1.0203
17737TIP3   OH274625   5.770   5.155  15.050  0.2959 -0.1176  0.1432
17737TIP3    H174626   5.782   5.206  15.131 -0.2955  1.1983 -0.5767
17737TIP3    H274627   5.857   5.117  15.034  0.2414 -1.0544  1.7991
17738TIP3   OH274628   1.563   1.157   1.193  0.0985  0.1479 -0.4340
17738TIP3    H174629   1.540   1.181   1.103 -0.1937  0.2323 -0.3388
17738TIP3    H274630   1.586   1.240   1.234 -3.5435  0.7758  0.6746
17739TIP3   OH274631   3.165   2.877  11.618 -0.0684 -0.2151  0.3810
17739TIP3    H174632   3.140   2.877  11.710  0.5791 -0.8027  0.5649
17739TIP3    H274633   3.170   2.785  11.594  1.2299 -0.1024  0.1709
17740TIP3   OH274634   2.686   5.746  16.487 -0.0636 -0.2046  0.2331
17740TIP3    H174635   2.619   5.685  16.519 -0.6150  0.3121  0.0825
17740TIP3    H274636   2.636   5.817  16.446  0.6178 -0.5922 -1.3114
17741TIP3   OH274637   4.028   4.213  16.323  0.1067  0.4352 -0.1842
17741TIP3    H174638   4.124   4.211  16.324  0.1212  0.2343 -1.0043
17741TIP3    H274639   4.002   4.192  16.413  0.7932 -2.3345 -0.5327
17742TIP3   OH274640   4.478   6.128  13.371  0.3097  0.2198  0.1661
17742TIP3    H174641   4.486   6.065  13.299  0.8221  0.5843 -0.1042
17742TIP3    H274642   4.518   6.208  13.337  0.0422  0.5653  0.6568
17743TIP3   OH274643   0.817   5.976   2.164 -0.4304 -0.2266  0.2129
17743TIP3    H174644   0.872   6.024   2.225 -1.8549  1.1577  0.4782
17743TIP3    H274645   0.850   5.887   2.166  1.5006  0.4627  0.6727
17744TIP3   OH274646   2.379   4.513  16.955  0.1913 -0.0839  0.3701
17744TIP3    H174647   2.386   4.608  16.964  0.9405  0.0278 -1.1074
17744TIP3    H274648   2.316   4.487  17.022  0.1778  1.4167  0.9756
17745TIP3   OH274649   0.156   1.934   0.512 -0.5033 -0.5946  0.5424
17745TIP3    H174650   0.126   1.847   0.483 -1.6066 -0.3794  0.9958
17745TIP3    H274651   0.206   1.917   0.592 -1.7736 -0.7176  1.3369
17746TIP3   OH274652   0.667   3.805   0.870 -0.5143 -0.7277 -0.1713
17746TIP3    H174653   0.639   3.834   0.783  0.9249 -2.2759 -1.2059
17746TIP3    H274654   0.592   3.823   0.926 -1.0380  1.5043 -1.4422
17747TIP3   OH274655   6.440   5.710  11.086  0.0217 -0.3314  0.6401
17747TIP3    H174656   6.526   5.699  11.127  0.4335  0.4813  0.0299
17747TIP3    H274657   6.424   5.805  11.088 -0.2163 -0.3240 -0.4944
17748TIP3   OH274658   1.201   0.790   1.618 -0.3535  0.6296 -0.3316
17748TIP3    H174659   1.187   0.860   1.681 -1.4118 -1.1938  1.5955
17748TIP3    H274660   1.127   0.798   1.557 -1.1137  0.5243  0.5531
17749TIP3   OH274661   2.681   0.751   2.014 -0.3480 -0.0075  0.5346
17749TIP3    H174662   2.595   0.757   2.056 -0.0077 -0.2222  1.2922
17749TIP3    H274663   2.738   0.802   2.071  0.3952 -1.4198  1.0867
17750TIP3   OH274664   3.391   4.686   4.787  0.8583 -0.4000 -0.0355
17750TIP3    H174665   3.461   4.649   4.733  0.4570 -1.3269  0.0604
17750TIP3    H274666   3.391   4.632   4.866 -0.4421 -0.8711 -0.3422
17751TIP3   OH274667   6.157   3.882  12.108 -0.3560  0.3321 -0.4732
17751TIP3    H174668   6.092   3.952  12.107 -0.6704  0.0444 -0.1681
17751TIP3    H274669   6.108   3.803  12.088 -0.2616 -0.0150  0.5848
17752TIP3   OH274670   2.697   2.134  16.656 -0.1258 -0.0507 -0.1210
17752TIP3    H174671   2.781   2.170  16.629 -0.1607 -0.0878 -0.2828
17752TIP3    H274672   2.680   2.062  16.594 -0.0327 -0.3779  0.2277
17753TIP3   OH274673   0.753   0.003   5.124  0.3009 -0.4243 -0.1528
17753TIP3    H174674   0.703  -0.047   5.060  0.0591  0.5883 -0.7847
17753TIP3    H274675   0.693   0.072   5.153  1.6534  1.5847 -1.8464
17754TIP3   OH274676   2.127   1.795   1.815 -0.2561 -0.2002  0.4049
17754TIP3    H174677   2.105   1.775   1.906 -2.0131  0.0588  0.0763
17754TIP3    H274678   2.176   1.718   1.785 -0.8813 -0.9267  1.1785
17755TIP3   OH274679   2.393   5.755   5.143 -0.0490 -0.1684  0.0803
17755TIP3    H174680   2.435   5.798   5.217  0.6099  0.6865 -0.7790
17755TIP3    H274681   2.358   5.826   5.090  0.1787 -0.7270 -0.8455
17756TIP3   OH274682   0.151   4.046   4.542  0.2642 -0.2655 -0.0662
17756TIP3    H174683   0.122   3.985   4.609  1.7063 -0.9800 -0.0393
17756TIP3    H274684   0.247   4.050   4.553  0.7374 -1.4620 -2.8993
17757TIP3   OH274685   4.324   1.697  13.968 -0.1233  0.2123 -0.3385
17757TIP3    H174686   4.412   1.716  14.002 -0.3110  1.2359 -0.3858
17757TIP3    H274687   4.297   1.618  14.014 -0.5407  1.7688  2.2468
17758TIP3   OH274688   5.888   2.847   3.708  0.7751  0.2862 -0.9269
17758TIP3    H174689   5.914   2.756   3.721 -1.0981 -0.3608 -1.4942
17758TIP3    H274690   5.864   2.877   3.796 -0.8837 -0.5380 -1.0639
17759TIP3   OH274691   2.572   1.542  14.585  0.2708  0.1931  0.3325
17759TIP3    H174692   2.503   1.607  14.593  0.4642  0.5297 -0.6177
17759TIP3    H274693   2.635   1.565  14.654 -0.1189  0.4333  0.6105
17760TIP3   OH274694   6.783   1.448   5.176 -0.0692 -0.0848  1.0272
17760TIP3    H174695   6.698   1.464   5.135 -0.1217 -0.0597  1.1453
17760TIP3    H274696   6.761   1.412   5.262  0.0319  0.5530  1.3212
17761TIP3   OH274697   2.903   2.062  15.942  0.1425  0.2242 -0.4186
17761TIP3    H174698   2.857   2.066  15.858  0.7901  0.1832 -0.7757
17761TIP3    H274699   2.960   2.139  15.943 -1.4034  1.4261  0.9121
17762TIP3   OH274700   6.116   5.898   4.516 -0.1957 -0.0112  0.0724
17762TIP3    H174701   6.079   5.934   4.436 -3.8178  0.6557  1.8591
17762TIP3    H274702   6.095   5.962   4.583  1.0210 -1.4445  1.9179
17763TIP3   OH274703   0.996   1.237  12.226 -1.0663 -0.3781  0.1773
17763TIP3    H174704   1.060   1.277  12.166 -1.4528  1.4674  0.9137
17763TIP3    H274705   0.912   1.244  12.180 -0.7709 -3.0704 -0.9143
17764TIP3   OH274706   4.939   3.197   1.845 -0.0175 -0.3014  0.2679
17764TIP3    H174707   4.956   3.158   1.760  1.6316 -0.9837  0.8750
17764TIP3    H274708   4.889   3.131   1.893  1.2536 -0.9774  0.6885
17765TIP3   OH274709   2.264   5.208  15.830  0.1508  0.2064  0.0858
17765TIP3    H174710   2.272   5.300  15.804 -1.3726  0.3794  0.1488
17765TIP3    H274711   2.233   5.163  15.751  0.5059 -0.1980  0.1704
17766TIP3   OH274712   0.833   4.763  13.086 -0.1251 -0.5279  0.0681
17766TIP3    H174713   0.888   4.768  13.008 -1.9429 -0.4849 -1.2712
17766TIP3    H274714   0.819   4.855  13.111 -0.8488 -0.4609 -0.5450
17767TIP3   OH274715   4.846   1.393  14.939 -0.2630 -0.2558  0.1706
17767TIP3    H174716   4.888   1.465  14.987 -1.2704  0.9599 -0.6764
17767TIP3    H274717   4.826   1.328  15.006  2.3288 -0.6238  0.6928
17768TIP3   OH274718   2.941   1.156   3.727  0.1366  0.6403 -0.0548
17768TIP3    H174719   3.011   1.095   3.753 -0.7564  0.1680  1.3308
17768TIP3    H274720   2.863   1.123   3.772 -0.9578  1.2504 -1.4574
17769TIP3   OH274721   1.372   3.407   2.443  0.6323  0.7595  0.3468
17769TIP3    H174722   1.410   3.374   2.362  0.8554 -1.3784  1.2475
17769TIP3    H274723   1.447   3.436   2.495  0.6992  0.1222  0.6150
17770TIP3   OH274724   2.320   0.370  14.534  0.6087 -0.0699 -0.0745
17770TIP3    H174725   2.275   0.446  14.497  0.9378 -0.6580 -1.8257
17770TIP3    H274726   2.411   0.380  14.503  0.4942 -1.5154 -0.9822
17771TIP3   OH274727   0.606   5.768  12.178  0.3363  0.1510  0.2346
17771TIP3    H174728   0.617   5.692  12.121 -1.2641  0.2963 -0.2946
17771TIP3    H274729   0.645   5.840  12.128  0.0501  0.0454 -0.1493
17772TIP3   OH274730   2.631   3.865  12.453 -0.0635  0.2054 -0.7245
17772TIP3    H174731   2.547   3.874  12.407 -1.3457 -0.0597  1.4110
17772TIP3    H274732   2.610   3.811  12.530  2.2428 -0.4896 -0.5105
17773TIP3   OH274733   2.282   5.236  16.190 -0.3061 -0.0986  0.2712
17773TIP3    H174734   2.250   5.270  16.273 -3.3208 -1.8749 -0.0217
17773TIP3    H274735   2.213   5.256  16.127  0.2863 -1.8357 -1.0322
17774TIP3   OH274736   4.431   2.815  15.807  0.0692  0.1098  0.0781
17774TIP3    H174737   4.476   2.899  15.809 -0.2183  0.3021 -0.9130
17774TIP3    H274738   4.483   2.758  15.864  1.0216  0.5880 -0.3001
17775TIP3   OH274739   6.171   0.841  16.906 -0.5613 -0.3322  0.4441
17775TIP3    H174740   6.103   0.836  16.973 -1.2782 -3.6535 -0.3412
17775TIP3    H274741   6.226   0.765  16.923  0.4105 -0.1305 -1.5501
17776TIP3   OH274742   5.063   6.208  15.254  0.2526  0.2056 -0.2476
17776TIP3    H174743   5.065   6.263  15.176  1.5945  0.9974  0.3232
17776TIP3    H274744   4.982   6.157  15.245 -1.3304  2.6190 -0.5303
17777TIP3   OH274745   3.370   0.679  16.745  0.5674 -0.1325  0.4433
17777TIP3    H174746   3.444   0.703  16.801 -0.2029  1.4089  0.8270
17777TIP3    H274747   3.331   0.762  16.719  0.9505 -0.7410 -2.5315
17778TIP3   OH274748   3.777   1.167  13.166 -0.3101 -0.2730 -0.2473
17778TIP3    H174749   3.842   1.100  13.190  1.1288  1.0412 -0.3516
17778TIP3    H274750   3.693   1.121  13.171  0.5723 -1.9142  0.3228
17779TIP3   OH274751   1.503   4.058   2.395  0.2372 -0.4632  0.9393
17779TIP3    H174752   1.589   4.085   2.428  1.0743  0.0503 -1.4445
17779TIP3    H274753   1.494   3.967   2.421  1.1876 -0.3259  1.8119
17780TIP3   OH274754   3.195   5.322   1.226  0.0159 -0.2778 -0.3796
17780TIP3    H174755   3.257   5.381   1.183  0.9556 -0.9436  0.0463
17780TIP3    H274756   3.190   5.246   1.168  0.3038 -0.6206  0.0394
17781TIP3   OH274757   5.143   5.748  11.475  0.0709  0.3784  0.1947
17781TIP3    H174758   5.054   5.754  11.440  0.5884  3.4106 -0.9730
17781TIP3    H274759   5.191   5.697  11.410 -0.7174 -1.0089  0.6746
17782TIP3   OH274760   0.895   6.140   6.159 -0.0427 -0.4462  0.3130
17782TIP3    H174761   0.859   6.177   6.240 -1.0105 -1.4784  0.3822
17782TIP3    H274762   0.990   6.138   6.173 -0.2228 -0.9705  1.5885
17783TIP3   OH274763   4.208   4.810  12.256  0.0908  0.1525 -0.3814
17783TIP3    H174764   4.150   4.878  12.290  0.6929 -0.2994  1.6583
17783TIP3    H274765   4.155   4.766  12.189 -0.6691  1.9343 -1.0325
17784TIP3   OH274766   2.709   5.724  11.585 -0.2029 -0.3747 -0.1450
17784TIP3    H174767   2.680   5.633  11.596 -3.6502  0.0846 -3.4260
17784TIP3    H274768   2.769   5.721  11.510  2.9922 -0.2977  2.2071
17785TIP3   OH274769   3.988   5.630   3.288  0.6585  0.3763  0.3326
17785TIP3    H174770   4.008   5.575   3.364  0.5911 -1.9408 -1.2238
17785TIP3    H274771   3.893   5.642   3.292  0.7735  1.1496  1.1406
17786TIP3   OH274772   6.129   1.930  14.422 -0.3808 -0.4472  0.0255
17786TIP3    H174773   6.102   1.849  14.379  1.4440 -0.1840 -1.7718
17786TIP3    H274774   6.218   1.911  14.453 -0.2179  0.6331  0.2474
17787TIP3   OH274775   1.269   5.164   1.270  0.0878  0.2406  0.1007
17787TIP3    H174776   1.274   5.253   1.304 -0.8062  0.0820  0.6767
17787TIP3    H274777   1.242   5.111   1.345  1.5031 -0.6705  0.0031
17788TIP3   OH274778   1.467   1.886  16.071  0.7030 -0.1317  0.0899
17788TIP3    H174779   1.415   1.842  16.138  0.0179  0.3574 -0.1037
17788TIP3    H274780   1.458   1.979  16.092  0.0795  0.0613 -0.9513
17789TIP3   OH274781   0.907   1.268  13.980 -0.4257  0.2154 -0.0275
17789TIP3    H174782   0.940   1.233  14.062 -1.2909 -2.0459 -0.5370
17789TIP3    H274783   0.816   1.293  13.999  0.5265  3.6415  0.6459
17790TIP3   OH274784   0.949   2.019   1.313 -0.4346  0.4314 -0.0730
17790TIP3    H174785   1.004   1.943   1.328 -0.4238  0.2986 -0.7529
17790TIP3    H274786   0.982   2.058   1.232 -0.7499  0.8790  0.0036
17791TIP3   OH274787   2.831   3.908  13.002  0.5511 -0.0268  0.1824
17791TIP3    H174788   2.799   3.955  13.080  0.1113  0.3172 -0.2018
17791TIP3    H274789   2.920   3.942  12.989 -0.7943  3.1369 -1.9372
17792TIP3   OH274790   5.424   5.218   3.363 -0.0077  0.3615  0.3328
17792TIP3    H174791   5.395   5.270   3.438 -0.2277  1.0076 -0.2003
17792TIP3    H274792   5.495   5.164   3.398  0.8686  1.6924  0.6715
17793TIP3   OH274793   2.235   0.333  17.092 -0.4415  0.4806  0.4737
17793TIP3    H174794   2.263   0.411  17.044 -0.5138  0.9116  1.1250
17793TIP3    H274795   2.316   0.288  17.115 -0.3031  1.3645  1.7574
17794TIP3   OH274796   1.185   4.656  12.568 -0.5284 -0.6386 -0.5009
17794TIP3    H174797   1.202   4.690  12.656  0.9580  3.4507 -2.1381
17794TIP3    H274798   1.091   4.639  12.566 -0.9520  1.1433  1.3314
17795TIP3   OH274799   0.393   4.156  12.880 -0.1546  0.4043  0.3259
17795TIP3    H174800   0.408   4.168  12.786 -0.7836  3.1822  0.5039
17795TIP3    H274801   0.362   4.241  12.911 -0.7116 -0.6476  2.9334
17796TIP3   OH274802   5.718   5.107   0.710  0.2901 -0.1118  0.6088
17796TIP3    H174803   5.759   5.107   0.623 -0.6452  0.0267  0.1479
17796TIP3    H274804   5.774   5.051   0.763 -0.7565 -2.8339 -0.9052
17797TIP3   OH274805   3.772   3.377  13.192  0.1013  0.1018  0.9095
17797TIP3    H174806   3.787   3.447  13.128  1.3477 -1.3325 -0.4420
17797TIP3    H274807   3.851   3.375  13.246  0.2375 -0.4890  0.6996
17798TIP3   OH274808   1.504   1.774   0.876 -0.2559  0.0308  0.4003
17798TIP3    H174809   1.465   1.753   0.791 -1.5755  1.0543  0.7003
17798TIP3    H274810   1.440   1.742   0.940  0.6106 -0.5190  1.0047
17799TIP3   OH274811   0.001   3.672  14.130 -0.1524  0.2216  0.3888
17799TIP3    H174812  -0.081   3.644  14.089 -0.2051  0.1597  0.5366
17799TIP3    H274813   0.041   3.591  14.162  0.8622  0.0161 -1.3071
17800TIP3   OH274814   1.216   2.179  15.585  0.3350 -0.4892  0.1416
17800TIP3    H174815   1.173   2.193  15.501  0.0601 -0.3981  0.2979
17800TIP3    H274816   1.309   2.195  15.567  0.1762  0.3683  0.0448
17801TIP3   OH274817   2.444   5.701   5.655  0.0205 -0.2512 -0.4282
17801TIP3    H174818   2.386   5.738   5.588 -1.5947 -0.1188  0.9519
17801TIP3    H274819   2.411   5.739   5.737  1.0371 -1.4832  0.5814
17802TIP3   OH274820   0.396   0.015   0.855 -0.1565  0.2964 -0.2367
17802TIP3    H174821   0.439  -0.070   0.845 -0.0301  0.1119  1.5067
17802TIP3    H274822   0.468   0.075   0.878 -0.2843  0.8358 -1.1913
17803TIP3   OH274823   0.079   3.892   1.320 -0.2104 -0.0083  0.2607
17803TIP3    H174824   0.143   3.855   1.259  1.6773  0.7056  1.7126
17803TIP3    H274825   0.125   3.895   1.404 -1.3745  2.6459  0.8931
17804TIP3   OH274826   4.327   2.117   5.062 -0.4426  0.3758  0.7826
17804TIP3    H174827   4.375   2.200   5.063  1.7490 -0.8310  0.9294
17804TIP3    H274828   4.395   2.050   5.064 -2.1825 -1.4447  1.7263
17805TIP3   OH274829   6.706   5.304  12.026 -0.8842 -0.2844 -0.1585
17805TIP3    H174830   6.703   5.387  11.980 -0.7310 -1.2194 -1.9622
17805TIP3    H274831   6.637   5.251  11.985 -0.2821 -1.3982  0.2099
17806TIP3   OH274832   0.309   5.116  13.254 -0.7280  0.2213  0.4930
17806TIP3    H174833   0.334   5.208  13.246  2.6373 -0.5515  0.5005
17806TIP3    H274834   0.311   5.099  13.348 -0.0010 -0.1273  0.4237
17807TIP3   OH274835   1.960   3.836  16.633  0.5653  0.0346 -0.5476
17807TIP3    H174836   1.999   3.796  16.555  0.4533  0.5810 -0.8954
17807TIP3    H274837   2.015   3.807  16.706 -1.3242 -3.3504 -0.2863
17808TIP3   OH274838   1.403   1.491  11.926  0.4225 -0.5878  0.2320
17808TIP3    H174839   1.380   1.474  11.835 -0.0479  1.5785 -0.1139
17808TIP3    H274840   1.331   1.453  11.977 -0.0395 -0.5550 -0.3895
17809TIP3   OH274841   1.795   1.775   0.597  0.2957 -0.7491 -0.2193
17809TIP3    H174842   1.873   1.831   0.606  0.3490 -1.0079  1.1748
17809TIP3    H274843   1.817   1.696   0.646 -0.5067 -1.2103 -0.5870
17810TIP3   OH274844   1.968   3.532  12.532  0.3803  0.7359 -0.0200
17810TIP3    H174845   1.891   3.475  12.530  2.1992 -1.9200 -1.4368
17810TIP3    H274846   1.949   3.597  12.599 -2.5305 -0.5712  0.5690
17811TIP3   OH274847   6.201   1.027   2.382  0.0111  0.5623  0.4951
17811TIP3    H174848   6.160   1.037   2.296 -1.2975 -1.8935  0.7581
17811TIP3    H274849   6.135   1.057   2.444  0.4501  1.0435  0.7426
17812TIP3   OH274850   6.234   5.149  13.742  0.5642  0.1471  0.2830
17812TIP3    H174851   6.252   5.066  13.698 -0.9911  0.0651 -0.2559
17812TIP3    H274852   6.206   5.208  13.672  0.5001  0.7685  0.8157
17813TIP3   OH274853   1.463   4.805   0.044 -0.6984  0.1762  0.0774
17813TIP3    H174854   1.403   4.835  -0.025 -0.6378 -1.8401 -0.9071
17813TIP3    H274855   1.526   4.749  -0.002  1.0979  1.0748  1.3306
17814TIP3   OH274856   2.742   0.677   2.533  0.5929  0.3323  0.4932
17814TIP3    H174857   2.786   0.638   2.609 -3.0228  0.5101  2.8966
17814TIP3    H274858   2.800   0.750   2.507  2.4915 -0.4133  2.3253
17815TIP3   OH274859   3.510   6.776   1.728  0.0353 -0.3907  0.5454
17815TIP3    H174860   3.476   6.688   1.746 -1.5283 -0.4150 -2.0782
17815TIP3    H274861   3.433   6.832   1.728 -0.1129 -0.2060 -4.2413
17816TIP3   OH274862   3.861   0.352   0.917 -0.1539  0.1584  0.2675
17816TIP3    H174863   3.864   0.274   0.861 -2.4450  0.1494  0.0794
17816TIP3    H274864   3.852   0.317   1.006 -1.1231  0.1777  0.1883
17817TIP3   OH274865   1.822   1.755   1.098 -0.0520 -0.5096 -0.2095
17817TIP3    H174866   1.916   1.758   1.082  0.0479 -1.9731 -0.0338
17817TIP3    H274867   1.784   1.810   1.030  0.9030 -0.1850 -0.4943
17818TIP3   OH274868   5.760   4.171  11.633 -0.1411  0.4286 -0.2840
17818TIP3    H174869   5.712   4.238  11.682  1.1605  1.0035  0.2448
17818TIP3    H274870   5.792   4.110  11.699 -0.3737 -0.1074 -0.6590
17819TIP3   OH274871   5.891   4.641  11.272 -0.7045 -0.3825  0.3496
17819TIP3    H174872   5.862   4.614  11.185 -0.1925 -1.2767  0.4468
17819TIP3    H274873   5.910   4.734  11.263 -3.3297  0.2244  0.2064
17820TIP3   OH274874   2.862   2.244  11.907  0.0597 -0.8174 -0.3277
17820TIP3    H174875   2.809   2.310  11.864  1.4812  0.3926 -0.3051
17820TIP3    H274876   2.836   2.247  11.999 -0.4906 -0.9195 -0.4756
17821TIP3   OH274877   4.329   6.310   5.895  0.2132 -0.1879  0.4576
17821TIP3    H174878   4.325   6.218   5.871  1.8702 -0.1574 -0.0804
17821TIP3    H274879   4.409   6.343   5.852  0.6642  1.0479  2.1161
17822TIP3   OH274880   4.898   0.442   6.506 -0.7341 -0.2135  0.5137
17822TIP3    H174881   4.991   0.448   6.530 -0.4528 -1.4235 -0.1448
17822TIP3    H274882   4.891   0.357   6.462 -1.9715  0.2734 -0.2700
17823TIP3   OH274883   3.077   2.334  11.709  0.3251  0.3254  0.5647
17823TIP3    H174884   3.146   2.273  11.682 -0.7964 -0.3093 -0.9702
17823TIP3    H274885   3.047   2.374  11.628 -1.7413 -0.0670  1.0896
17824TIP3   OH274886   5.545   0.354   0.261 -0.0810  0.6750  0.2530
17824TIP3    H174887   5.617   0.296   0.287  0.1325  0.6220 -0.4288
17824TIP3    H274888   5.494   0.366   0.341 -0.5678 -1.0772  0.2520
17825TIP3   OH274889   4.041   1.563   6.223  0.6258  0.3651 -0.5089
17825TIP3    H174890   4.119   1.606   6.258  0.9689 -0.6106 -0.0349
17825TIP3    H274891   3.973   1.631   6.227  0.5060  0.2269  2.5917
17826TIP3   OH274892   0.944   2.302   2.304  0.3053  0.0409 -0.0825
17826TIP3    H174893   0.920   2.395   2.298  0.4871  0.0394 -0.8804
17826TIP3    H274894   0.951   2.273   2.213 -0.0616 -0.8427  0.1654
17827TIP3   OH274895   6.475   0.825  13.578  0.6405  0.4592  0.2367
17827TIP3    H174896   6.498   0.744  13.624  1.3203  0.5527  0.0647
17827TIP3    H274897   6.379   0.822  13.571  0.7107 -0.6888 -0.4276
17828TIP3   OH274898   4.591   0.127  12.077  0.0314 -0.5783 -0.4538
17828TIP3    H174899   4.631   0.116  11.991 -0.2708  0.7667 -0.7808
17828TIP3    H274900   4.644   0.071  12.134  0.0837 -1.6757 -1.5323
17829TIP3   OH274901   0.178   6.778  17.142  0.0576 -0.5053 -0.4092
17829TIP3    H174902   0.131   6.726  17.208  0.5879  0.8358  1.0951
17829TIP3    H274903   0.126   6.858  17.133  1.0299  0.1916 -0.0952
17830TIP3   OH274904   0.586   2.340  16.374 -0.8054  0.0536  0.2155
17830TIP3    H174905   0.644   2.408  16.409 -0.8432  0.7914 -1.0855
17830TIP3    H274906   0.574   2.364  16.282 -3.2053 -0.0291  0.4386
17831TIP3   OH274907   3.687   3.447   3.947  0.4426 -0.2081  0.2895
17831TIP3    H174908   3.632   3.474   3.873  1.2646 -0.2109 -0.3315
17831TIP3    H274909   3.688   3.524   4.004  0.1667 -0.0459  0.0814
17832TIP3   OH274910   3.704   3.828  15.688 -0.1343  0.1727  0.0349
17832TIP3    H174911   3.751   3.801  15.609 -0.0397 -1.0302  0.4759
17832TIP3    H274912   3.763   3.804  15.760 -0.4745  0.7048  0.4980
17833TIP3   OH274913   6.492   6.303   5.084  0.2750  0.1917  0.2159
17833TIP3    H174914   6.402   6.333   5.067  0.8054  1.8198  0.1423
17833TIP3    H274915   6.481   6.219   5.129 -1.2700  0.0069 -0.4444
17834TIP3   OH274916   3.954   3.248   1.111  0.4198 -0.5064  0.0025
17834TIP3    H174917   3.943   3.245   1.016 -0.4856  0.5344  0.0540
17834TIP3    H274918   4.026   3.188   1.128 -1.0173 -2.6534 -1.0813
17835TIP3   OH274919   5.364   1.108   1.975  0.9402  0.4608  0.0429
17835TIP3    H174920   5.355   1.021   2.015  2.9626  0.1732 -0.0375
17835TIP3    H274921   5.307   1.105   1.898 -1.0749  0.1642  1.4676
17836TIP3   OH274922   4.008   3.544   3.017 -0.0638 -0.3479  0.1839
17836TIP3    H174923   4.031   3.636   3.003 -0.4643 -0.2999 -0.1982
17836TIP3    H274924   4.092   3.498   3.016  0.0817 -0.0805 -0.4050
17837TIP3   OH274925   1.492   3.040  17.133 -0.6286  0.0242  0.0616
17837TIP3    H174926   1.407   3.017  17.097 -1.9517  0.6977  2.5918
17837TIP3    H274927   1.555   2.995  17.076 -2.6787 -1.1047 -1.4094
17838TIP3   OH274928   3.807   1.565  11.079  0.3992 -0.6691  0.4770
17838TIP3    H174929   3.852   1.555  11.163  1.1643 -1.7829 -0.0325
17838TIP3    H274930   3.876   1.552  11.014 -0.1105  0.5419 -0.3301
17839TIP3   OH274931   3.727   3.812  13.161 -0.0198 -0.5455  0.3899
17839TIP3    H174932   3.796   3.802  13.226  1.7344  2.6361 -0.7755
17839TIP3    H274933   3.681   3.892  13.187 -0.0810  0.0946 -1.5371
17840TIP3   OH274934   2.659   1.464  12.443  0.8123  0.7929 -0.0829
17840TIP3    H174935   2.703   1.542  12.476 -0.2504  1.8388 -1.0294
17840TIP3    H274936   2.571   1.494  12.420  0.0774 -0.8970  0.3573
17841TIP3   OH274937   6.252   3.143  16.952  0.1958 -0.4511 -0.2404
17841TIP3    H174938   6.262   3.229  16.910 -1.0098 -0.9132 -1.5555
17841TIP3    H274939   6.338   3.124  16.989 -0.0759  2.3807  2.2369
17842TIP3   OH274940   5.176   0.538   5.461 -0.3365  0.1862  0.5441
17842TIP3    H174941   5.120   0.529   5.538 -0.7836  0.8603  0.3075
17842TIP3    H274942   5.129   0.599   5.404  0.1263 -0.0810 -0.1385
17843TIP3   OH274943   0.541   4.177  10.812 -0.2169  0.3192  0.1888
17843TIP3    H174944   0.551   4.264  10.773  0.4420 -0.2598 -0.9702
17843TIP3    H274945   0.619   4.166  10.866 -0.1970  0.3617  0.1689
17844TIP3   OH274946   0.259   6.227   6.522 -0.3111 -0.2255  0.1163
17844TIP3    H174947   0.284   6.161   6.458 -0.3103  0.1076 -0.2329
17844TIP3    H274948   0.297   6.198   6.604 -0.8136 -0.9685  0.0922
17845TIP3   OH274949   5.285   6.492  11.443  0.3275 -0.4376  0.7056
17845TIP3    H174950   5.315   6.440  11.518 -0.6823 -1.5807  0.3379
17845TIP3    H274951   5.190   6.482  11.444  0.1639  0.9323  0.2589
17846TIP3   OH274952   6.400   0.055   1.001 -0.5794 -0.1639 -0.0378
17846TIP3    H174953   6.454   0.078   0.925  1.2252  0.6339  1.4113
17846TIP3    H274954   6.343  -0.015   0.969  1.2188 -0.9628 -1.7306
17847TIP3   OH274955   1.923   4.334  13.010 -0.0946  0.2108  0.4832
17847TIP3    H174956   1.893   4.374  13.092 -0.9906  0.0811  0.2346
17847TIP3    H274957   2.009   4.372  12.995 -0.9144  2.0878  0.2427
17848TIP3   OH274958   4.253   2.420   5.143  0.4635  0.0348 -0.6363
17848TIP3    H174959   4.215   2.358   5.206  0.6996  0.8362  0.3134
17848TIP3    H274960   4.219   2.505   5.169  0.7146  0.4093 -1.4927
17849TIP3   OH274961   0.717   0.665  16.498 -0.2750 -0.4055  0.6938
17849TIP3    H174962   0.704   0.734  16.434  0.6355 -0.1430  0.7802
17849TIP3    H274963   0.801   0.626  16.475 -0.5951 -1.2313  0.8807
17850TIP3   OH274964   0.885   3.671  16.951  0.1236 -0.2076  0.1480
17850TIP3    H174965   0.944   3.636  16.884  1.7585  1.4904  0.6000
17850TIP3    H274966   0.824   3.726  16.904 -0.7518 -1.4790 -0.2566
17851TIP3   OH274967   2.150   2.437  16.492  0.1132 -0.0238 -0.1523
17851TIP3    H174968   2.145   2.532  16.484  0.1331  0.1819  1.8598
17851TIP3    H274969   2.082   2.415  16.556  0.9912 -1.2126  0.4076
17852TIP3   OH274970   2.287   0.759  13.938 -0.1178 -0.4339  0.0032
17852TIP3    H174971   2.370   0.785  13.978  0.1913 -2.0681  0.4847
17852TIP3    H274972   2.309   0.685  13.882 -1.3487 -1.4195  0.7598
17853TIP3   OH274973   1.628   3.252  11.109  0.8549 -0.1998  0.5967
17853TIP3    H174974   1.669   3.270  11.024  1.2280  0.5800  0.9310
17853TIP3    H274975   1.671   3.313  11.170 -1.8133  1.7709  0.6986
17854TIP3   OH274976   5.699   3.652  14.814  0.0389  0.4333 -0.1696
17854TIP3    H174977   5.622   3.663  14.869  0.3590  1.1534  0.1463
17854TIP3    H274978   5.721   3.559  14.821  1.5158  0.9025  2.9189
17855TIP3   OH274979   5.025   2.653   4.731  0.0382  0.5580  0.2086
17855TIP3    H174980   5.092   2.654   4.800 -0.0766  2.1568  0.3228
17855TIP3    H274981   5.051   2.723   4.671 -1.1174  0.6996 -0.1514
17856TIP3   OH274982   5.455   6.537  13.894 -0.8672 -0.0239 -1.0309
17856TIP3    H174983   5.534   6.485  13.913 -1.4698 -0.7599 -0.4722
17856TIP3    H274984   5.421   6.501  13.812 -1.7595 -1.1211 -0.2065
17857TIP3   OH274985   6.602   0.774  13.137 -0.4490 -0.1909  0.3186
17857TIP3    H174986   6.676   0.829  13.163  1.1690 -2.1547  0.0725
17857TIP3    H274987   6.525   0.829  13.154  1.0517  2.2478 -0.2137
17858TIP3   OH274988   2.330   2.400   0.767 -0.3558  0.2622  0.0340
17858TIP3    H174989   2.353   2.421   0.676 -0.7367 -1.0382 -0.3748
17858TIP3    H274990   2.241   2.433   0.778 -0.3579  0.3029 -0.1030
17859TIP3   OH274991   2.038   0.224   2.600  0.3084 -0.9121  0.3812
17859TIP3    H174992   2.011   0.153   2.659  2.5868 -1.5559  0.7474
17859TIP3    H274993   2.076   0.290   2.658 -0.0758 -0.2072 -0.1452
17860TIP3   OH274994   2.913   3.374  13.658 -0.2476 -0.2408  0.6507
17860TIP3    H174995   2.982   3.439  13.651 -0.4062  0.1590  2.3289
17860TIP3    H274996   2.948   3.296  13.615  0.1458  0.7791 -0.9345
17861TIP3   OH274997   2.826   6.008   1.289  0.4098  0.2110 -0.2925
17861TIP3    H174998   2.840   6.033   1.380 -0.2736 -1.3449  0.2721
17861TIP3    H274999   2.909   6.027   1.245  1.4577 -0.9666  1.1099
17862TIP3   OH275000   4.115   4.815   4.527  0.4144 -0.3863  0.4384
17862TIP3    H175001   4.146   4.808   4.436 -2.8968 -3.8011 -0.6730
17862TIP3    H275002   4.036   4.869   4.522 -0.3795 -1.4517  1.0492
17863TIP3   OH275003   6.702   6.304  14.447 -0.1508 -0.3243  0.2517
17863TIP3    H175004   6.665   6.239  14.505  1.9501 -0.7398  1.2289
17863TIP3    H275005   6.679   6.275  14.359 -3.4678  0.3681  0.7782
17864TIP3   OH275006   4.262   3.255   2.666 -0.1558 -0.5560 -0.1639
17864TIP3    H175007   4.223   3.337   2.635 -1.1132 -0.4333  1.2966
17864TIP3    H275008   4.354   3.276   2.679 -0.2427  0.0711 -0.5082
17865TIP3   OH275009   5.774   4.309   0.967  0.4035  0.2964 -0.3269
17865TIP3    H175010   5.803   4.219   0.980  0.7375  0.4130 -0.2523
17865TIP3    H275011   5.680   4.308   0.988  0.5620  0.1195  0.3912
17866TIP3   OH275012   6.706   2.223   1.398  0.5444  0.0957  0.5339
17866TIP3    H175013   6.632   2.229   1.337  0.8159  0.0494  0.1981
17866TIP3    H275014   6.700   2.134   1.434 -1.5962  1.1559  3.1208
17867TIP3   OH275015   6.608   6.191  13.706  0.0300  0.6982 -0.2825
17867TIP3    H175016   6.686   6.246  13.709  0.2168  0.4837 -1.1812
17867TIP3    H275017   6.567   6.205  13.792  1.2982  0.4457  0.3957
17868TIP3   OH275018   4.272   5.477   4.777 -0.1339  0.0015 -0.6541
17868TIP3    H175019   4.337   5.542   4.751  1.4303 -1.6175 -0.9486
17868TIP3    H275020   4.308   5.438   4.857  0.5058 -2.5292 -2.0820
17869TIP3   OH275021   2.389   0.307   2.918  0.5908  0.6146 -0.3850
17869TIP3    H175022   2.380   0.230   2.862  1.1389  0.4252 -0.2222
17869TIP3    H275023   2.479   0.336   2.905 -0.3518  2.9829 -2.6812
17870TIP3   OH275024   5.624   5.560  14.502  0.9232 -0.6939 -0.6862
17870TIP3    H175025   5.573   5.608  14.568  1.2495  0.1250 -1.0086
17870TIP3    H275026   5.706   5.539  14.546  0.4914 -1.6256 -0.3078
17871TIP3   OH275027   2.781   2.887  16.937  0.5010 -0.0571 -0.1044
17871TIP3    H175028   2.698   2.922  16.904 -0.0962 -0.7922  0.5572
17871TIP3    H275029   2.828   2.963  16.971 -0.7207  0.1511  1.2144
17872TIP3   OH275030   0.120   3.418   2.281  0.1733 -0.6560 -0.6359
17872TIP3    H175031   0.073   3.353   2.229  0.2682 -0.6739 -0.6997
17872TIP3    H275032   0.165   3.367   2.348  0.7331 -0.7178 -1.0517
17873TIP3   OH275033   1.757   3.517   0.972 -0.2155  0.5027  0.7946
17873TIP3    H175034   1.713   3.485   0.893  2.0149 -0.9541  0.0279
17873TIP3    H275035   1.798   3.599   0.946 -0.0990  0.3988  0.6497
17874TIP3   OH275036   5.531   4.941  15.700  0.2358  0.2938 -0.1232
17874TIP3    H175037   5.482   4.859  15.697 -0.7364  0.8885 -1.8443
17874TIP3    H275038   5.548   4.962  15.608  0.2974  2.1144  0.2671
17875TIP3   OH275039   6.649   5.025  14.092 -0.2228  0.4982 -0.2473
17875TIP3    H175040   6.699   4.964  14.038 -0.3985 -0.8514  1.0345
17875TIP3    H275041   6.559   5.016  14.062 -0.5650 -1.3682  1.1782
17876TIP3   OH275042   2.392   2.729   3.090  0.4357  0.0787 -0.3593
17876TIP3    H175043   2.297   2.723   3.100  0.5420 -1.4011  0.0465
17876TIP3    H275044   2.414   2.818   3.116 -0.5832 -0.3081  2.0789
17877TIP3   OH275045   2.715   0.393  10.360 -0.5064  0.3095  0.2826
17877TIP3    H175046   2.664   0.335  10.303  0.2705 -0.9210  0.7982
17877TIP3    H275047   2.748   0.336  10.429  0.5034  1.3193  0.6654
17878TIP3   OH275048   3.431   4.069  10.603  0.1314 -0.7419  0.2738
17878TIP3    H175049   3.523   4.074  10.631  0.1675  0.5396 -0.0155
17878TIP3    H275050   3.399   4.158  10.613 -1.3287 -1.3270  1.1168
17879TIP3   OH275051   5.076   2.418  14.835  0.0565  0.3807 -0.6127
17879TIP3    H175052   5.091   2.338  14.884  1.8123  0.8360 -0.3343
17879TIP3    H275053   5.002   2.398  14.777 -1.2067 -0.5771  1.2573
17880TIP3   OH275054   2.910   1.800  14.580 -0.3545 -0.3737 -0.4804
17880TIP3    H175055   2.849   1.756  14.639 -1.2061  1.5041  0.1157
17880TIP3    H275056   2.993   1.754  14.592 -0.9780 -1.2093  0.8014
17881TIP3   OH275057   5.901   4.615   5.678  0.1457  0.4626  0.1271
17881TIP3    H175058   5.881   4.688   5.738  0.4682  0.3063  0.4293
17881TIP3    H275059   5.996   4.605   5.684  0.1225  0.1388 -0.0560
17882TIP3   OH275060   0.930   2.202   2.053 -0.3966 -0.0343 -0.0124
17882TIP3    H175061   0.878   2.194   1.973 -2.7635  0.1960  1.4140
17882TIP3    H275062   0.968   2.115   2.066 -0.9133 -0.3836 -0.7694
17883TIP3   OH275063   4.953   4.869  11.407  0.0511 -0.8089 -0.0665
17883TIP3    H175064   4.862   4.900  11.399 -0.2178 -1.7903 -1.2071
17883TIP3    H275065   4.992   4.889  11.322  0.8922 -0.4903  0.3856
17884TIP3   OH275066   5.590   4.846   0.663 -0.1451  0.5188 -0.5984
17884TIP3    H175067   5.495   4.854   0.655 -0.6467 -1.4797  1.9543
17884TIP3    H275068   5.623   4.936   0.663 -2.1828  1.3001 -0.1627
17885TIP3   OH275069   3.981   1.551  12.508 -0.3550  0.2693  0.3725
17885TIP3    H175070   4.059   1.593  12.545  0.7427 -0.0599 -1.4825
17885TIP3    H275071   3.915   1.621  12.507  0.3629  0.9638  0.5833
17886TIP3   OH275072   3.237   1.239   5.110 -0.2775 -0.2751 -0.1205
17886TIP3    H175073   3.291   1.160   5.118 -0.0174 -0.1106 -0.2389
17886TIP3    H275074   3.212   1.241   5.018  0.0911  0.0236 -0.2160
17887TIP3   OH275075   0.287   2.645   4.579 -0.0060  0.6297 -0.5797
17887TIP3    H175076   0.267   2.724   4.529  1.6235  2.1293  1.0094
17887TIP3    H275077   0.224   2.645   4.651  0.0880  0.5496 -0.4965
17888TIP3   OH275078   3.567   3.302  16.144 -0.7376 -0.1870 -0.3084
17888TIP3    H175079   3.582   3.374  16.205 -1.5634  0.0960 -0.4202
17888TIP3    H275080   3.471   3.293  16.142 -0.6267 -2.8347  1.5131
17889TIP3   OH275081   4.039   1.224  14.883  0.9625  0.3646 -0.0389
17889TIP3    H175082   3.964   1.234  14.942  1.1785  1.3849  0.0798
17889TIP3    H275083   4.016   1.277  14.806  1.9366  1.4481  0.3826
17890TIP3   OH275084   5.251   5.601   1.403  0.4002  0.0406  0.1386
17890TIP3    H175085   5.285   5.602   1.313  0.5927 -1.1357  0.1810
17890TIP3    H275086   5.241   5.508   1.424 -0.6942  0.3152  0.9465
17891TIP3   OH275087   2.047   5.603  11.338 -0.0272 -0.1069 -0.3026
17891TIP3    H175088   1.954   5.618  11.358 -0.1466  1.3324 -1.7984
17891TIP3    H275089   2.063   5.653  11.259  2.0221 -0.4470 -0.1457
17892TIP3   OH275090   1.355   0.184   2.717 -0.0104 -0.7607 -0.2685
17892TIP3    H175091   1.264   0.203   2.694 -0.5354  0.1133  2.2243
17892TIP3    H275092   1.400   0.268   2.710 -0.2282 -0.4245  1.8355
17893TIP3   OH275093   6.418   1.479  11.205  0.3304 -0.0266  0.3000
17893TIP3    H175094   6.436   1.415  11.136  0.8228 -0.7015  1.0412
17893TIP3    H275095   6.501   1.489  11.251 -0.4390 -1.0789  2.0214
17894TIP3   OH275096   0.369   0.965   0.490  0.0630  0.3568  0.3776
17894TIP3    H175097   0.388   0.879   0.527  1.0713  0.0682 -0.7667
17894TIP3    H275098   0.340   1.017   0.565  0.2088 -0.7393  1.2216
17895TIP3   OH275099   5.739   4.821  14.498  0.1247 -0.8214  0.6159
17895TIP3    H175100   5.825   4.804  14.461 -0.1357  0.8184 -0.8714
17895TIP3    H275101   5.713   4.905  14.462 -2.8713 -2.0639 -0.4795
17896TIP3   OH275102   6.049   3.074  17.139  0.2023 -0.0740 -0.3565
17896TIP3    H175103   6.095   3.025  17.207 -0.9461 -1.6242 -0.6538
17896TIP3    H275104   6.116   3.090  17.072  1.6965  2.5747  1.5504
17897TIP3   OH275105   2.708   1.681  16.536  0.5465 -0.2956  0.0807
17897TIP3    H175106   2.655   1.625  16.480  0.9575  1.0429 -1.7521
17897TIP3    H275107   2.794   1.639  16.537  0.6307 -0.1419 -0.5981
17898TIP3   OH275108   2.394   0.491   5.343  0.1999 -0.4013 -0.5962
17898TIP3    H175109   2.400   0.428   5.271  0.2505 -1.2030  0.0870
17898TIP3    H275110   2.435   0.446   5.417 -2.1253 -0.6449  0.6389
17899TIP3   OH275111   4.172   3.241   2.979 -0.3071 -0.5206 -0.8077
17899TIP3    H175112   4.210   3.310   2.925  1.8412 -0.2247  0.9546
17899TIP3    H275113   4.210   3.254   3.066 -2.2511 -2.0530  0.3753
17900TIP3   OH275114   0.285   0.851  12.472  0.1143 -0.1074 -0.0704
17900TIP3    H175115   0.190   0.855  12.485  0.2748  0.0277  1.1362
17900TIP3    H275116   0.308   0.761  12.496  0.1815 -0.4394 -1.2872
17901TIP3   OH275117   3.641   3.107  14.741 -0.5025 -0.1713 -0.3724
17901TIP3    H175118   3.687   3.081  14.821  1.2537  1.1753 -0.8797
17901TIP3    H275119   3.553   3.129  14.770 -0.2906 -0.9743  0.9683
17902TIP3   OH275120   5.777   3.577   2.779  0.3198 -0.1952  0.1626
17902TIP3    H175121   5.773   3.489   2.741 -1.8776 -0.0246 -0.1496
17902TIP3    H275122   5.759   3.564   2.872  1.9829 -0.2437  0.4989
17903TIP3   OH275123   6.364   3.781   1.326 -0.1967 -0.3717  0.2509
17903TIP3    H175124   6.295   3.840   1.356 -1.0708 -1.6342  0.8574
17903TIP3    H275125   6.401   3.745   1.406 -0.1056 -1.0939 -0.1024
17904TIP3   OH275126   3.788   2.216  14.892 -0.3529  0.2848  0.0314
17904TIP3    H175127   3.708   2.165  14.877 -0.6344 -0.0936  2.4335
17904TIP3    H275128   3.776   2.253  14.980  0.7138  2.9034 -0.8147
17905TIP3   OH275129   2.948   0.696  13.031 -0.0812 -0.8296 -0.2161
17905TIP3    H175130   2.990   0.707  13.116 -1.9852  0.7247  0.5884
17905TIP3    H275131   2.921   0.604  13.029  2.4266 -1.6306 -0.3826
17906TIP3   OH275132   0.359   0.761   3.696 -0.6589 -0.5397  0.1290
17906TIP3    H175133   0.451   0.748   3.719 -0.6495  0.1688  0.5100
17906TIP3    H275134   0.311   0.718   3.767 -0.6263 -1.0246 -0.1381
17907TIP3   OH275135   6.702   2.805  17.192 -0.1328  0.1689  0.0023
17907TIP3    H175136   6.627   2.766  17.237 -0.0514  0.3238  0.2802
17907TIP3    H275137   6.669   2.829  17.106  0.0178 -1.1897 -0.4460
17908TIP3   OH275138   3.591   2.825  10.527 -0.8261 -0.0233 -0.1504
17908TIP3    H175139   3.654   2.865  10.587 -0.5338  0.5011 -0.7991
17908TIP3    H275140   3.641   2.810  10.446 -1.1535 -0.9266 -0.1948
17909TIP3   OH275141   3.271   3.449   0.175 -0.0940  0.0800  0.1738
17909TIP3    H175142   3.321   3.464   0.094  0.0692  1.1845  0.4669
17909TIP3    H275143   3.184   3.423   0.144 -0.3232  1.4415 -0.3905
17910TIP3   OH275144   4.404   2.948   3.923 -0.2418  0.7117  0.8935
17910TIP3    H175145   4.412   2.874   3.983  3.1627 -2.0800 -2.4968
17910TIP3    H275146   4.485   2.998   3.935 -0.5903  1.4547  0.2509
17911TIP3   OH275147   1.469   2.215   0.911 -0.3793 -0.4627 -0.5512
17911TIP3    H175148   1.495   2.303   0.941  0.7107 -1.0691  0.3762
17911TIP3    H275149   1.383   2.201   0.949 -0.4171  0.0784 -0.4290
17912TIP3   OH275150   1.444   1.918   3.810  0.1805 -0.5542  0.0510
17912TIP3    H175151   1.512   1.870   3.763 -0.3083  0.9913 -2.4326
17912TIP3    H275152   1.362   1.875   3.785  0.0293 -0.8976  1.0839
17913TIP3   OH275153   5.109   2.473   5.342 -0.2750  0.3128 -0.0327
17913TIP3    H175154   5.123   2.390   5.387 -2.3672  0.5280  1.1130
17913TIP3    H275155   5.090   2.536   5.412 -2.5963  0.8890 -1.0733
17914TIP3   OH275156   5.865   1.752   3.374 -0.2089  0.1018  0.5269
17914TIP3    H175157   5.815   1.748   3.293  2.2242 -0.0124 -1.0408
17914TIP3    H275158   5.824   1.686   3.431 -0.6953 -1.2784 -1.3464
17915TIP3   OH275159   0.571   4.958  16.860  0.0100 -0.1809 -0.5359
17915TIP3    H175160   0.504   5.027  16.860  0.5041  0.4519  2.7773
17915TIP3    H275161   0.654   5.005  16.866  0.5055 -1.0268 -0.5393
17916TIP3   OH275162   0.418   5.100  10.956 -0.1935  0.4776  0.3405
17916TIP3    H175163   0.455   5.168  11.012 -1.8877  0.0715  2.0301
17916TIP3    H275164   0.340   5.140  10.918 -0.8678 -0.3048  0.8739
17917TIP3   OH275165   0.416   6.397   3.794 -0.2302  0.1433  0.3443
17917TIP3    H175166   0.377   6.352   3.869 -1.5370 -0.1457 -0.4807
17917TIP3    H275167   0.469   6.467   3.833  0.3411 -0.9243  1.5781
17918TIP3   OH275168   0.170   4.449  14.043 -0.3255 -0.2996  0.2144
17918TIP3    H175169   0.198   4.506  13.972  0.3997  0.8925  1.4149
17918TIP3    H275170   0.250   4.434  14.094 -0.8493 -1.0391  0.8468
17919TIP3   OH275171   3.898   5.688   1.685 -0.4957  0.6193  0.4433
17919TIP3    H175172   3.816   5.672   1.638 -1.0141  0.3795  1.4033
17919TIP3    H275173   3.952   5.736   1.623  0.9014 -4.0150 -2.3485
17920TIP3   OH275174   1.251   0.749   5.483  0.3183  0.0082  0.3774
17920TIP3    H175175   1.281   0.840   5.491  1.0132 -0.3549  2.8766
17920TIP3    H275176   1.217   0.728   5.570  2.0754 -2.7632  0.5217
17921TIP3   OH275177   5.027   5.606   1.939 -0.0729 -0.0591 -0.6738
17921TIP3    H175178   5.034   5.695   1.905  0.2786 -0.3640 -1.4210
17921TIP3    H275179   4.986   5.556   1.868 -0.5371 -0.4417 -0.1537
17922TIP3   OH275180   3.821   4.823  16.050  0.6423  0.3842 -1.1971
17922TIP3    H175181   3.728   4.828  16.071  0.9573 -0.5573  0.6021
17922TIP3    H275182   3.866   4.829  16.134  2.1835  0.0543 -1.9527
17923TIP3   OH275183   6.570   3.788   1.687 -0.1645  0.5746  0.1861
17923TIP3    H175184   6.646   3.755   1.640 -0.7033 -0.2937 -0.0918
17923TIP3    H275185   6.590   3.881   1.701 -0.0674  0.9467 -1.9593
17924TIP3   OH275186   0.858   1.314  11.310 -0.4369 -0.6425 -0.6224
17924TIP3    H175187   0.832   1.345  11.223  2.1613 -1.4061 -1.7578
17924TIP3    H275188   0.785   1.258  11.338 -1.6828  0.2660 -1.9345
17925TIP3   OH275189   5.316   1.678  12.468  0.1385  0.4724 -0.3533
17925TIP3    H175190   5.313   1.770  12.440 -1.1612  0.7508  0.6114
17925TIP3    H275191   5.382   1.676  12.538  0.8431  0.4633 -0.9984
17926TIP3   OH275192   0.765   1.253  10.811 -0.6261  0.6710  0.0008
17926TIP3    H175193   0.785   1.226  10.722  1.1067 -0.0611  0.5674
17926TIP3    H275194   0.681   1.298  10.805  0.2570  2.1425 -2.2735
17927TIP3   OH275195   0.822   1.010   6.660 -0.0379  0.5567 -0.3119
17927TIP3    H175196   0.879   1.067   6.609 -0.1404 -1.2584 -2.6120
17927TIP3    H275197   0.733   1.040   6.639 -0.0541  0.2969 -0.6301
17928TIP3   OH275198   2.994   5.370   4.216 -0.6031 -0.0341  0.0628
17928TIP3    H175199   3.009   5.319   4.136 -0.6909 -0.0122  0.0313
17928TIP3    H275200   2.929   5.436   4.190 -2.5402 -1.5624  0.7582
17929TIP3   OH275201   3.669   6.689   2.653  0.6094  0.0889  0.2380
17929TIP3    H175202   3.663   6.623   2.584  2.5641  0.7894 -0.6887
17929TIP3    H275203   3.578   6.707   2.677 -0.0600 -1.2157 -1.1566
17930TIP3   OH275204   1.740   5.085  15.962 -0.0535  0.1205  0.1823
17930TIP3    H175205   1.711   4.997  15.937 -1.4207  0.5325  0.2262
17930TIP3    H275206   1.730   5.137  15.882  0.9225  0.2178  0.1041
17931TIP3   OH275207   1.197   1.042   0.345 -0.0780 -0.2304  0.0134
17931TIP3    H175208   1.277   0.996   0.368 -1.0398 -1.3341  1.3268
17931TIP3    H275209   1.207   1.129   0.384  0.2036 -0.6012  0.7933
17932TIP3   OH275210   1.706   2.538  12.562 -0.1982 -0.0286  0.7801
17932TIP3    H175211   1.621   2.537  12.605 -1.8716  1.5656 -2.2089
17932TIP3    H275212   1.700   2.470  12.495  0.9246  0.0634  0.5633
17933TIP3   OH275213   4.347   6.441  14.427 -0.1925  0.4460 -0.1534
17933TIP3    H175214   4.343   6.527  14.469  1.5433  0.7010 -0.4588
17933TIP3    H275215   4.364   6.380  14.499  0.4789  0.5938 -0.1884
17934TIP3   OH275216   0.207   2.569   0.909 -0.0041  0.5687  0.1705
17934TIP3    H175217   0.250   2.497   0.863  0.2833  0.4100  0.6804
17934TIP3    H275218   0.165   2.527   0.984  1.9430  1.1878  1.6971
17935TIP3   OH275219   3.448   2.317  15.419  0.0635  0.0842  0.3934
17935TIP3    H175220   3.384   2.296  15.351  0.5133 -2.6318  0.6811
17935TIP3    H275221   3.411   2.280  15.499  1.9553 -1.6626  0.5495
17936TIP3   OH275222   2.404   1.504  12.410 -0.5615  0.2857 -0.0211
17936TIP3    H175223   2.346   1.473  12.481  0.7249  1.3475  1.5622
17936TIP3    H275224   2.344   1.534  12.342 -1.9091  1.2462  1.5062
17937TIP3   OH275225   0.514   6.083   4.612  0.4785  0.3183  0.5216
17937TIP3    H175226   0.603   6.048   4.605 -0.5232 -2.3513 -0.1283
17937TIP3    H275227   0.462   6.008   4.642 -1.4847  1.9507  1.3771
17938TIP3   OH275228   1.712   3.711  14.169 -0.7326  0.9537 -0.7441
17938TIP3    H175229   1.621   3.714  14.199 -0.0462 -0.3850  1.6696
17938TIP3    H275230   1.764   3.726  14.247  1.1840 -2.5581 -1.1505
17939TIP3   OH275231   3.521   1.681  13.924 -0.0180  0.2551 -0.3183
17939TIP3    H175232   3.445   1.666  13.868 -0.5757  1.1941  0.1687
17939TIP3    H275233   3.495   1.647  14.009 -0.3014  1.5123  0.1148
17940TIP3   OH275234   4.913   0.978   4.931  0.2391  0.6304 -0.0795
17940TIP3    H175235   4.998   0.939   4.911  0.5052  1.2099 -0.1064
17940TIP3    H275236   4.851   0.906   4.924  0.6032  0.3868 -0.9840
17941TIP3   OH275237   2.930   4.183   6.642 -0.5361  0.1659  0.1349
17941TIP3    H175238   3.006   4.222   6.599  0.2913 -0.5758  0.8829
17941TIP3    H275239   2.896   4.253   6.697 -1.0432  0.8314 -0.9811
17942TIP3   OH275240   6.355   3.064   4.625 -0.0038  0.3215 -0.6391
17942TIP3    H175241   6.272   3.023   4.648 -0.4480 -0.7685 -3.7575
17942TIP3    H275242   6.359   3.142   4.681 -2.2429 -0.5083  0.8405
17943TIP3   OH275243   0.902   0.441  13.005  0.3825 -0.1366  0.2596
17943TIP3    H175244   0.894   0.533  13.030 -0.6982 -0.1395 -0.0106
17943TIP3    H275245   0.816   0.404  13.025  1.1406 -1.3575  1.4071
17944TIP3   OH275246   1.783   2.191  10.567  0.4353 -0.5996 -0.6687
17944TIP3    H175247   1.721   2.263  10.582  1.0530  0.3984 -2.5849
17944TIP3    H275248   1.836   2.188  10.647 -0.0951  0.5590 -0.2531
17945TIP3   OH275249   3.333   0.849  11.834  0.1415 -0.5629  0.2537
17945TIP3    H175250   3.416   0.826  11.876 -0.1287  0.8080  1.6271
17945TIP3    H275251   3.359   0.883  11.748  1.0143 -0.1855  0.6477
17946TIP3   OH275252   0.749   3.220   4.117 -0.4629  0.1199 -0.5254
17946TIP3    H175253   0.688   3.282   4.157 -0.5467  0.5469 -1.2799
17946TIP3    H275254   0.802   3.274   4.058 -1.2827 -0.6753 -2.0522
17947TIP3   OH275255   2.542   2.139   0.454  0.0084  0.4649  0.3443
17947TIP3    H175256   2.501   2.219   0.421 -0.6290  0.0062 -0.0012
17947TIP3    H275257   2.624   2.131   0.406 -0.4452  0.3348 -0.4185
17948TIP3   OH275258   5.200   2.918   0.310  0.1302  0.3484  0.4663
17948TIP3    H175259   5.133   2.890   0.372 -1.0746 -0.4622 -1.1225
17948TIP3    H275260   5.155   2.980   0.253  0.6595 -0.3053 -0.7058
17949TIP3   OH275261   5.927   0.703   1.212  0.1821  0.8053 -0.7273
17949TIP3    H175262   5.942   0.610   1.198 -0.9683  0.3967  0.5754
17949TIP3    H275263   5.958   0.745   1.131  1.1117 -0.6478 -1.1496
17950TIP3   OH275264   2.303   1.354   4.652  0.1970 -0.2943 -0.2341
17950TIP3    H175265   2.241   1.393   4.590 -0.4126 -0.7412  0.0855
17950TIP3    H275266   2.286   1.260   4.646 -1.5524 -0.2366  2.3416
17951TIP3   OH275267   4.211   1.999  16.643  0.8653 -0.5355  0.3976
17951TIP3    H175268   4.160   2.079  16.630  1.0287 -0.1333  1.9508
17951TIP3    H275269   4.146   1.928  16.641  0.8105 -0.4705 -1.6922
17952TIP3   OH275270   5.418   2.840   4.172 -0.8765 -0.8314 -0.6885
17952TIP3    H175271   5.363   2.895   4.228  1.0847  2.3879 -1.6666
17952TIP3    H275272   5.446   2.898   4.102  3.4524 -2.3004 -0.4461
17953TIP3   OH275273   2.087   5.115  14.871 -0.4310  0.2833  0.7840
17953TIP3    H175274   2.158   5.082  14.816 -0.1995 -1.9206  2.2902
17953TIP3    H275275   2.088   5.060  14.948 -4.1084 -0.2087  0.6888
17954TIP3   OH275276   2.932   4.464  15.000  0.5219 -0.0256 -0.7760
17954TIP3    H175277   2.989   4.427  14.933  1.5998  2.5599 -1.4352
17954TIP3    H275278   2.961   4.423  15.081  0.7115 -1.5466 -1.5713
17955TIP3   OH275279   3.273   1.626  11.782 -0.0182 -0.2734 -0.6444
17955TIP3    H175280   3.363   1.597  11.765  0.3340  0.2207  0.3367
17955TIP3    H275281   3.230   1.619  11.696  1.3037  0.7266 -1.4408
17956TIP3   OH275282   2.780   5.537   5.341 -0.4128 -0.3863  0.4750
17956TIP3    H175283   2.726   5.489   5.279 -2.6296  1.5328  0.7804
17956TIP3    H275284   2.817   5.609   5.291 -0.0344 -0.3294  0.8244
17957TIP3   OH275285   4.342   4.185   6.865  0.3443 -0.2553 -0.1766
17957TIP3    H175286   4.389   4.236   6.799  2.6752 -0.9556  0.8110
17957TIP3    H275287   4.353   4.094   6.837  1.4950 -0.5738  1.1815
17958TIP3   OH275288   5.697   5.129  13.962  0.2512  0.2662  0.1787
17958TIP3    H175289   5.684   5.220  13.990  1.4921 -0.0708  1.9722
17958TIP3    H275290   5.699   5.079  14.043  2.3189 -0.9916 -0.5800
17959TIP3   OH275291   0.058   1.145  16.729  0.4894 -0.0614  0.6619
17959TIP3    H175292  -0.026   1.136  16.774 -0.0160  0.4837 -0.1435
17959TIP3    H275293   0.123   1.152  16.799 -0.3723  1.7439  1.3249
17960TIP3   OH275294   3.072   5.536  13.074 -0.4860  0.2101  0.1210
17960TIP3    H175295   3.133   5.526  13.001 -1.2785  1.3686 -0.7420
17960TIP3    H275296   2.988   5.510  13.038 -0.9904  1.3492  0.4275
17961TIP3   OH275297   5.012   6.011  12.601  0.0314  0.6013  0.3064
17961TIP3    H175298   5.011   5.925  12.558  2.5772  0.4330  0.4438
17961TIP3    H275299   5.078   6.003  12.670 -0.5383  2.3246  1.1189
17962TIP3   OH275300   2.144   3.510  14.733  0.2944  0.3949 -0.2891
17962TIP3    H175301   2.215   3.446  14.731  1.4079  1.5868  0.0443
17962TIP3    H275302   2.068   3.461  14.766  0.7434 -1.0741 -1.3213
17963TIP3   OH275303   3.628   2.911  15.490 -0.3268  0.5123 -0.3150
17963TIP3    H175304   3.697   2.846  15.482 -0.5430  0.3359 -0.7726
17963TIP3    H275305   3.566   2.874  15.552 -0.1677  0.5369 -0.1388
17964TIP3   OH275306   2.917   4.706  13.826 -0.1157  0.4181  0.1595
17964TIP3    H175307   2.980   4.635  13.828 -1.8679 -1.2254 -0.1924
17964TIP3    H275308   2.840   4.672  13.872 -1.4112  1.6421 -0.9885
17965TIP3   OH275309   5.674   5.435   0.308 -0.5807  0.3330  0.2941
17965TIP3    H175310   5.714   5.483   0.380 -0.4238 -0.1589  0.5396
17965TIP3    H275311   5.698   5.344   0.324 -1.9746 -0.0091  0.5751
17966TIP3   OH275312   5.065   3.418  12.468 -0.1286  0.1573 -0.3539
17966TIP3    H175313   5.131   3.349  12.469  0.2079  0.4762  0.1074
17966TIP3    H275314   5.065   3.452  12.558 -1.8688 -0.7303  0.0022
17967TIP3   OH275315   0.034   6.338   0.004 -0.1090  0.3299 -0.2040
17967TIP3    H175316  -0.038   6.400  -0.011  0.0677  1.3006  2.3985
17967TIP3    H275317  -0.009   6.259   0.037 -0.0624  0.7841  1.0054
17968TIP3   OH275318   3.082   0.993   5.598 -0.1663  0.1582 -0.3901
17968TIP3    H175319   3.075   1.027   5.687 -0.6841 -0.0029 -0.3656
17968TIP3    H275320   3.014   0.925   5.593 -0.4668  0.5006 -1.0562
17969TIP3   OH275321   2.924   0.153  11.829  0.0941 -0.3417 -0.1846
17969TIP3    H175322   2.869   0.114  11.898  1.1831 -2.4353 -0.4355
17969TIP3    H275323   2.872   0.144  11.749 -0.9641  1.6512  0.2004
17970TIP3   OH275324   4.539   4.091   4.876 -0.5948  0.2487  0.3105
17970TIP3    H175325   4.602   4.161   4.862 -0.5925  0.0756 -0.5709
17970TIP3    H275326   4.541   4.076   4.971 -0.7304  1.5470  0.5384
17971TIP3   OH275327   3.233   4.948   2.100 -0.1731 -0.1801  0.4809
17971TIP3    H175328   3.276   5.013   2.045 -0.2515 -0.9978 -0.5985
17971TIP3    H275329   3.142   4.978   2.107  0.2175  0.8229  1.6196
17972TIP3   OH275330   0.241   3.642   1.222 -0.2574 -0.0027  0.8864
17972TIP3    H175331   0.332   3.635   1.249  0.0994  0.2566 -0.1854
17972TIP3    H275332   0.242   3.619   1.129 -0.9357  1.9717  0.3365
17973TIP3   OH275333   0.070   0.776  15.084  0.3595 -0.3775 -0.5808
17973TIP3    H175334   0.037   0.863  15.106  1.5052 -0.0042 -0.2205
17973TIP3    H275335   0.121   0.790  15.004  1.7483 -0.3933  0.2540
17974TIP3   OH275336   6.512   1.456  15.557 -0.1781 -0.0555  0.6178
17974TIP3    H175337   6.555   1.407  15.487 -1.0524 -1.4068  1.0124
17974TIP3    H275338   6.522   1.402  15.634 -1.0697  0.4418  1.0957
17975TIP3   OH275339   1.273   2.821   0.567 -0.2224  0.3319  0.5764
17975TIP3    H175340   1.315   2.885   0.625 -1.7596  0.4979  1.5559
17975TIP3    H275341   1.286   2.857   0.479  2.1750  0.0615  0.7654
17976TIP3   OH275342   4.244   4.747  10.975  0.1316  0.0494 -0.7283
17976TIP3    H175343   4.333   4.736  11.007 -0.0094 -0.7410 -0.5908
17976TIP3    H275344   4.189   4.743  11.053 -0.1498 -1.1059 -0.9586
17977TIP3   OH275345   2.954   3.609  15.060  0.3183  0.3605 -0.0628
17977TIP3    H175346   2.959   3.513  15.060  0.7683  0.3398  2.0480
17977TIP3    H275347   2.868   3.628  15.096  0.7128  0.7499  0.6827
17978TIP3   OH275348   5.073   3.180   0.423 -0.0817  0.2345  0.0245
17978TIP3    H175349   5.105   3.165   0.334 -1.0494 -0.9798 -0.1515
17978TIP3    H275350   4.982   3.148   0.421 -0.1254  0.2093  1.4406
17979TIP3   OH275351   3.221   0.771  14.030 -0.6329  0.3571  0.3842
17979TIP3    H175352   3.126   0.776  14.018 -0.6464  1.6203  0.8741
17979TIP3    H275353   3.256   0.759  13.942 -1.1828  1.1368  0.0498
17980TIP3   OH275354   0.938   4.646  13.626  0.1447  0.0646 -0.5518
17980TIP3    H175355   0.889   4.565  13.615 -2.2252  1.5169 -1.4273
17980TIP3    H275356   0.951   4.679  13.537 -1.2134  1.8705 -0.1438
17981TIP3   OH275357   6.405   3.502   5.115 -0.0658  0.2238  0.1124
17981TIP3    H175358   6.366   3.562   5.179 -0.0584 -0.0271  0.3532
17981TIP3    H275359   6.499   3.514   5.126  0.0596 -1.9982  2.2942
17982TIP3   OH275360   3.462   2.116  16.654 -0.0678  0.0271 -0.1059
17982TIP3    H175361   3.425   2.071  16.578  1.8460 -2.1118  0.1287
17982TIP3    H275362   3.550   2.079  16.664  0.1954  1.1010  2.4692
17983TIP3   OH275363   5.785   6.289  12.139 -0.0851  0.3744  0.1249
17983TIP3    H175364   5.748   6.323  12.058 -0.6107  1.5910  0.8560
17983TIP3    H275365   5.880   6.288  12.123 -0.2730 -1.3155 -1.1983
17984TIP3   OH275366   1.498   3.160  16.055 -0.1401 -0.0752 -0.3696
17984TIP3    H175367   1.557   3.113  15.996  0.9977 -0.6435  1.1392
17984TIP3    H275368   1.495   3.105  16.134 -0.6642  1.2291  0.5550
17985TIP3   OH275369   2.365   1.606   5.498 -0.5525  0.1204 -0.1915
17985TIP3    H175370   2.385   1.625   5.589 -0.0427 -1.3500  0.0218
17985TIP3    H275371   2.379   1.512   5.489 -0.6257  0.2326 -1.7801
17986TIP3   OH275372   1.815   1.006  16.708 -0.0863  0.9849  0.7653
17986TIP3    H175373   1.894   1.060  16.709  1.2477 -0.8834  1.5632
17986TIP3    H275374   1.766   1.034  16.786 -0.1270  2.0123  0.3810
17987TIP3   OH275375   5.588   4.200   4.926 -0.2562 -0.1694 -0.2377
17987TIP3    H175376   5.540   4.142   4.985  0.8737 -1.5287 -0.5847
17987TIP3    H275377   5.623   4.141   4.859  1.2627  0.8497 -0.3970
17988TIP3   OH275378   2.641   1.970  17.138 -0.1749  0.3297  0.0980
17988TIP3    H175379   2.712   1.953  17.200  0.2649  0.9849 -0.2050
17988TIP3    H275380   2.685   2.010  17.062 -0.6187 -0.9412 -0.8743
17989TIP3   OH275381   3.945   5.744  13.921 -0.1193 -0.3177  0.0791
17989TIP3    H175382   3.918   5.813  13.860  0.6237  0.1009  0.2230
17989TIP3    H275383   3.866   5.725  13.971 -0.4655  0.0647 -0.3073
17990TIP3   OH275384   1.962   0.741  13.579  0.1043 -0.2892  0.4266
17990TIP3    H175385   2.014   0.674  13.624  0.8321 -0.2979 -0.4109
17990TIP3    H275386   1.920   0.790  13.650 -0.4250 -1.6083  1.0509
17991TIP3   OH275387   6.368   1.047   4.782 -0.7912 -0.1641  0.4919
17991TIP3    H175388   6.311   1.116   4.749  0.0892  0.2875 -0.1468
17991TIP3    H275389   6.367   0.980   4.714 -0.4480 -0.0840  0.4046
17992TIP3   OH275390   0.732   1.539   3.814 -0.1192 -0.1704  0.2080
17992TIP3    H175391   0.753   1.620   3.861  0.5518 -1.1107  1.6096
17992TIP3    H275392   0.753   1.469   3.876 -0.7280 -1.4303 -0.9449
17993TIP3   OH275393   3.806   5.395  12.041 -0.2847  0.7201  0.0089
17993TIP3    H175394   3.898   5.371  12.030 -0.5686 -0.7081  0.5757
17993TIP3    H275395   3.778   5.422  11.953 -0.0567 -1.5520 -0.8422
17994TIP3   OH275396   3.914   3.610  16.791 -0.1406 -0.1192  0.4826
17994TIP3    H175397   3.932   3.562  16.872 -0.4539 -1.2316 -0.0923
17994TIP3    H275398   3.861   3.685  16.818 -0.0576 -0.3624  1.3346
17995TIP3   OH275399   5.688   2.344   3.371  0.7120  0.4724  0.4304
17995TIP3    H175400   5.608   2.346   3.423  1.5622  1.6464  1.7498
17995TIP3    H275401   5.712   2.252   3.367  0.7345  0.3791  2.2871
17996TIP3   OH275402   2.720   1.057  12.874  0.4490 -0.5024  0.6327
17996TIP3    H175403   2.739   0.963  12.874 -1.5200 -1.1172 -3.3133
17996TIP3    H275404   2.624   1.062  12.880  0.5941  1.4613  2.7705
17997TIP3   OH275405   4.036   0.877   2.663 -0.6679 -0.9146 -0.2431
17997TIP3    H175406   4.016   0.877   2.570 -0.2486 -2.0625 -0.3472
17997TIP3    H275407   4.124   0.842   2.669 -0.1971  0.3181  0.5099
17998TIP3   OH275408   3.722   0.111  12.854  0.0802  0.7594 -0.1005
17998TIP3    H175409   3.637   0.152  12.837 -1.7418 -3.1658 -1.6433
17998TIP3    H275410   3.756   0.090  12.767  0.2688 -1.9316  0.5265
17999TIP3   OH275411   5.467   1.981   1.717  1.0421  0.0476 -0.4605
17999TIP3    H175412   5.526   1.946   1.650  2.7467  0.0743  0.9456
17999TIP3    H275413   5.484   1.927   1.794  0.3768  1.0776  0.4338
18000TIP3   OH275414   4.421   3.875  14.171 -0.4943 -0.3675  0.6624
18000TIP3    H175415   4.424   3.884  14.076 -0.4430 -0.3457  0.6657
18000TIP3    H275416   4.410   3.782  14.187  0.4323 -0.4855  0.6551
18001TIP3   OH275417   6.434   0.980  12.164  0.1361  0.7166  0.2836
18001TIP3    H175418   6.354   0.987  12.111 -0.4063 -1.0169  0.8315
18001TIP3    H275419   6.502   0.957  12.101 -0.3915 -0.7511  0.2140
18002TIP3   OH275420   5.136   4.562   3.453  0.5141  0.4157  0.5417
18002TIP3    H175421   5.222   4.604   3.454 -0.2385  2.1009 -0.9761
18002TIP3    H275422   5.090   4.602   3.379 -1.4620 -0.6912  1.0989
18003TIP3   OH275423   4.080   3.990  15.508 -0.3210 -0.3731 -0.0791
18003TIP3    H175424   4.012   3.929  15.477 -0.8138 -0.5531  1.2787
18003TIP3    H275425   4.106   3.955  15.593 -0.0841  0.9117  0.3956
18004TIP3   OH275426   6.578   2.500  15.160 -0.2125 -0.2271 -0.0046
18004TIP3    H175427   6.637   2.477  15.088  0.6070 -1.4669  1.0262
18004TIP3    H275428   6.545   2.587  15.136  0.5857 -0.2957 -1.5164
18005TIP3   OH275429   3.352   2.318   0.493 -0.0072  0.2431  0.2886
18005TIP3    H175430   3.391   2.352   0.574 -1.5090 -0.2961  1.2730
18005TIP3    H275431   3.304   2.240   0.521  0.6933 -0.8480 -1.3857
18006TIP3   OH275432   3.219   2.451   1.292  0.6951 -0.4036 -0.9515
18006TIP3    H175433   3.306   2.430   1.257  2.0162  4.2388 -1.0675
18006TIP3    H275434   3.180   2.509   1.227 -1.3033 -0.0927  0.4250
18007TIP3   OH275435   6.185   3.875   2.392 -0.3537 -0.5389 -0.3003
18007TIP3    H175436   6.255   3.824   2.352 -0.7736 -1.2822 -0.1042
18007TIP3    H275437   6.138   3.913   2.318  0.2203 -0.0666 -0.4338
18008TIP3   OH275438   1.393   3.891  14.868  0.5353  0.4054  0.1522
18008TIP3    H175439   1.445   3.970  14.851 -0.8396  1.0759 -1.2211
18008TIP3    H275440   1.340   3.914  14.944 -1.6428  1.8377 -1.6528
18009TIP3   OH275441   1.612   2.751  11.667  0.2557 -0.0769  0.6100
18009TIP3    H175442   1.693   2.767  11.619 -0.4901  1.3474 -0.2411
18009TIP3    H275443   1.608   2.656  11.676  1.8268 -0.1958  0.3538
18010TIP3   OH275444   4.345   2.754   3.266  1.0829  0.9054  0.1220
18010TIP3    H175445   4.332   2.727   3.175  0.9753 -0.5260  0.5390
18010TIP3    H275446   4.316   2.845   3.268  1.9587  1.2440 -1.4682
18011TIP3   OH275447   4.870   0.300  14.317  0.0049  0.1913  0.0699
18011TIP3    H175448   4.941   0.311  14.253  0.7575  2.0232  1.1557
18011TIP3    H275449   4.902   0.233  14.378 -0.1523 -0.5711 -0.6558
18012TIP3   OH275450   4.018   6.633   1.611  0.5834  0.2731  0.0586
18012TIP3    H175451   3.969   6.562   1.569 -0.2089  1.6781 -1.5222
18012TIP3    H275452   4.033   6.602   1.700 -1.5779 -0.9928  0.0540
18013TIP3   OH275453   0.950   2.660   0.727  0.3290 -0.3334  0.4578
18013TIP3    H175454   0.855   2.659   0.718  0.3668  0.6746 -0.1268
18013TIP3    H275455   0.965   2.685   0.818  0.0286  1.4661  0.0570
18014TIP3   OH275456   5.618   6.420   3.439 -0.2948  0.3181  0.3174
18014TIP3    H175457   5.620   6.419   3.534  1.1923  0.1621  0.3028
18014TIP3    H275458   5.611   6.513   3.415  0.9758  0.4922  0.5762
18015TIP3   OH275459   4.636   0.350  16.621 -0.0868  0.1969  0.2162
18015TIP3    H175460   4.652   0.272  16.674  0.3448 -0.2782 -0.5866
18015TIP3    H275461   4.702   0.413  16.650  0.4596 -0.2316 -0.0778
18016TIP3   OH275462   6.259   0.011  15.581  0.2162 -0.3463  0.0297
18016TIP3    H175463   6.171  -0.025  15.597  0.4111 -1.3545 -1.0311
18016TIP3    H275464   6.319  -0.059  15.607  0.6229 -0.5774 -1.4399
18017TIP3   OH275465   0.660   3.258   5.104 -0.0103 -0.3811 -0.0770
18017TIP3    H175466   0.742   3.272   5.152 -1.1894 -0.0562  1.9065
18017TIP3    H275467   0.689   3.223   5.019  2.4465  3.2521 -0.9808
18018TIP3   OH275468   4.439   1.725   0.542 -0.3291 -0.2843 -0.3187
18018TIP3    H175469   4.348   1.736   0.513 -0.5052 -1.1000 -0.0913
18018TIP3    H275470   4.491   1.751   0.467 -0.7783 -1.5406 -1.1022
18019TIP3   OH275471   1.100   5.250  11.790  0.2007 -0.3583  0.6679
18019TIP3    H175472   1.079   5.221  11.879  0.6435 -1.2253  0.4961
18019TIP3    H275473   1.191   5.226  11.777  0.5079  0.8757  0.4065
18020TIP3   OH275474   2.271   4.441   2.215 -0.0289 -0.7856 -0.7456
18020TIP3    H175475   2.235   4.524   2.186 -1.9462 -0.4955  2.0621
18020TIP3    H275476   2.306   4.459   2.303  0.7951 -2.6457 -0.6325
18021TIP3   OH275477   1.484   0.270   0.173 -0.1668  0.4313 -0.2362
18021TIP3    H175478   1.430   0.298   0.247 -0.5334  0.0216 -0.3437
18021TIP3    H275479   1.486   0.174   0.179  1.0122  0.4653  0.0857
18022TIP3   OH275480   3.486   2.893   5.581 -1.1261  0.3355 -0.1970
18022TIP3    H175481   3.427   2.965   5.602 -0.5419  0.9251 -0.5314
18022TIP3    H275482   3.569   2.936   5.559 -1.0839 -0.3738 -1.5257
18023TIP3   OH275483   4.180   6.028   5.291 -0.0719 -0.3520 -0.1672
18023TIP3    H175484   4.153   5.975   5.216  3.3474 -0.5217 -1.4903
18023TIP3    H275485   4.174   5.969   5.366 -0.1876 -1.3177 -0.9124
18024TIP3   OH275486   2.716   3.891   6.333  0.4739 -0.1367  0.7006
18024TIP3    H175487   2.725   3.923   6.244 -0.4855 -1.2952  0.1500
18024TIP3    H275488   2.792   3.834   6.346  0.0532 -0.8423  0.1926
18025TIP3   OH275489   1.841   3.808   4.731 -0.3356  0.1418  0.0385
18025TIP3    H175490   1.785   3.886   4.725  0.8412  0.9369 -1.0345
18025TIP3    H275491   1.845   3.774   4.642  0.3538 -0.2958  0.2289
18026TIP3   OH275492   3.527   6.674   0.476  0.0976  0.2536 -0.0965
18026TIP3    H175493   3.604   6.633   0.437 -0.4127  0.9942 -1.9881
18026TIP3    H275494   3.554   6.696   0.565  1.2108 -1.8009  0.1340
18027TIP3   OH275495   3.902   6.537  11.175  0.0407 -0.0385 -0.7096
18027TIP3    H175496   3.978   6.517  11.120  0.9274  0.9684  0.0980
18027TIP3    H275497   3.907   6.472  11.245  0.9391  0.8145  0.0490
18028TIP3   OH275498   6.445   1.864  16.582  0.3920 -0.4800 -0.4736
18028TIP3    H175499   6.457   1.842  16.489 -1.8234 -1.0125 -0.6965
18028TIP3    H275500   6.385   1.797  16.615 -1.8464  1.7465  0.3511
18029TIP3   OH275501   0.957   5.535  15.749 -0.0848 -0.0219  0.4386
18029TIP3    H175502   0.975   5.461  15.807  1.7636 -0.4548 -0.6253
18029TIP3    H275503   0.866   5.522  15.721 -0.3093 -0.9717  1.5401
18030TIP3   OH275504   5.071   2.802   1.267  0.2810 -0.0920 -0.2105
18030TIP3    H175505   5.165   2.814   1.255  0.2950  1.0188  0.9134
18030TIP3    H275506   5.051   2.724   1.215  1.6102  0.2865 -1.3636
18031TIP3   OH275507   3.752   2.044  12.880 -0.2763  0.0436 -0.1896
18031TIP3    H175508   3.796   1.981  12.938  2.3779 -1.1262 -3.1559
18031TIP3    H275509   3.800   2.126  12.893 -0.9240  0.3133  0.5731
18032TIP3   OH275510   5.421   4.076  16.014  0.1485  0.3382 -0.1696
18032TIP3    H175511   5.354   4.121  16.065  0.9399  2.0068 -0.5573
18032TIP3    H275512   5.418   3.985  16.045 -1.4926  0.6311  0.6179
18033TIP3   OH275513   0.198   4.026  16.903  0.0294 -0.3108 -0.0596
18033TIP3    H175514   0.240   4.093  16.958  0.4191  0.0304 -0.7673
18033TIP3    H275515   0.255   4.018  16.827  0.8424 -2.5683  0.6831
18034TIP3   OH275516   4.295   3.857  12.292 -0.5140  0.0832  0.3759
18034TIP3    H175517   4.338   3.779  12.328  0.0327  1.3920  2.7921
18034TIP3    H275518   4.222   3.874  12.352 -0.6749  1.3870 -0.1502
18035TIP3   OH275519   2.059   5.277   6.448  0.2410  0.0258 -0.4863
18035TIP3    H175520   2.106   5.296   6.529 -0.5162 -0.4920  0.0904
18035TIP3    H275521   2.012   5.358   6.428 -2.7604 -0.9684  1.8132
18036TIP3   OH275522   2.022   2.346  14.302 -0.1103  0.0304 -0.2925
18036TIP3    H175523   1.945   2.330  14.247  1.2386 -2.4373 -1.5857
18036TIP3    H275524   2.015   2.282  14.373  1.6573 -1.5039 -1.4521
18037TIP3   OH275525   1.922   0.390  12.635  0.0556 -0.1972 -0.4315
18037TIP3    H175526   2.003   0.346  12.610  2.0195  2.2946  1.0751
18037TIP3    H275527   1.893   0.344  12.714  1.6494  0.5946  0.6727
18038TIP3   OH275528   1.432   1.492  14.832  0.5153  0.1814 -0.4455
18038TIP3    H175529   1.387   1.410  14.851 -2.2495  1.7878  0.4556
18038TIP3    H275530   1.476   1.476  14.749 -0.9209 -1.8331 -0.8923
18039TIP3   OH275531   0.184   5.099   3.242 -0.0574 -0.1863  0.4860
18039TIP3    H175532   0.248   5.080   3.174 -1.8421 -1.7893 -0.8550
18039TIP3    H275533   0.116   5.032   3.231 -0.5158 -0.4207  3.7466
18040TIP3   OH275534   3.782   3.093   6.033  0.7797  0.2804 -1.1887
18040TIP3    H175535   3.838   3.171   6.029  2.2496 -0.5743  0.8599
18040TIP3    H275536   3.841   3.023   6.061 -1.3488 -0.5657  1.6855
18041TIP3   OH275537   6.507   0.538  12.719  0.2424  0.3896  0.7248
18041TIP3    H175538   6.504   0.478  12.645  1.2561  1.2960 -0.0974
18041TIP3    H275539   6.569   0.497  12.780 -3.2082 -2.1969  2.8777
18042TIP3   OH275540   1.342   3.658   6.415 -0.3841 -0.1127  0.1673
18042TIP3    H175541   1.304   3.721   6.354  3.9710  0.9727 -1.8222
18042TIP3    H275542   1.343   3.575   6.366  0.7263  0.1533 -0.3086
18043TIP3   OH275543   0.904   4.799   0.176  0.1110  0.1098  0.4897
18043TIP3    H175544   0.858   4.813   0.259  1.0371 -2.7025  1.6013
18043TIP3    H275545   0.835   4.793   0.110 -0.7089  1.3900  1.1954
18044TIP3   OH275546   4.655   3.462  15.077  0.2309 -0.6871  0.1428
18044TIP3    H175547   4.668   3.457  15.172 -3.3884  0.8722  0.8885
18044TIP3    H275548   4.680   3.375  15.045  0.9072 -1.4723  2.6156
18045TIP3   OH275549   6.622   3.988   5.843  0.1695 -0.9834  0.5892
18045TIP3    H175550   6.533   4.025   5.848  0.5500  0.0534  0.0577
18045TIP3    H275551   6.628   3.929   5.918 -1.2508 -1.7097  0.1621
18046TIP3   OH275552   0.929   1.748   3.665  0.2671  0.1308  0.0951
18046TIP3    H175553   0.855   1.759   3.725  1.1880 -0.0130  1.2907
18046TIP3    H275554   0.889   1.740   3.578 -1.0785  0.6986  0.6384
18047TIP3   OH275555   3.407   3.160  15.468 -0.0351  0.5974  0.3455
18047TIP3    H175556   3.331   3.105  15.491 -0.6322  1.3126  0.1200
18047TIP3    H275557   3.481   3.099  15.469 -0.4228  0.1078  1.7012
18048TIP3   OH275558   1.161   5.965  12.750  0.3660  0.2687 -0.0749
18048TIP3    H175559   1.240   5.920  12.781 -0.3258 -0.0776  1.2842
18048TIP3    H275560   1.185   6.058  12.753  0.7021  0.1737  0.4021
18049TIP3   OH275561   4.884   5.479  16.219  0.4356 -0.1749 -0.4664
18049TIP3    H175562   4.810   5.535  16.197  1.0108  1.1013  0.7364
18049TIP3    H275563   4.857   5.391  16.191 -0.7352  0.5757 -1.7942
18050TIP3   OH275564   1.920   3.315  14.803 -0.1056  0.0491 -0.0455
18050TIP3    H175565   1.871   3.241  14.839 -1.1757  0.9668  0.4553
18050TIP3    H275566   1.857   3.387  14.801  0.5336  0.6192 -1.7659
18051TIP3   OH275567   6.147   0.729   4.769 -0.2339 -0.1379 -0.7378
18051TIP3    H175568   6.055   0.754   4.768 -0.4871 -0.6664 -4.2533
18051TIP3    H275569   6.186   0.782   4.699  2.0524 -0.2875  0.3344
18052TIP3   OH275570   4.898   1.159   4.604 -0.5180  1.0976  0.5032
18052TIP3    H175571   4.928   1.250   4.603 -1.1533  1.3463 -1.3928
18052TIP3    H275572   4.835   1.156   4.676 -0.9164  2.3416  0.2455
18053TIP3   OH275573   0.339   1.263   4.113 -0.1031  0.4476 -0.4693
18053TIP3    H175574   0.415   1.248   4.057  0.7721  1.2673  0.4539
18053TIP3    H275575   0.367   1.333   4.173 -0.9507 -0.4653  1.0523
18054TIP3   OH275576   3.405   2.301  10.961 -0.4264 -0.2088 -0.0660
18054TIP3    H175577   3.397   2.206  10.950 -1.2198  0.0902 -2.4897
18054TIP3    H275578   3.484   2.324  10.914  0.3052  0.2635  1.3329
18055TIP3   OH275579   0.765   2.485   1.955 -0.0350  0.5569  0.0195
18055TIP3    H175580   0.789   2.393   1.954  1.6525  0.9512  1.1460
18055TIP3    H275581   0.685   2.489   1.902  0.1451 -1.4484 -0.4858
18056TIP3   OH275582   3.748   0.537  14.141 -0.2428  0.5498  0.0047
18056TIP3    H175583   3.797   0.540  14.224  0.4948 -0.6667 -0.3648
18056TIP3    H275584   3.656   0.540  14.168 -0.0059  0.5895  0.8505
18057TIP3   OH275585   5.864   3.870   4.346  0.3649  0.0863  0.2743
18057TIP3    H175586   5.882   3.805   4.279 -0.1501 -1.1477  1.2844
18057TIP3    H275587   5.898   3.952   4.310  4.3710 -1.2799  0.3810
18058TIP3   OH275588   0.622   4.345   4.741  0.3870 -0.2907 -0.4997
18058TIP3    H175589   0.707   4.340   4.786 -0.8819 -2.1507  1.9720
18058TIP3    H275590   0.618   4.265   4.689  0.1086 -0.2531 -0.5341
18059TIP3   OH275591   2.898   0.135  14.883  0.2929  0.0033  0.3761
18059TIP3    H175592   2.946   0.053  14.896  2.1793  1.2710  2.1675
18059TIP3    H275593   2.964   0.195  14.847 -1.1739  0.6590 -1.3498
18060TIP3   OH275594   4.045   2.098  14.885  0.0285 -0.1024  0.0607
18060TIP3    H175595   4.055   2.048  14.804  1.1612  0.6248 -0.2660
18060TIP3    H275596   3.972   2.157  14.868 -0.1647 -0.4029 -0.1819
18061TIP3   OH275597   2.565   2.130  11.077  0.4949 -0.0715 -0.2114
18061TIP3    H175598   2.559   2.224  11.063  0.0587  0.1516  1.2841
18061TIP3    H275599   2.482   2.095  11.042 -0.8735  0.5458  2.1853
18062TIP3   OH275600   2.082   0.537  10.781  0.1240 -0.0167 -0.1481
18062TIP3    H175601   2.008   0.480  10.760  0.7409 -1.2177  0.7893
18062TIP3    H275602   2.063   0.571  10.868  0.5602 -0.1496  0.0025
18063TIP3   OH275603   1.894   2.274  15.974  0.1296 -0.5075 -0.6609
18063TIP3    H175604   1.959   2.306  15.912  1.0685 -2.8722 -0.9644
18063TIP3    H275605   1.943   2.259  16.055 -0.3914 -0.7462 -0.3859
18064TIP3   OH275606   3.788   3.294   4.357  0.5703 -0.3145  0.4984
18064TIP3    H175607   3.839   3.245   4.422  0.6858  0.5421  1.0728
18064TIP3    H275608   3.847   3.302   4.282 -0.0266 -2.4419 -0.2627
18065TIP3   OH275609   0.632   0.530  15.311 -0.2949 -0.1843 -0.1884
18065TIP3    H175610   0.559   0.468  15.316 -0.1646 -0.2850  0.6280
18065TIP3    H275611   0.649   0.554  15.402  0.4442  0.1341 -0.4029
18066TIP3   OH275612   1.520   3.666   4.038  0.9383 -0.4479 -0.0837
18066TIP3    H175613   1.470   3.683   4.118  0.4836 -1.5047 -0.1280
18066TIP3    H275614   1.610   3.688   4.061  0.6965 -0.0045  0.4773
18067TIP3   OH275615   5.642   4.425   2.361  0.4267  0.1607  0.7011
18067TIP3    H175616   5.724   4.384   2.386  0.1644 -1.6797 -1.1980
18067TIP3    H275617   5.574   4.366   2.394 -0.0712  0.5221  0.3502
18068TIP3   OH275618   5.410   2.094   0.913 -0.0908 -0.7231 -0.4141
18068TIP3    H175619   5.468   2.150   0.862 -0.9950 -0.2626 -0.9802
18068TIP3    H275620   5.363   2.155   0.971 -0.2643 -1.0346 -0.2229
18069TIP3   OH275621   4.820   0.009   2.606 -0.1397  0.0430 -0.7434
18069TIP3    H175622   4.876   0.086   2.618 -0.6212  0.4539 -1.1138
18069TIP3    H275623   4.774  -0.000   2.689  0.0984  0.0082 -0.6142
18070TIP3   OH275624   3.454   3.384  11.270  0.2074  0.3643 -0.3468
18070TIP3    H175625   3.479   3.325  11.199 -0.0854  1.4639 -1.4074
18070TIP3    H275626   3.526   3.447  11.275  1.4521 -1.1308  2.0641
18071TIP3   OH275627   4.101   3.317  16.483  0.2833  0.2107  0.0991
18071TIP3    H175628   4.007   3.327  16.495 -0.0445  0.7526 -2.3020
18071TIP3    H275629   4.117   3.351  16.395  2.4371 -1.5444 -0.2728
18072TIP3   OH275630   4.266   6.059   3.341 -0.1886  0.3693 -0.3896
18072TIP3    H175631   4.178   6.053   3.377  0.3527  0.7852  1.0916
18072TIP3    H275632   4.307   6.132   3.388  0.6266  0.8703 -1.7946
18073TIP3   OH275633   1.787   4.865  16.594  0.0077  0.0070  0.0952
18073TIP3    H175634   1.875   4.833  16.614  0.0234  0.2490  0.4372
18073TIP3    H275635   1.728   4.810  16.646  0.0744  0.8823  1.1366
18074TIP3   OH275636   2.475   1.603  13.487  0.2352  0.2420 -0.1727
18074TIP3    H175637   2.463   1.678  13.546  0.3871 -1.5500  2.3015
18074TIP3    H275638   2.568   1.581  13.495 -0.0572 -0.9701  0.1997
18075TIP3   OH275639   5.712   4.306  15.643  0.6127 -0.4799 -0.0658
18075TIP3    H175640   5.768   4.371  15.687 -0.1879  0.6200 -0.6162
18075TIP3    H275641   5.638   4.293  15.702  1.4983 -2.0840  0.7545
18076TIP3   OH275642   5.649   0.759   1.263 -0.2605  0.1949 -0.1674
18076TIP3    H175643   5.742   0.779   1.254 -0.0125 -0.6115  0.5306
18076TIP3    H275644   5.605   0.840   1.238  0.6225  0.5749 -0.5378
18077TIP3   OH275645   4.923   0.378  10.946  0.1313 -0.5695 -0.4658
18077TIP3    H175646   4.945   0.368  11.039 -0.8606  2.4433  0.2151
18077TIP3    H275647   5.007   0.384  10.902  0.6527  0.0761  0.5747
18078TIP3   OH275648   1.928   0.239   1.833 -0.3504 -0.1980  0.0625
18078TIP3    H175649   2.017   0.216   1.804 -1.2064 -2.5332 -0.9957
18078TIP3    H275650   1.919   0.195   1.918 -0.5008  0.0164  0.1573
18079TIP3   OH275651   6.680   5.787  14.265 -0.4550  0.5276  0.3211
18079TIP3    H175652   6.607   5.731  14.291  1.0523 -0.6173  2.3073
18079TIP3    H275653   6.711   5.750  14.182 -0.0047 -1.1321  1.2001
18080TIP3   OH275654   2.843   0.814   2.851  0.2430  0.0572 -0.4941
18080TIP3    H175655   2.848   0.861   2.934  1.5663 -1.3120  0.2508
18080TIP3    H275656   2.755   0.776   2.850 -0.5226  1.7388 -0.7050
18081TIP3   OH275657   5.785   2.742  15.042  0.2239 -0.4830  0.6245
18081TIP3    H175658   5.805   2.666  15.097 -0.8514 -1.8411 -0.7634
18081TIP3    H275659   5.741   2.705  14.965 -1.2194  1.6492  0.3391
18082TIP3   OH275660   4.136   1.881  15.277 -0.5027 -0.0044  0.4344
18082TIP3    H175661   4.189   1.822  15.223  2.0364  1.6735  0.9519
18082TIP3    H275662   4.063   1.905  15.221 -0.5336 -2.0304 -0.4900
18083TIP3   OH275663   5.504   2.815  16.724  0.2434 -0.0837 -0.6706
18083TIP3    H175664   5.477   2.758  16.652  0.9748  0.4523 -1.3749
18083TIP3    H275665   5.592   2.844  16.701 -0.3823  1.9171 -0.6734
18084TIP3   OH275666   4.197   1.993   3.715 -0.1867 -0.8287  0.0169
18084TIP3    H175667   4.227   2.054   3.782 -0.9771 -1.7548  1.2681
18084TIP3    H275668   4.170   2.049   3.641  0.2390  0.2415  0.6501
18085TIP3   OH275669   1.054   3.321  14.873  0.0948  0.0364 -0.0239
18085TIP3    H175670   1.107   3.398  14.851  2.1300 -0.8019  1.5769
18085TIP3    H275671   1.102   3.247  14.836 -0.8265 -0.6268  0.0711
18086TIP3   OH275672   3.849   0.063  12.371 -0.0763 -0.1564  0.0379
18086TIP3    H175673   3.769   0.094  12.413 -0.6253 -1.7820  0.2599
18086TIP3    H275674   3.877   0.136  12.315 -1.0850  0.8417  0.8044
18087TIP3   OH275675   6.322   0.231   2.734 -0.3497 -0.8012 -0.1035
18087TIP3    H175676   6.345   0.317   2.700 -0.2864 -0.4031  0.8942
18087TIP3    H275677   6.240   0.246   2.782  0.6234 -0.8852  1.6622
18088TIP3   OH275678   4.571   1.348  14.411  0.2153 -0.6081  0.4837
18088TIP3    H175679   4.536   1.367  14.498 -0.0710 -0.1842  0.2823
18088TIP3    H275680   4.505   1.384  14.351  0.0745 -1.5101  0.0904
18089TIP3   OH275681   6.008   4.538   3.304 -0.0407 -0.8667  0.2379
18089TIP3    H175682   6.045   4.616   3.262 -0.6484 -1.3678 -1.2886
18089TIP3    H275683   5.977   4.569   3.389 -0.0455  0.5130 -0.2461
18090TIP3   OH275684   6.208   0.938   0.987  0.1889 -0.4037  0.1767
18090TIP3    H175685   6.142   0.880   0.950 -0.8297  0.9256 -0.1615
18090TIP3    H275686   6.278   0.939   0.922 -1.4760  1.7171 -1.7110
18091TIP3   OH275687   3.567   0.113   0.288 -0.4354 -0.1957 -1.0013
18091TIP3    H175688   3.561   0.029   0.335  3.6586  0.4274  1.0398
18091TIP3    H275689   3.542   0.178   0.353  0.6606  0.4036 -1.1647
18092TIP3   OH275690   6.591   0.227   0.101  0.4182 -0.0235  0.1057
18092TIP3    H175691   6.663   0.223   0.164  0.7718  0.7700 -0.2248
18092TIP3    H275692   6.572   0.136   0.080  0.5385 -0.2895  1.0844
18093TIP3   OH275693   4.968   5.198  15.805 -0.2760  0.4998  0.4834
18093TIP3    H175694   4.880   5.230  15.786 -0.2499 -0.1246 -0.7998
18093TIP3    H275695   5.006   5.264  15.863 -1.1919  1.3509  0.1351
18094TIP3   OH275696   6.249   1.332   1.883 -1.0882  0.0804  0.5123
18094TIP3    H175697   6.243   1.419   1.922 -0.2061  0.7224 -0.7162
18094TIP3    H275698   6.171   1.287   1.914 -1.7847  1.4430  0.8297
18095TIP3   OH275699   1.710   3.465   5.583 -0.2934 -0.1951  0.2590
18095TIP3    H175700   1.757   3.438   5.504 -0.8955 -1.1201  0.2062
18095TIP3    H275701   1.767   3.531   5.623 -0.5610  1.2599 -1.6162
18096TIP3   OH275702   5.059   4.510  15.421  0.6888  0.6415 -0.5712
18096TIP3    H175703   4.981   4.557  15.390 -1.0875 -1.3231  0.6524
18096TIP3    H275704   5.070   4.539  15.511 -0.0673 -0.7609  0.0023
18097TIP3   OH275705   6.140   4.765   1.988 -0.2253  0.3075  0.2627
18097TIP3    H175706   6.098   4.747   2.072 -2.4534 -1.2051 -1.0562
18097TIP3    H275707   6.198   4.691   1.973 -0.7458 -0.0544 -0.0282
18098TIP3   OH275708   2.403   4.255   0.852 -0.3830 -0.0721 -0.1409
18098TIP3    H175709   2.362   4.220   0.773 -0.0452 -2.3719  0.6358
18098TIP3    H275710   2.485   4.207   0.859  0.4438  1.4164  0.6345
18099TIP3   OH275711   6.620   0.271   2.359 -0.5991  0.5385 -0.5199
18099TIP3    H175712   6.616   0.303   2.449 -1.0775 -0.1538 -0.2886
18099TIP3    H275713   6.711   0.285   2.333  0.1269 -1.2250  0.8350
18100TIP3   OH275714   1.855   3.303  14.103 -0.5096  0.3538  0.1589
18100TIP3    H175715   1.860   3.328  14.011  1.0276  0.5173  0.2667
18100TIP3    H275716   1.817   3.215  14.101 -1.8645  0.9135 -0.5037
18101TIP3   OH275717   0.862   1.241  15.765 -0.2348 -0.2160 -0.3510
18101TIP3    H175718   0.799   1.169  15.759 -1.3903  0.6918  0.6231
18101TIP3    H275719   0.810   1.320  15.753  0.7984  0.5320 -0.0294
18102TIP3   OH275720   3.220   3.983  16.723  0.2654  0.1754  0.3225
18102TIP3    H175721   3.197   3.894  16.752  2.2909  0.3028  2.6052
18102TIP3    H275722   3.155   4.039  16.765 -0.1833 -0.1010  0.0070
18103TIP3   OH275723   4.942   2.323   2.956  0.5493  0.5312 -0.2192
18103TIP3    H175724   4.985   2.298   2.874  1.1993  1.3896 -0.1491
18103TIP3    H275725   4.942   2.419   2.955 -1.0686  0.5524 -0.0520
18104TIP3   OH275726   6.100   5.278  15.037  0.3189 -0.0716  0.1666
18104TIP3    H175727   6.090   5.199  14.985 -1.1814 -0.0914  0.4606
18104TIP3    H275728   6.192   5.302  15.025 -0.0963  0.3721 -3.1423
18105TIP3   OH275729   2.645   3.291  16.680 -0.3948 -0.0552 -0.0545
18105TIP3    H175730   2.608   3.322  16.597  1.4214  0.2475 -0.8038
18105TIP3    H275731   2.613   3.354  16.745 -1.5283 -0.0694 -0.5714
18106TIP3   OH275732   0.028   6.717   4.050 -0.4110 -0.6519 -0.3277
18106TIP3    H175733   0.036   6.698   4.143 -0.1101 -1.5665 -0.5244
18106TIP3    H275734  -0.011   6.804   4.046  1.7882  0.4475  0.6503
18107TIP3   OH275735   6.627   0.693  11.508 -0.4460  0.3714  0.2499
18107TIP3    H175736   6.646   0.631  11.438 -1.3437 -2.2446  2.1578
18107TIP3    H275737   6.575   0.761  11.467 -1.3516 -1.3234 -1.5661
18108TIP3   OH275738   2.531   0.779  13.459  0.3582 -0.3497 -0.5059
18108TIP3    H175739   2.546   0.867  13.492 -0.1709 -1.5282  3.4506
18108TIP3    H275740   2.437   0.776  13.440  0.1176 -0.3705  0.6175
18109TIP3   OH275741   2.359   6.532  15.695  0.3517 -0.2766 -0.1798
18109TIP3    H175742   2.323   6.535  15.606  2.1617 -0.4990 -0.9747
18109TIP3    H275743   2.355   6.622  15.726  1.8161  0.2659 -1.4338
18110TIP3   OH275744   4.971   3.563   3.668  0.0024 -0.1287  0.4106
18110TIP3    H175745   4.908   3.598   3.731  2.5027  0.8450  2.5564
18110TIP3    H275746   4.952   3.611   3.587 -1.2294  1.0202  1.3284
18111TIP3   OH275747   4.857   0.694  16.387  0.3425  0.2461 -0.3286
18111TIP3    H175748   4.948   0.665  16.384  0.2352 -0.0481 -0.8195
18111TIP3    H275749   4.863   0.788  16.404  0.6931  0.0052  1.0450
18112TIP3   OH275750   0.948   3.034  11.332 -0.0213  0.9128  0.2404
18112TIP3    H175751   1.031   2.997  11.362  0.1310  0.6173 -0.5337
18112TIP3    H275752   0.964   3.128  11.328 -0.1968  1.0135  1.5472
18113TIP3   OH275753   0.033   0.688   5.549 -0.3532  0.2794  0.0454
18113TIP3    H175754  -0.024   0.766   5.546  0.2374  0.7535 -3.2307
18113TIP3    H275755   0.071   0.684   5.461 -0.2377 -3.6661  0.1064
18114TIP3   OH275756   4.718   5.095  15.231 -0.7796 -0.0817 -0.0001
18114TIP3    H175757   4.770   5.088  15.150 -1.2458 -0.6024 -0.2584
18114TIP3    H275758   4.781   5.079  15.301 -0.3468  0.4810 -0.2510
18115TIP3   OH275759   2.057   0.954  13.227  0.5445 -0.1987 -0.1146
18115TIP3    H175760   2.126   0.962  13.293  0.9414  0.3896 -0.5882
18115TIP3    H275761   2.062   1.036  13.177  0.1802 -0.5889 -0.8052
18116TIP3   OH275762   4.061   4.072  11.982 -0.2152  0.0519 -0.2751
18116TIP3    H175763   4.140   4.057  11.931  1.1390 -1.4898  2.0970
18116TIP3    H275764   4.055   4.167  11.989  1.3952  0.2047 -0.5375
18117TIP3   OH275765   3.753   5.735   4.239  0.3386 -0.7322  0.2731
18117TIP3    H175766   3.773   5.726   4.332 -0.7361  0.1282  0.6008
18117TIP3    H275767   3.698   5.659   4.219 -1.2753  0.2112  0.9015
18118TIP3   OH275768   0.495   0.247  10.938 -0.3357 -0.4688  0.7027
18118TIP3    H175769   0.515   0.284  10.852  1.9278  1.3852  1.9078
18118TIP3    H275770   0.522   0.156  10.932  0.0136 -0.3083 -0.4608
18119TIP3   OH275771   1.224   4.565   0.996 -0.4743 -0.9297  0.0878
18119TIP3    H175772   1.182   4.553   0.911  1.6664 -0.6217 -1.0862
18119TIP3    H275773   1.300   4.507   0.994 -0.3073 -0.8235  1.7540
18120TIP3   OH275774   0.667   0.129  11.759 -0.4748 -0.6779  0.8835
18120TIP3    H175775   0.757   0.159  11.762 -0.6371 -0.1825  0.8423
18120TIP3    H275776   0.653   0.101  11.669 -0.6028  0.0016  0.6878
18121TIP3   OH275777   1.439   1.703   2.087 -0.3249  0.2728 -0.2499
18121TIP3    H175778   1.442   1.797   2.103 -0.9272  0.6549 -2.1361
18121TIP3    H275779   1.473   1.664   2.167 -0.8637  2.0561  0.9148
18122TIP3   OH275780   5.848   0.714   0.483 -0.0651 -0.6520  0.2901
18122TIP3    H175781   5.905   0.644   0.452 -0.7401 -1.1298  0.1067
18122TIP3    H275782   5.763   0.694   0.445 -0.4910 -0.2702  1.0245
18123TIP3   OH275783   2.396   5.337   5.696  0.3042 -0.0559  0.1111
18123TIP3    H175784   2.323   5.282   5.669  1.0067 -1.0722  0.2089
18123TIP3    H275785   2.470   5.306   5.643  1.4979 -1.4208  2.4471
18124TIP3   OH275786   0.026   0.331  14.561 -0.0508  0.1445 -0.3365
18124TIP3    H175787   0.057   0.407  14.513  1.7094  0.0700  0.5964
18124TIP3    H275788   0.017   0.361  14.652  0.0107 -0.5891 -0.0769
18125TIP3   OH275789   0.695   4.057   6.200 -1.2413  0.0572  0.0562
18125TIP3    H175790   0.688   4.017   6.287  0.7686 -0.8069 -0.1398
18125TIP3    H275791   0.783   4.036   6.170 -2.0675 -0.1869 -2.4650
18126TIP3   OH275792   6.347   2.601  15.754  0.3581 -0.3457 -0.1118
18126TIP3    H175793   6.344   2.554  15.671 -0.7062 -0.7090  0.1171
18126TIP3    H275794   6.306   2.686  15.736  2.4785  0.6448 -0.5804
18127TIP3   OH275795   5.872   3.483   3.283  0.1164  0.2542 -0.3194
18127TIP3    H175796   5.907   3.568   3.309 -1.7161  1.4776 -1.5950
18127TIP3    H275797   5.933   3.419   3.320  1.2765  2.0903  1.0952
18128TIP3   OH275798   2.134   5.948   1.720 -0.0787  0.1887 -0.2037
18128TIP3    H175799   2.057   6.004   1.708  0.2967  0.9196  0.5945
18128TIP3    H275800   2.183   5.956   1.639 -0.1732  0.8181 -0.2073
18129TIP3   OH275801   3.397   0.492  11.748  0.2033 -0.3268  0.1613
18129TIP3    H175802   3.482   0.461  11.779  1.3507  1.6509 -0.8382
18129TIP3    H275803   3.348   0.510  11.829  1.3978  0.2135  0.7967
18130TIP3   OH275804   6.757   2.182   2.592  0.2589  0.3797 -0.2267
18130TIP3    H175805   6.662   2.176   2.577  0.2634  0.5559 -0.3287
18130TIP3    H275806   6.765   2.187   2.688  0.0961  1.3912 -0.2519
18131TIP3   OH275807   2.998   1.540   4.989  0.0695  0.0335  0.5335
18131TIP3    H175808   2.937   1.571   4.922 -0.4141  1.8572  1.7464
18131TIP3    H275809   2.942   1.503   5.057  0.3899  0.4380  1.0242
18132TIP3   OH275810   5.216   1.548   0.790 -0.3096 -0.2667 -0.0619
18132TIP3    H175811   5.254   1.634   0.805 -0.4611 -0.3316  0.7354
18132TIP3    H275812   5.142   1.564   0.733 -1.6573  0.4526  1.7909
18133TIP3   OH275813   5.932   2.411   5.032  0.7806 -0.0333  0.1293
18133TIP3    H175814   5.916   2.400   4.938  0.4441  1.5441 -0.0281
18133TIP3    H275815   6.014   2.461   5.036 -1.4604  4.0187  0.4300
18134TIP3   OH275816   5.781   0.610   5.231  0.2438 -0.0100  0.4130
18134TIP3    H175817   5.872   0.584   5.247 -0.0143 -1.0628  0.2302
18134TIP3    H275818   5.760   0.571   5.147  0.1884  1.7858 -0.4531
18135TIP3   OH275819   3.210   0.319   5.368  0.3388 -0.0869 -0.0554
18135TIP3    H175820   3.180   0.275   5.289  0.5989  0.0429 -0.2270
18135TIP3    H275821   3.245   0.403   5.338 -1.3174  0.8243  0.3957
18136TIP3   OH275822   6.397   3.259  13.362 -0.6121  0.1576  0.2969
18136TIP3    H175823   6.441   3.201  13.300 -1.4132 -0.0422 -0.0930
18136TIP3    H275824   6.459   3.267  13.435  0.9008  1.4161 -1.0389
18137TIP3   OH275825   5.528   0.177   2.697 -0.6586 -0.0248  0.3475
18137TIP3    H175826   5.591   0.185   2.626 -0.9989 -2.4500 -0.2792
18137TIP3    H275827   5.492   0.089   2.689 -2.2189  0.3601  2.2852
18138TIP3   OH275828   1.064   3.199  15.320  0.0853 -0.4420  0.0967
18138TIP3    H175829   1.004   3.181  15.393 -0.9522 -2.3121 -1.1402
18138TIP3    H275830   1.012   3.179  15.242  1.6885 -0.0795 -1.0953
18139TIP3   OH275831   4.708   0.301  12.254  0.3319 -0.6231  0.4940
18139TIP3    H175832   4.797   0.267  12.263  0.6516 -0.0964 -0.5920
18139TIP3    H275833   4.676   0.262  12.173 -0.1672 -0.2307  0.5011
18140TIP3   OH275834   1.289   4.017  13.163 -0.2689 -0.0292 -0.2099
18140TIP3    H175835   1.346   4.061  13.227 -0.0460 -1.4551  0.6174
18140TIP3    H275836   1.338   4.023  13.080  0.2121  0.4173  0.0993
18141TIP3   OH275837   1.666   1.068   0.730  0.2457  0.3210  0.0258
18141TIP3    H175838   1.629   1.050   0.643 -1.2774 -0.1577  0.7459
18141TIP3    H275839   1.734   1.001   0.741  0.5555  0.4775 -0.8419
18142TIP3   OH275840   2.690   4.931   1.095 -0.2527 -0.0353 -0.1406
18142TIP3    H175841   2.656   4.862   1.039 -0.1565  0.6631 -1.0792
18142TIP3    H275842   2.694   5.009   1.039 -0.0860  0.6661  0.8077
18143TIP3   OH275843   6.432   0.172   4.420 -0.4942  0.4802  0.6553
18143TIP3    H175844   6.425   0.079   4.438  1.2486  0.1671 -0.1319
18143TIP3    H275845   6.380   0.186   4.341 -0.2902  0.0685  0.4502
18144TIP3   OH275846   5.282   5.444  12.425 -0.0362  0.5650  0.6003
18144TIP3    H175847   5.351   5.413  12.367 -2.1107  2.1062 -3.0145
18144TIP3    H275848   5.263   5.369  12.482  2.0251 -1.1562 -0.8172
18145TIP3   OH275849   3.066   3.315   4.780  0.5883  0.2994  0.1530
18145TIP3    H175850   3.055   3.261   4.858 -1.0808 -0.5940 -0.6551
18145TIP3    H275851   3.043   3.403   4.809 -3.5207 -0.5452 -0.0202
18146TIP3   OH275852   4.561   2.064   2.487  0.2577 -0.8006 -0.1734
18146TIP3    H175853   4.572   2.022   2.573 -1.9726 -3.6535 -1.0752
18146TIP3    H275854   4.616   2.012   2.428 -0.3962 -0.6886 -0.8965
18147TIP3   OH275855   4.816   3.748   0.243 -0.5531 -0.3714 -0.0778
18147TIP3    H175856   4.865   3.822   0.279  0.6907 -0.8512 -0.7385
18147TIP3    H275857   4.730   3.785   0.220  0.0461  0.8694 -0.4192
18148TIP3   OH275858   0.188   0.270   0.141  0.1258 -0.0216  0.8765
18148TIP3    H175859   0.253   0.219   0.189 -1.2336 -0.9808  1.7730
18148TIP3    H275860   0.198   0.243   0.050  1.3976  0.3222  0.9036
18149TIP3   OH275861   4.086   4.234   6.758 -0.1388  0.1724 -0.3355
18149TIP3    H175862   4.089   4.325   6.727  0.9423  0.4800  0.6026
18149TIP3    H275863   4.164   4.225   6.812 -1.4582 -0.6079  1.5248
18150TIP3   OH275864   0.071   1.262   2.606 -0.0029  0.6460 -0.1436
18150TIP3    H175865   0.123   1.286   2.682 -1.9603  2.0817  0.8142
18150TIP3    H275866  -0.019   1.275   2.633 -0.8155  0.1696 -2.3834
18151TIP3   OH275867   4.773   0.713   2.336  0.3940  0.2995  0.1346
18151TIP3    H175868   4.845   0.738   2.393  0.3971  1.3368 -0.3117
18151TIP3    H275869   4.696   0.713   2.393  0.7192 -0.7699  0.6032
18152TIP3   OH275870   6.146   1.476  14.806 -0.7911 -0.0632 -0.2211
18152TIP3    H175871   6.142   1.547  14.741  1.7355 -1.8315 -2.5166
18152TIP3    H275872   6.103   1.513  14.883 -1.2986  3.2723 -1.8901
18153TIP3   OH275873   3.438   4.394   4.598  0.1126 -0.0499 -0.0887
18153TIP3    H175874   3.399   4.399   4.685  1.9574 -0.3136  0.8088
18153TIP3    H275875   3.437   4.301   4.577  0.9893 -0.1726  0.3337
18154TIP3   OH275876   2.345   4.858   2.815  0.1921 -0.1018 -0.0159
18154TIP3    H175877   2.395   4.934   2.846 -0.4183  0.6461 -0.7873
18154TIP3    H275878   2.329   4.806   2.893 -1.8830  2.0606  1.1274
18155TIP3   OH275879   1.722   5.720   0.856 -0.2154 -0.1001  0.3578
18155TIP3    H175880   1.741   5.752   0.768  2.2264 -0.2752  0.7510
18155TIP3    H275881   1.686   5.633   0.842 -2.1653  0.7933 -0.5178
18156TIP3   OH275882   6.537   1.914   3.351  0.1844  0.6237  0.1168
18156TIP3    H175883   6.464   1.856   3.370  1.0314 -0.5627 -0.1652
18156TIP3    H275884   6.569   1.942   3.437  0.5639 -0.3390  0.2925
18157TIP3   OH275885   0.408   3.719   1.650  0.0728 -0.2251 -0.0988
18157TIP3    H175886   0.469   3.729   1.724 -1.4185  0.5179  1.0818
18157TIP3    H275887   0.422   3.629   1.620 -0.7142 -1.2739  2.4428
18158TIP3   OH275888   3.748   2.719  14.798 -0.5591 -0.0948 -0.5663
18158TIP3    H175889   3.775   2.641  14.847  1.9193  0.8564 -0.2630
18158TIP3    H275890   3.794   2.712  14.715  0.1613  1.2951 -0.3048
18159TIP3   OH275891   4.001   2.015   0.577 -0.2935  0.4165  0.0413
18159TIP3    H175892   3.980   2.108   0.589 -1.0541  0.4200 -1.1638
18159TIP3    H275893   4.002   2.003   0.482  3.3099 -0.0506  0.0109
18160TIP3   OH275894   3.057   1.838  12.595 -0.5995 -0.1661  0.3912
18160TIP3    H175895   3.033   1.831  12.503  1.4120  4.2739 -0.7484
18160TIP3    H275896   3.134   1.783  12.604 -0.6698 -0.4538 -0.6229
18161TIP3   OH275897   6.055   2.411  16.885 -0.8121  0.6151 -0.2437
18161TIP3    H175898   6.109   2.482  16.850  0.0320  0.0482 -0.1151
18161TIP3    H275899   6.093   2.392  16.971  1.1346 -2.2031 -1.5700
18162TIP3   OH275900   0.790   6.398  11.502  0.5512 -0.3090  0.3952
18162TIP3    H175901   0.814   6.332  11.437 -1.3504 -1.6204  0.9457
18162TIP3    H275902   0.751   6.468  11.450 -1.6210 -1.6581  0.0905
18163TIP3   OH275903   3.747   2.266  14.621 -0.1486  0.2900 -0.1955
18163TIP3    H175904   3.750   2.359  14.601 -2.7833  0.4831 -0.1054
18163TIP3    H275905   3.779   2.259  14.711 -0.2485  1.1711 -0.0874
18164TIP3   OH275906   1.332   2.613  14.967 -0.5701 -0.4780  0.3502
18164TIP3    H175907   1.332   2.707  14.987  0.2379 -0.4548  0.2832
18164TIP3    H275908   1.422   2.585  14.985 -0.1875 -0.7754 -1.7716
18165TIP3   OH275909   1.889   0.468   5.341  0.1440 -0.0799  0.4575
18165TIP3    H175910   1.938   0.387   5.327 -1.0547 -0.6358 -0.7551
18165TIP3    H275911   1.896   0.485   5.435  1.8802 -0.6173  0.4625
18166TIP3   OH275912   3.489   2.507   5.377 -0.0228  0.4717  0.2066
18166TIP3    H175913   3.457   2.417   5.383  1.7213 -0.0970  2.0444
18166TIP3    H275914   3.418   2.560   5.413 -0.8114 -0.2057 -0.3003
18167TIP3   OH275915   6.404   2.421  11.567  0.4856  0.4307  0.4190
18167TIP3    H175916   6.404   2.447  11.475  0.6291  2.0143  0.8273
18167TIP3    H275917   6.497   2.411  11.589  0.3978 -1.8819 -0.0803
18168TIP3   OH275918   6.364   3.656  13.450 -0.1021 -0.1859 -0.0045
18168TIP3    H175919   6.380   3.649  13.356 -0.3001  0.5469 -0.0925
18168TIP3    H275920   6.275   3.690  13.457 -0.6042 -1.5312  0.4709
18169TIP3   OH275921   4.815   2.502  14.620  0.3391  0.8643 -0.1466
18169TIP3    H175922   4.904   2.498  14.586  0.0150 -0.6887 -0.9214
18169TIP3    H275923   4.784   2.411  14.617 -1.1811  1.3295  0.3364
18170TIP3   OH275924   0.579   5.767   1.131 -0.0489 -0.3251  0.2272
18170TIP3    H175925   0.602   5.680   1.098  0.2553  0.7573 -2.6826
18170TIP3    H275926   0.526   5.806   1.062 -1.0787  1.4558  1.9200
18171TIP3   OH275927   1.415   4.950   5.138  1.1664 -0.5127 -0.0632
18171TIP3    H175928   1.458   4.920   5.058 -1.4142  1.6631 -2.5022
18171TIP3    H275929   1.352   4.881   5.159 -1.5838  0.8433 -2.9844
18172TIP3   OH275930   1.864   4.436  15.147 -0.0471 -0.3509 -0.7592
18172TIP3    H175931   1.810   4.437  15.226  2.4876  1.8273  1.1703
18172TIP3    H275932   1.930   4.369  15.164  1.7683  1.5147  0.0834
18173TIP3   OH275933   1.127   4.417   4.500  0.1954 -0.3932 -0.5047
18173TIP3    H175934   1.056   4.454   4.553  0.4114  1.9305 -1.6743
18173TIP3    H275935   1.205   4.431   4.553 -0.0395 -1.8213  0.2566
18174TIP3   OH275936   6.683   6.452  14.756  0.5044 -0.0395  0.7955
18174TIP3    H175937   6.669   6.375  14.701 -1.5521  0.9092 -0.1419
18174TIP3    H275938   6.737   6.421  14.829 -0.3767 -2.4060  0.5232
18175TIP3   OH275939   3.613   0.959   1.887  0.0803  0.3509  0.1526
18175TIP3    H175940   3.659   0.936   1.968  2.4790  1.1650 -0.8923
18175TIP3    H275941   3.563   0.880   1.865 -0.9982  0.2482  2.5845
18176TIP3   OH275942   5.142   3.333  13.073  0.3749  0.8756 -0.4677
18176TIP3    H175943   5.073   3.269  13.057  2.3405 -0.9101 -2.6344
18176TIP3    H275944   5.200   3.292  13.137  2.1259 -0.0544 -2.5221
18177TIP3   OH275945   1.029   4.873   5.409  0.2514 -0.3776  0.0954
18177TIP3    H175946   1.020   4.825   5.491  2.1980 -1.2750 -0.1628
18177TIP3    H275947   1.033   4.805   5.342 -3.5093  0.3576 -1.1096
18178TIP3   OH275948   0.380   0.973   0.218 -0.4391  0.3126 -0.0832
18178TIP3    H175949   0.447   1.041   0.218  0.7287 -0.8075 -0.5263
18178TIP3    H275950   0.359   0.960   0.311  0.1159  0.5130  0.0717
18179TIP3   OH275951   2.197   4.114  11.708  0.2533  0.2464 -0.1617
18179TIP3    H175952   2.240   4.029  11.701  0.3218  0.3184 -0.6492
18179TIP3    H275953   2.170   4.135  11.618 -1.8082 -0.3072  0.2952
18180TIP3   OH275954   5.872   4.248  14.584 -0.4219  0.2141 -0.3356
18180TIP3    H175955   5.844   4.180  14.645 -0.7921  1.3713  0.8212
18180TIP3    H275956   5.839   4.219  14.499 -0.1008 -1.3082  0.0276
18181TIP3   OH275957   2.016   5.075  17.135 -0.1913  0.0546  0.6374
18181TIP3    H175958   1.968   5.104  17.058 -0.8852  2.3070  1.8341
18181TIP3    H275959   2.032   4.982  17.119 -3.2578 -0.3813 -0.7011
18182TIP3   OH275960   6.056   3.974   0.904 -0.3868 -0.3190  0.5812
18182TIP3    H175961   6.006   3.893   0.894 -1.3541  0.4549 -1.4522
18182TIP3    H275962   6.002   4.029   0.960 -0.3317 -0.6114  0.9238
18183TIP3   OH275963   2.655   5.995  14.748 -0.0295 -0.2113  0.3572
18183TIP3    H175964   2.708   5.966  14.674  0.1718 -0.4544  0.5951
18183TIP3    H275965   2.578   5.939  14.747  0.2679 -0.6292  0.7020
18184TIP3   OH275966   0.749   5.002  13.594 -0.1070  0.0498  0.3090
18184TIP3    H175967   0.714   4.929  13.542  1.5819 -1.2307  0.8969
18184TIP3    H275968   0.736   5.079  13.539 -1.8511 -0.6800 -0.3751
18185TIP3   OH275969   6.542   2.588   3.344 -0.1037  0.1374  0.1146
18185TIP3    H175970   6.566   2.595   3.436 -0.3075  0.6309  0.1315
18185TIP3    H275971   6.561   2.497   3.321  0.5359  0.1746  0.4793
18186TIP3   OH275972   4.258   1.572  14.341 -0.2771  0.3738 -0.0208
18186TIP3    H175973   4.317   1.647  14.342 -0.8927  0.8971 -1.2566
18186TIP3    H275974   4.243   1.553  14.249 -1.4937 -0.1824  0.2628
18187TIP3   OH275975   2.846   2.653   1.406  0.1543  0.0818  0.6699
18187TIP3    H175976   2.835   2.596   1.329 -1.7216  0.5938  0.5003
18187TIP3    H275977   2.900   2.602   1.466 -0.8658 -1.6053  0.2264
18188TIP3   OH275978   2.394   4.595  16.430  0.5533  0.2218 -0.6846
18188TIP3    H175979   2.333   4.641  16.373 -1.1713  0.8029  1.4561
18188TIP3    H275980   2.457   4.662  16.457  0.9674  0.1071 -1.3460
18189TIP3   OH275981   5.867   3.363   2.400 -0.9008 -0.3972  0.1901
18189TIP3    H175982   5.814   3.434   2.364 -1.8075 -0.9886  0.3228
18189TIP3    H275983   5.817   3.283   2.381  0.4679 -1.0937 -0.6618
18190TIP3   OH275984   5.499   2.108   0.290 -0.1123 -0.1766  0.7604
18190TIP3    H175985   5.593   2.119   0.276 -0.1095  1.3488  1.6863
18190TIP3    H275986   5.480   2.020   0.259  1.5071 -0.2927 -0.0091
18191TIP3   OH275987   5.400   1.363   0.776  0.2670 -0.3603 -0.0944
18191TIP3    H175988   5.355   1.279   0.774 -1.9446  0.6643  1.7514
18191TIP3    H275989   5.330   1.428   0.771  1.6374  1.3594  1.6243
18192TIP3   OH275990   2.932   0.923   1.013  0.2232  0.3185  0.4694
18192TIP3    H175991   2.941   0.968   0.929  0.9281  0.2589  0.5084
18192TIP3    H275992   2.837   0.920   1.028  0.1481  1.6466  0.3941
18193TIP3   OH275993   6.268   3.275   5.048 -0.0648  0.5746 -0.2809
18193TIP3    H175994   6.330   3.339   5.083  1.0204 -0.7319  0.2556
18193TIP3    H275995   6.304   3.251   4.962  0.5963 -0.7254  0.3428
18194TIP3   OH275996   3.426   5.642   4.764  0.2594  0.5313 -0.6146
18194TIP3    H175997   3.443   5.576   4.831 -1.3333  0.8919  0.2057
18194TIP3    H275998   3.417   5.592   4.683 -0.6608 -0.2573 -0.0502
18195TIP3   OH275999   5.418   2.570   0.019 -0.3089  0.0011 -0.3920
18195TIP3    H176000   5.513   2.582   0.027 -0.3135  1.8775 -2.1558
18195TIP3    H276001   5.404   2.476   0.029  2.2756 -0.9764 -4.0585
18196TIP3   OH276002   5.615   3.043   3.067  0.3519 -0.2078  0.1202
18196TIP3    H176003   5.640   3.077   2.981  0.3417  3.0930  1.3096
18196TIP3    H276004   5.524   3.015   3.056  0.3396  0.2002 -0.9227
18197TIP3   OH276005   4.498   4.825   2.499  0.7841  0.7498  0.3313
18197TIP3    H176006   4.436   4.755   2.521 -1.3029  2.4564  0.2443
18197TIP3    H276007   4.460   4.868   2.422  1.6722  2.3240  0.7214
18198TIP3   OH276008   5.961   1.879   0.163  0.1195 -0.0461  0.2591
18198TIP3    H176009   5.975   1.961   0.210 -0.7414  0.0868  0.3102
18198TIP3    H276010   5.898   1.831   0.218  0.0839 -0.4365 -0.1185
18199TIP3   OH276011   4.180   2.385  14.790 -0.3004  0.7438  0.1719
18199TIP3    H176012   4.257   2.436  14.815  0.1646 -0.8558  2.2978
18199TIP3    H276013   4.121   2.390  14.865 -0.3337 -1.5379  0.3821
18200TIP3   OH276014   6.323   5.882  16.156  0.2101  0.1235 -0.2465
18200TIP3    H176015   6.350   5.940  16.084 -0.1986 -1.6466 -1.8954
18200TIP3    H276016   6.387   5.811  16.155  0.6276  0.4234  1.6636
18201TIP3   OH276017   6.430   6.148  14.818  0.4377  0.4674  0.0435
18201TIP3    H176018   6.459   6.145  14.909 -1.0606  1.0039  0.5701
18201TIP3    H276019   6.384   6.066  14.804  0.5770  0.4301 -0.2096
18202TIP3   OH276020   0.946   0.336  16.367 -0.0468  0.2021  0.0282
18202TIP3    H176021   0.864   0.312  16.413 -0.4317  1.1079 -0.1680
18202TIP3    H276022   1.015   0.305  16.425 -0.5328 -0.4093  0.2924
18203TIP3   OH276023   1.017   3.854   3.015 -0.2198 -0.2928 -0.4466
18203TIP3    H176024   0.934   3.810   2.995 -1.3445  0.7478  1.6271
18203TIP3    H276025   1.017   3.863   3.110  1.7893  0.7226 -0.4897
18204TIP3   OH276026   1.194   6.250  14.971  0.4324  0.2027  0.0103
18204TIP3    H176027   1.226   6.178  15.025  1.6143  0.1337 -0.7570
18204TIP3    H276028   1.132   6.297  15.028  0.1072 -1.0410  0.7243
18205TIP3   OH276029   3.554   1.147  17.020  0.2701  0.0684 -0.1067
18205TIP3    H176030   3.582   1.189  17.101  3.0184  0.0644 -0.9444
18205TIP3    H276031   3.490   1.207  16.983 -0.0857  0.6808  1.4324
18206TIP3   OH276032   5.709   4.018   2.346 -0.0166 -0.1067 -0.2635
18206TIP3    H176033   5.631   4.000   2.398 -0.6975  2.0947 -0.4097
18206TIP3    H276034   5.779   4.028   2.411 -0.6011  1.3529  0.1801
18207TIP3   OH276035   4.527   1.547  12.179 -0.0835 -0.5384  0.1004
18207TIP3    H176036   4.535   1.526  12.272  0.6682  0.0032  0.1701
18207TIP3    H276037   4.608   1.594  12.158 -1.6513  2.3277 -0.0281
18208TIP3   OH276038   2.481   3.396   3.596 -0.1012 -0.2521 -0.0745
18208TIP3    H176039   2.559   3.385   3.650  0.2568 -1.4170 -0.8037
18208TIP3    H276040   2.408   3.375   3.655  0.2479 -0.8588  0.1531
18209TIP3   OH276041   3.550   1.545  11.737  0.3639  0.2699  0.0003
18209TIP3    H176042   3.554   1.640  11.726 -1.4687  0.3449 -0.4080
18209TIP3    H276043   3.607   1.510  11.669 -1.4356  1.0471 -2.0098
18210TIP3   OH276044   2.711   1.763   3.095 -0.1926 -0.4669  0.2482
18210TIP3    H176045   2.718   1.671   3.121  0.6211 -0.6293 -0.4852
18210TIP3    H276046   2.726   1.812   3.175  0.9472 -0.9683  0.3604
18211TIP3   OH276047   3.717   4.075   3.745 -0.2788  0.4675 -0.2227
18211TIP3    H176048   3.714   4.167   3.771 -0.6250  0.1547  0.9027
18211TIP3    H276049   3.688   4.075   3.653  1.1819  1.6345 -0.7277
18212TIP3   OH276050   3.620   0.439  14.408  0.3398 -0.0303  0.0825
18212TIP3    H176051   3.702   0.486  14.398 -0.4044  0.9775 -1.9217
18212TIP3    H276052   3.552   0.506  14.397 -0.7575 -1.1727 -0.4018
18213TIP3   OH276053   5.601   3.153   2.536  0.2145 -0.1162 -0.3576
18213TIP3    H176054   5.668   3.085   2.527  1.0795  0.3911  1.6996
18213TIP3    H276055   5.524   3.107   2.569 -0.6095 -0.7294 -2.8790
18214TIP3   OH276056   5.616   4.887   5.944  0.1878  0.4147 -0.4248
18214TIP3    H176057   5.671   4.814   5.973  2.5889  1.2484 -2.5153
18214TIP3    H276058   5.632   4.956   6.009 -0.7936 -0.3200  0.6334
18215TIP3   OH276059   2.076   0.717  11.449  0.2269 -0.4678  0.0485
18215TIP3    H176060   2.095   0.670  11.367  0.4859  0.1334 -0.2404
18215TIP3    H276061   2.161   0.743  11.482  0.1854 -1.4091  0.9484
18216TIP3   OH276062   5.072   5.859  16.653  0.5469  0.0101  0.2773
18216TIP3    H176063   5.067   5.764  16.640  3.1033  0.1227 -2.4122
18216TIP3    H276064   5.040   5.896  16.571 -0.0126  1.5055  1.1356
18217TIP3   OH276065   6.369   5.526  16.434  0.4898  0.2453  0.0011
18217TIP3    H176066   6.435   5.487  16.377  0.1256 -1.2760  0.5677
18217TIP3    H276067   6.419   5.560  16.509  0.7686  0.4425 -0.2724
18218TIP3   OH276068   0.731   0.141  15.267 -0.2206  0.1215 -0.3076
18218TIP3    H176069   0.770   0.186  15.192 -1.6862  0.3245 -0.9756
18218TIP3    H276070   0.749   0.048  15.252  1.5722  0.3180  0.3490
18219TIP3   OH276071   1.055   2.438   3.874 -0.1360  0.5680  0.5418
18219TIP3    H176072   1.119   2.435   3.804 -0.2743 -1.5563  0.4546
18219TIP3    H276073   0.983   2.383   3.844 -0.4253  0.0146  2.1276
18220TIP3   OH276074   6.702   6.757  12.121 -0.2329 -0.4966 -0.2922
18220TIP3    H176075   6.774   6.700  12.148  0.8460  0.6244 -0.7464
18220TIP3    H276076   6.703   6.753  12.025 -1.7317 -1.6093 -0.3034
18221TIP3   OH276077   2.727   3.542  13.794 -0.2252 -0.3937  0.7076
18221TIP3    H176078   2.662   3.489  13.840  0.3024 -0.8285  0.9521
18221TIP3    H276079   2.802   3.484  13.782  0.7519  0.5813  1.8613
18222TIP3   OH276080   0.470   1.300   2.073  0.1038 -0.1065  0.2519
18222TIP3    H176081   0.420   1.227   2.108 -1.9731  0.3894 -1.5101
18222TIP3    H276082   0.415   1.336   2.003  2.4216  1.2300 -0.9963
18223TIP3   OH276083   3.147   4.684  16.314 -0.5531  0.0389  0.0476
18223TIP3    H176084   3.163   4.657  16.404  0.6971 -0.5962 -0.3466
18223TIP3    H276085   3.052   4.674  16.302 -0.4154 -2.3309  0.5146
18224TIP3   OH276086   6.657   2.909   1.350  0.0409  0.2598 -0.4466
18224TIP3    H176087   6.589   2.872   1.405  3.3451 -1.9901  2.5772
18224TIP3    H276088   6.675   2.995   1.389  0.1368  0.0882 -0.1116
18225TIP3   OH276089   4.807   6.473  14.528 -0.2772 -0.1976 -0.4551
18225TIP3    H176090   4.756   6.553  14.535 -0.0521 -0.1959  1.4760
18225TIP3    H276091   4.835   6.453  14.617 -1.4306 -3.1484 -0.6272
18226TIP3   OH276092   6.497   3.772  12.314 -0.8733 -0.5195  0.3207
18226TIP3    H176093   6.591   3.788  12.325 -0.5115 -1.1825 -1.3944
18226TIP3    H276094   6.455   3.826  12.381  0.6011  1.8795 -0.5684
18227TIP3   OH276095   5.188   5.371  13.659  0.1341 -0.1399 -0.6759
18227TIP3    H176096   5.240   5.451  13.649  2.0948 -1.3291 -0.5790
18227TIP3    H276097   5.136   5.366  13.578  2.1824 -0.2328 -2.0669
18228TIP3   OH276098   1.677   3.842  16.622 -0.0397 -0.2536 -0.7204
18228TIP3    H176099   1.772   3.851  16.616 -0.0346 -0.1479 -0.4906
18228TIP3    H276100   1.643   3.909  16.563  0.0125  0.7914  0.3929
18229TIP3   OH276101   5.633   3.065   3.660  0.2099  0.4073 -0.1652
18229TIP3    H176102   5.635   3.016   3.578  0.8128 -0.5710  0.4168
18229TIP3    H276103   5.705   3.127   3.654  0.5795 -0.0178 -0.1766
18230TIP3   OH276104   0.926   2.827  15.991  0.3121  0.2287  0.6017
18230TIP3    H176105   0.833   2.827  16.012  0.0946 -1.2485 -0.2106
18230TIP3    H276106   0.932   2.876  15.909  0.6628  2.7073  2.0108
18231TIP3   OH276107   1.463   0.184  13.196 -0.3780 -0.5056 -0.6985
18231TIP3    H176108   1.391   0.222  13.246  0.2968 -2.2285  1.7791
18231TIP3    H276109   1.538   0.240  13.215  0.0370 -1.5509  0.8676
18232TIP3   OH276110   1.068   0.667   2.882 -0.2772 -0.8706 -0.1181
18232TIP3    H176111   1.052   0.623   2.798 -0.4070 -1.0950  0.0246
18232TIP3    H276112   1.160   0.693   2.878 -0.3449 -0.6700 -0.4275
18233TIP3   OH276113   1.307   3.784   0.511  0.5555 -0.1878  0.2829
18233TIP3    H176114   1.354   3.786   0.428 -0.2923 -0.2864 -0.2090
18233TIP3    H276115   1.302   3.876   0.538 -1.3100  0.1396 -1.0277
18234TIP3   OH276116   4.102   1.739   1.052  0.3798 -0.1592 -0.2917
18234TIP3    H176117   4.090   1.796   1.127  0.6897 -0.2618 -0.1657
18234TIP3    H276118   4.013   1.709   1.031  0.3328 -0.3827  0.2267
18235TIP3   OH276119   5.989   6.058  12.501  0.5511  0.5220 -0.1945
18235TIP3    H176120   6.036   5.977  12.480  1.1068  0.7074  0.3141
18235TIP3    H276121   5.941   6.079  12.420 -0.2593 -0.7432 -0.0745
18236TIP3   OH276122   4.453   2.671   0.097  0.1050  0.2152 -0.0087
18236TIP3    H176123   4.503   2.720   0.162 -2.1758  2.7181  0.0082
18236TIP3    H276124   4.504   2.678   0.017  0.2748  1.8897  0.2253
18237TIP3   OH276125   0.245   0.580  15.957  0.0029  0.7411  0.0268
18237TIP3    H176126   0.297   0.500  15.957 -1.4413 -0.2372  0.7634
18237TIP3    H276127   0.268   0.624  15.875 -0.5377 -1.3605 -1.3168
18238TIP3   OH276128   2.240   6.629   5.082 -0.5789  0.4085  0.0946
18238TIP3    H176129   2.154   6.657   5.052 -0.0668  2.1852  0.1398
18238TIP3    H276130   2.283   6.594   5.004 -0.6787  1.2860 -0.3670
18239TIP3   OH276131   6.640   2.617   0.308 -0.1447 -0.0253 -0.2763
18239TIP3    H176132   6.599   2.605   0.222 -6.3196 -1.4173  2.3037
18239TIP3    H276133   6.655   2.528   0.340 -0.6571  0.3467  1.0804
18240TIP3   OH276134   0.629   2.679   5.912  0.1534  0.8863  0.2763
18240TIP3    H176135   0.670   2.593   5.925 -1.1695  0.2074  0.1180
18240TIP3    H276136   0.594   2.701   5.998  0.9407  1.5385  0.4470
18241TIP3   OH276137   3.687   1.306  11.993  0.1538 -0.0758 -0.1835
18241TIP3    H176138   3.666   1.214  11.976  0.5060 -0.3125  0.6228
18241TIP3    H276139   3.760   1.325  11.933  0.7981 -0.6432  0.4012
18242TIP3   OH276140   3.524   0.662  14.621 -0.4088 -0.3562  0.3853
18242TIP3    H176141   3.499   0.571  14.640 -2.6647  0.3607  1.2107
18242TIP3    H276142   3.611   0.671  14.659 -0.0249 -2.2314  0.0712
18243TIP3   OH276143   0.053   5.767   0.002  0.2766 -0.2931 -0.2111
18243TIP3    H176144   0.066   5.672  -0.005  0.9996 -0.2991  1.0408
18243TIP3    H276145   0.052   5.784   0.096  2.7957  1.2926 -0.3989
18244TIP3   OH276146   1.328   3.642   0.910 -0.1500 -0.1598 -0.2344
18244TIP3    H176147   1.243   3.631   0.953 -0.2868 -1.4201 -0.7691
18244TIP3    H276148   1.391   3.649   0.982 -0.7113  0.8995  0.1638
18245TIP3   OH276149   2.299   4.824  13.859 -0.0662 -0.1956 -0.2942
18245TIP3    H176150   2.270   4.884  13.790  1.3852 -1.4475 -2.0980
18245TIP3    H276151   2.393   4.815  13.845  0.0123 -1.6749  0.8956
18246TIP3   OH276152   4.760   2.133   4.640  0.0552 -0.1364 -0.1832
18246TIP3    H176153   4.718   2.182   4.711 -0.9070  2.0430 -2.1406
18246TIP3    H276154   4.828   2.082   4.684 -1.1192  0.3742  2.4103
18247TIP3   OH276155   0.184   3.141   0.308  0.5563 -0.0016 -0.4380
18247TIP3    H176156   0.201   3.151   0.401  1.8372  1.1941 -0.7553
18247TIP3    H276157   0.191   3.047   0.291 -1.3546 -0.4362  0.9286
18248TIP3   OH276158   1.587   6.244   2.372 -0.0030  0.2519  0.7503
18248TIP3    H176159   1.586   6.336   2.346  1.5311  0.1245  0.1325
18248TIP3    H276160   1.578   6.197   2.289  2.6378 -0.1466  0.6152
18249TIP3   OH276161   5.250   0.378  14.609  0.3767 -0.0062  0.2073
18249TIP3    H176162   5.304   0.325  14.667  0.3370  1.0267  1.2280
18249TIP3    H276163   5.310   0.442  14.571 -0.1125  1.3328  1.5702
18250TIP3   OH276164   2.596   1.394  13.294 -0.6144 -0.0750  0.2770
18250TIP3    H176165   2.550   1.422  13.373  0.9232  0.6952  0.9253
18250TIP3    H276166   2.599   1.472  13.238 -0.1539 -0.1351  0.2138
18251TIP3   OH276167   0.111   5.599   3.971 -0.3485 -0.6224 -0.3358
18251TIP3    H176168   0.030   5.644   3.947 -0.1738 -0.5723 -0.8525
18251TIP3    H276169   0.091   5.506   3.963 -0.5235 -0.6260  0.1098
18252TIP3   OH276170   0.405   1.420   1.581  0.3058 -0.0306 -0.4342
18252TIP3    H176171   0.408   1.474   1.502 -0.5008  0.0905 -0.3869
18252TIP3    H276172   0.497   1.414   1.608  0.6458 -0.4040 -1.5914
18253TIP3   OH276173   2.244   6.085   2.423 -0.0221  0.2248  0.9598
18253TIP3    H176174   2.290   6.007   2.454  0.0778 -0.3406 -0.5093
18253TIP3    H276175   2.184   6.108   2.493 -1.3653 -2.2657  0.7334
18254TIP3   OH276176   4.424   3.790  17.118  0.5495 -0.1905 -0.3563
18254TIP3    H176177   4.481   3.865  17.101 -1.5781  1.7893  0.6856
18254TIP3    H276178   4.446   3.762  17.206 -0.5151  1.0385  0.3260
18255TIP3   OH276179   4.723   3.810  15.214  0.2817  0.0816  0.2105
18255TIP3    H176180   4.734   3.800  15.119  1.2379  1.9482  0.0680
18255TIP3    H276181   4.809   3.838  15.244  0.0715 -0.7926  1.7050
18256TIP3   OH276182   2.378   1.985  16.421 -0.7204  0.4773 -0.6613
18256TIP3    H176183   2.445   1.955  16.482 -0.9432  0.5149 -0.3948
18256TIP3    H276184   2.360   2.075  16.447 -0.7216  0.5351 -0.8655
18257TIP3   OH276185   3.451   0.545   2.529 -0.2593  0.0404 -0.3516
18257TIP3    H176186   3.427   0.548   2.622 -0.1145  1.0092 -0.3349
18257TIP3    H276187   3.407   0.621   2.490  0.1453 -0.0247 -0.9546
18258TIP3   OH276188   4.134   6.453  13.601  0.3638  0.5102  0.2819
18258TIP3    H176189   4.143   6.545  13.577 -0.5794  0.3737 -0.6783
18258TIP3    H276190   4.058   6.422  13.551  0.2855 -0.6309  1.0596
18259TIP3   OH276191   4.335   2.640   3.019 -0.4268 -0.0312  0.4870
18259TIP3    H176192   4.398   2.647   2.948 -1.5964  2.1157 -0.4173
18259TIP3    H276193   4.317   2.546   3.025  0.0031 -0.3214 -1.7690
18260TIP3   OH276194   0.595   6.749   5.813 -0.1789 -0.9207 -0.2087
18260TIP3    H176195   0.520   6.790   5.770 -1.0352 -2.0469  0.1742
18260TIP3    H276196   0.621   6.678   5.753  1.0372 -0.1173 -0.6743
18261TIP3   OH276197   5.537   3.099  15.050 -0.5033 -0.1100 -0.1343
18261TIP3    H176198   5.471   3.167  15.060 -2.4867 -1.0182 -4.6837
18261TIP3    H276199   5.493   3.019  15.079 -0.2882 -0.3105 -0.3590
18262TIP3   OH276200   4.295   1.912  12.119 -0.1559  0.3835 -0.2984
18262TIP3    H176201   4.281   2.003  12.144  1.5052  0.2209  1.4738
18262TIP3    H276202   4.217   1.888  12.069 -1.0027  2.5069 -0.0849
18263TIP3   OH276203   5.745   1.611  12.050 -0.0102  0.0056 -0.1301
18263TIP3    H176204   5.702   1.649  11.973 -0.0915  1.1571  0.4601
18263TIP3    H276205   5.824   1.569  12.015  0.2606  1.0162 -0.7901
18264TIP3   OH276206   1.154   1.155  15.192 -0.0204  0.3108  0.1654
18264TIP3    H176207   1.063   1.126  15.201  0.1425  0.3254  2.7161
18264TIP3    H276208   1.192   1.096  15.126 -1.1502 -1.6142  1.1444
18265TIP3   OH276209   6.269   3.312   4.747  0.7946 -0.5126  0.3369
18265TIP3    H176210   6.186   3.317   4.699 -0.0409 -0.7134  1.6838
18265TIP3    H276211   6.282   3.401   4.780  2.0200 -0.0602 -1.2500
18266TIP3   OH276212   5.934   1.569  13.765 -0.3283  0.1379 -0.0599
18266TIP3    H176213   5.988   1.515  13.823  0.7491  1.6916  0.4583
18266TIP3    H276214   5.889   1.506  13.708  1.7264 -1.2400 -0.2568
18267TIP3   OH276215   0.636   0.767   2.989  0.2738  0.4445  1.0393
18267TIP3    H176216   0.606   0.858   2.986 -3.7606 -0.6513  2.0247
18267TIP3    H276217   0.592   0.724   2.916  0.9698 -0.9898  1.4250
18268TIP3   OH276218   3.467   1.405  13.248  0.4831 -0.6878 -0.1579
18268TIP3    H176219   3.516   1.396  13.166  1.9794  0.0975  0.6148
18268TIP3    H276220   3.531   1.388  13.316 -0.0552  1.3666  0.9298
18269TIP3   OH276221   1.613   6.708  15.444  0.1124 -0.0985 -0.4596
18269TIP3    H176222   1.688   6.734  15.390  1.8222 -0.2048  1.7170
18269TIP3    H276223   1.599   6.616  15.424  0.4115 -0.0296 -1.0159
18270TIP3   OH276224   0.455   2.120  15.668  0.1746  0.1225  0.0465
18270TIP3    H176225   0.413   2.192  15.716  0.7589  1.9598 -2.0334
18270TIP3    H276226   0.543   2.114  15.706  0.0371  0.3355  0.4045
18271TIP3   OH276227   2.741   5.863   3.042  0.3000  0.3982  0.2027
18271TIP3    H176228   2.687   5.942   3.045 -1.4632 -0.5578 -2.2785
18271TIP3    H276229   2.686   5.794   3.079  0.6764 -0.1720 -0.2655
18272TIP3   OH276230   1.848   3.066  15.553 -0.2092 -0.5121  0.4536
18272TIP3    H176231   1.879   3.073  15.644  0.2511 -1.0364  0.3376
18272TIP3    H276232   1.861   2.974  15.530  1.3562 -0.0317 -0.7384
18273TIP3   OH276233   4.617   2.182   0.016  0.0343  0.2781  0.0263
18273TIP3    H176234   4.658   2.111  -0.034  0.8091  0.6046  0.1732
18273TIP3    H276235   4.665   2.261  -0.010  1.6569  0.2245  2.5123
18274TIP3   OH276236   5.751   2.268  11.857 -0.1092 -0.3726  1.0061
18274TIP3    H176237   5.778   2.293  11.945  1.6322  1.0970  0.1286
18274TIP3    H276238   5.731   2.351  11.813 -0.0929 -1.0037 -0.2479
18275TIP3   OH276239   2.448   1.287  17.158 -0.0338 -0.1360 -0.0905
18275TIP3    H176240   2.477   1.362  17.106  0.7602 -0.8534 -0.7023
18275TIP3    H276241   2.434   1.323  17.246 -0.3016  0.8575 -0.5264
18276TIP3   OH276242   4.105   6.193   5.103  0.3240 -0.5872 -0.2788
18276TIP3    H176243   4.158   6.257   5.054 -1.7056  1.4312 -0.0392
18276TIP3    H276244   4.143   6.193   5.191 -0.7399  1.8858  0.2861
18277TIP3   OH276245   1.915   1.390  16.671  0.2439  0.1766 -0.4478
18277TIP3    H176246   1.836   1.375  16.618 -0.7142 -0.1585  1.0140
18277TIP3    H276247   1.984   1.341  16.625 -1.5200 -4.1553  1.0235
18278TIP3   OH276248   6.037   5.403  16.122  0.4947 -0.8753 -0.7195
18278TIP3    H176249   6.125   5.366  16.115  1.0086  0.2026 -0.2935
18278TIP3    H276250   6.040   5.458  16.201 -0.9553 -1.8184  0.0459
18279TIP3   OH276251   2.233   3.430   6.362  0.1483 -0.5375 -0.2621
18279TIP3    H176252   2.243   3.388   6.277 -1.0076 -0.6375 -0.3662
18279TIP3    H276253   2.165   3.379   6.406  0.1036  0.0518  0.3712
18280TIP3   OH276254   2.129   3.336   3.445  0.2403 -0.1503 -0.2816
18280TIP3    H176255   2.209   3.290   3.419 -0.0057 -0.7799  0.0482
18280TIP3    H276256   2.160   3.413   3.493  0.6557 -1.4079  1.5785
18281TIP3   OH276257   1.895   4.576  14.899  0.4363  0.0659 -0.1970
18281TIP3    H176258   1.908   4.669  14.920  1.8235  0.1048 -1.0736
18281TIP3    H276259   1.886   4.533  14.984  2.3653  0.6816  0.3821
18282TIP3   OH276260   2.808   5.499  10.557  0.0358 -0.3475  0.5121
18282TIP3    H176261   2.722   5.480  10.594 -0.2607  1.2171  0.6620
18282TIP3    H276262   2.805   5.591  10.532  1.5030 -0.3864  0.0527
18283TIP3   OH276263   1.761   0.228  16.104 -0.2263  0.1196  0.1490
18283TIP3    H176264   1.671   0.232  16.070 -0.3808 -1.3105  0.2929
18283TIP3    H276265   1.796   0.316  16.091 -1.6187  0.6830  0.0065
18284TIP3   OH276266   2.382   4.413  16.199 -0.0015 -0.5307  0.3925
18284TIP3    H176267   2.320   4.455  16.138 -3.0925 -3.0825  1.5030
18284TIP3    H276268   2.373   4.463  16.280 -0.3732 -0.6690  0.4400
18285TIP3   OH276269   2.756   5.107   4.475 -0.4614 -0.0942  0.5617
18285TIP3    H176270   2.845   5.142   4.482  0.4150 -2.3717  2.2735
18285TIP3    H276271   2.723   5.106   4.565 -1.9221 -0.0415  0.0580
18286TIP3   OH276272   0.340   2.751  10.958  0.2023  0.2043 -0.3245
18286TIP3    H176273   0.407   2.817  10.977  1.3284 -1.6537  2.8787
18286TIP3    H276274   0.390   2.672  10.935 -0.9360 -0.6213 -0.0292
18287TIP3   OH276275   6.128   3.429   4.223  0.5195  0.0005 -0.5889
18287TIP3    H176276   6.060   3.369   4.253 -0.5419  0.4538 -1.9988
18287TIP3    H276277   6.120   3.504   4.282 -0.7862  0.4100 -1.2455
18288TIP3   OH276278   0.224   1.932   1.642 -0.0565 -1.0167 -0.0898
18288TIP3    H176279   0.249   2.024   1.655 -1.5539 -0.8700  2.2959
18288TIP3    H276280   0.303   1.891   1.607  0.0465  1.5128 -3.3479
18289TIP3   OH276281   5.572   6.552   3.131  0.0412 -0.2714 -0.3528
18289TIP3    H176282   5.581   6.467   3.174  0.1897 -0.0721  0.0083
18289TIP3    H276283   5.494   6.542   3.076  1.1655 -1.2931 -1.8513
18290TIP3   OH276284   1.441   6.665  13.028  0.0161 -0.3778 -0.3198
18290TIP3    H176285   1.523   6.708  13.005 -0.0591 -0.7857 -1.3844
18290TIP3    H276286   1.441   6.664  13.124 -0.3891  2.7824 -0.1573
18291TIP3   OH276287   5.782   2.526   3.139  0.2042 -0.5678 -0.6182
18291TIP3    H176288   5.822   2.530   3.052 -0.8647 -1.7313 -1.2043
18291TIP3    H276289   5.737   2.610   3.149  0.9101 -0.1542 -0.8949
18292TIP3   OH276290   4.865   5.221   0.549  0.1927  0.5867 -0.6091
18292TIP3    H176291   4.809   5.254   0.479 -0.6426 -0.7107 -0.5688
18292TIP3    H276292   4.954   5.239   0.518 -0.1544 -0.0112 -2.0335
18293TIP3   OH276293   2.099   6.574  11.755 -0.1127  0.3898  0.0726
18293TIP3    H176294   2.136   6.620  11.680  0.6343  1.5269  1.1091
18293TIP3    H276295   2.005   6.591  11.749  0.1232  1.9834  0.3428
18294TIP3   OH276296   6.678   2.536   2.309 -0.4438 -0.5413 -0.0439
18294TIP3    H176297   6.747   2.475   2.336  0.2764  0.0306 -0.5337
18294TIP3    H276298   6.673   2.599   2.381  1.3402  0.8710 -1.0617
18295TIP3   OH276299   3.780   3.324  16.866 -0.7086  0.6111 -0.3935
18295TIP3    H176300   3.807   3.312  16.775  1.0819  0.1289  0.1583
18295TIP3    H276301   3.725   3.402  16.865 -0.0948  1.0529 -1.7881
18296TIP3   OH276302   2.138   6.030  13.730 -0.5151 -0.1001 -0.1169
18296TIP3    H176303   2.147   6.100  13.665 -0.3143 -0.2938 -0.2968
18296TIP3    H276304   2.222   5.984  13.727 -1.1206 -1.1746 -0.9302
18297TIP3   OH276305   3.259   4.502   0.051  0.0515  0.0132  0.1973
18297TIP3    H176306   3.324   4.466   0.112  0.4839  0.8080  0.2200
18297TIP3    H276307   3.305   4.507  -0.033 -0.3383 -0.4654 -0.0484
18298TIP3   OH276308   3.153   0.284  14.845  0.6294 -0.4277 -0.1640
18298TIP3    H176309   3.165   0.364  14.794 -3.0839  0.0402 -0.5824
18298TIP3    H276310   3.159   0.313  14.936  1.7839 -0.1966 -0.3024
18299TIP3   OH276311   2.818   4.849  14.114 -0.1459  0.1297  0.0597
18299TIP3    H176312   2.876   4.870  14.041  0.7811 -0.5314  0.5938
18299TIP3    H276313   2.739   4.901  14.097  0.9406  1.7527 -0.1876
18300TIP3   OH276314   2.209   4.704  10.828 -0.2730 -0.3090 -0.2824
18300TIP3    H176315   2.142   4.759  10.868 -0.3524  0.0195 -0.8456
18300TIP3    H276316   2.274   4.766  10.794 -0.1193 -0.5804 -0.4947
18301TIP3   OH276317   2.568   1.407  16.750 -0.1308 -0.6530  0.0413
18301TIP3    H176318   2.555   1.401  16.655  1.3767 -1.8576 -0.1259
18301TIP3    H276319   2.628   1.481  16.762 -0.1833 -0.6098  0.0362
18302TIP3   OH276320   3.775   6.739  13.179 -0.0469 -0.1336 -0.2811
18302TIP3    H176321   3.784   6.648  13.152 -1.1039 -0.3450  0.0259
18302TIP3    H276322   3.688   6.765  13.147 -0.5405  0.1741  1.2041
18303TIP3   OH276323   5.901   2.224   0.597  0.6530  0.5339  0.0925
18303TIP3    H176324   5.985   2.178   0.595  0.9978  1.0746  1.4801
18303TIP3    H276325   5.843   2.165   0.644  0.2845  0.2559 -0.6830
18304TIP3   OH276326   5.219   3.394  14.270  0.0582  0.2702 -0.2506
18304TIP3    H176327   5.298   3.385  14.216  1.1697 -0.1797  1.3505
18304TIP3    H276328   5.155   3.337  14.228  0.7283  0.3016 -1.3596
18305TIP3   OH276329   6.369   0.226   3.508 -0.2465  0.0651 -0.2750
18305TIP3    H176330   6.365   0.321   3.504  0.8809  0.1152 -0.3780
18305TIP3    H276331   6.377   0.198   3.417  0.0273 -0.0964 -0.2035
18306TIP3   OH276332   0.792   1.968   2.924  0.0634 -0.1757 -0.5070
18306TIP3    H176333   0.805   1.910   2.999 -0.2893 -0.1469 -0.4245
18306TIP3    H276334   0.832   2.051   2.951 -2.3704  0.6758  0.7072
18307TIP3   OH276335   2.658   6.229  16.972  0.0360  1.0380  0.3443
18307TIP3    H176336   2.581   6.242  16.916  0.3819  2.0696  0.0867
18307TIP3    H276337   2.624   6.236  17.061 -0.6835 -1.5164  0.3501
18308TIP3   OH276338   1.603   5.035  16.861 -0.1831 -0.3231  0.1797
18308TIP3    H176339   1.562   4.977  16.797 -0.9932  1.5634 -1.1265
18308TIP3    H276340   1.530   5.067  16.914  0.0060  0.6651 -0.1333
18309TIP3   OH276341   5.198   3.439  17.230 -0.1528  0.7089  0.7040
18309TIP3    H176342   5.210   3.488  17.311 -0.6792  2.2908 -0.1324
18309TIP3    H276343   5.286   3.406  17.208  0.0583  0.5881  1.7008
18310TIP3   OH276344   5.901   3.192  12.409  0.3783 -0.0248 -0.6002
18310TIP3    H176345   5.811   3.195  12.442  0.9567 -1.0662  1.1798
18310TIP3    H276346   5.891   3.178  12.315 -1.3230  0.2454 -0.4909
18311TIP3   OH276347   1.414   4.339   4.581  0.0255 -0.0885  0.7531
18311TIP3    H176348   1.358   4.311   4.654 -0.9543  0.3764  0.2085
18311TIP3    H276349   1.455   4.258   4.550 -1.2127 -0.6418  0.4773
18312TIP3   OH276350   4.855   5.766  13.438 -0.2117  0.0598  0.3203
18312TIP3    H176351   4.872   5.675  13.414  0.9160  0.2532  0.2941
18312TIP3    H276352   4.794   5.761  13.512  0.9064 -0.7964  1.2269
18313TIP3   OH276353   1.615   4.544   4.542 -0.1579 -0.0239  0.0859
18313TIP3    H176354   1.554   4.599   4.592 -0.8833 -1.2522  0.6048
18313TIP3    H276355   1.609   4.458   4.584  1.2306 -0.4124 -0.4678
18314TIP3   OH276356   1.516   5.239   2.458 -0.2663  0.2795  0.2939
18314TIP3    H176357   1.527   5.147   2.434  1.4729  0.9057 -1.5588
18314TIP3    H276358   1.421   5.251   2.466 -0.6864 -1.1023 -1.9325
18315TIP3   OH276359   3.335   4.432  15.995  0.0259  0.0909 -0.3039
18315TIP3    H176360   3.290   4.503  15.950  0.1743  1.3058  1.3593
18315TIP3    H276361   3.426   4.440  15.968  0.1480  0.9314  0.3080
18316TIP3   OH276362   3.305   6.627   6.599  0.2345 -0.2671  0.4234
18316TIP3    H176363   3.241   6.567   6.560  1.1183 -0.5031 -0.7298
18316TIP3    H276364   3.282   6.712   6.562  0.7414 -0.3991 -0.2116
18317TIP3   OH276365   0.436   2.947  14.816  0.8224  0.4781 -0.1897
18317TIP3    H176366   0.532   2.941  14.808  0.9907  1.7043  0.6175
18317TIP3    H276367   0.412   2.871  14.869  1.1468 -0.6674 -1.6202
18318TIP3   OH276368   5.180   2.944   4.885 -0.2450  0.2273  0.2013
18318TIP3    H176369   5.126   3.015   4.920 -0.1015 -0.0228  0.9464
18318TIP3    H276370   5.192   2.884   4.959 -0.7802 -0.8318 -0.5398
18319TIP3   OH276371   4.613   6.178  16.896 -0.4702  0.5529  0.6531
18319TIP3    H176372   4.664   6.182  16.977  0.8033 -1.1825 -0.0192
18319TIP3    H276373   4.675   6.150  16.830 -2.3757 -2.1903 -0.1185
18320TIP3   OH276374   5.909   1.949  12.489 -0.0247  0.4212 -0.1685
18320TIP3    H176375   5.839   1.909  12.438  1.6513  0.0144 -2.2905
18320TIP3    H276376   5.931   2.029  12.442  0.0720  1.2524  1.2205
18321TIP3   OH276377   2.280   2.133  13.814 -0.2211  0.1077  0.5685
18321TIP3    H176378   2.369   2.122  13.779 -0.8704 -1.2502 -0.8107
18321TIP3    H276379   2.279   2.082  13.894 -0.1561 -1.1846 -0.2221
18322TIP3   OH276380   2.386   3.439  11.213  0.5438 -0.0781 -0.3489
18322TIP3    H176381   2.476   3.469  11.203  0.4095  1.5761  2.3207
18322TIP3    H276382   2.392   3.360  11.266  0.3804  0.8971  1.1584
18323TIP3   OH276383   4.816   3.683   3.891 -0.3093 -0.0360  0.0187
18323TIP3    H176384   4.847   3.691   3.981 -0.4469 -0.5749  0.1192
18323TIP3    H276385   4.834   3.768   3.852  3.0349 -0.8477 -0.5034
18324TIP3   OH276386   5.007   2.380  12.179 -0.1611  0.7540  0.1961
18324TIP3    H176387   4.912   2.371  12.167 -0.1621  0.7010  0.2418
18324TIP3    H276388   5.044   2.348  12.097 -0.2306  2.1650 -0.4099
18325TIP3   OH276389   4.638   5.336   5.826 -0.0095  0.0627  0.0462
18325TIP3    H176390   4.720   5.348   5.874  0.4564 -1.4752 -0.2986
18325TIP3    H276391   4.665   5.296   5.743 -0.9721  1.0165 -0.7405
18326TIP3   OH276392   2.486   4.636  15.580 -0.0716  0.1461  0.3661
18326TIP3    H176393   2.467   4.554  15.624  2.0938 -2.0351 -2.3802
18326TIP3    H276394   2.400   4.668  15.551 -0.8881 -1.6959  0.6274
18327TIP3   OH276395   4.537   5.162  12.855 -0.5294 -0.0858  0.7059
18327TIP3    H176396   4.521   5.220  12.930  2.7823  0.3312  1.2418
18327TIP3    H276397   4.549   5.075  12.894  0.2912 -0.0360  0.5764
18328TIP3   OH276398   6.628   5.389   1.520 -0.0925 -0.1151  0.0338
18328TIP3    H176399   6.583   5.306   1.535 -1.3760  0.5541  0.0742
18328TIP3    H276400   6.604   5.443   1.595 -1.2780  1.0789 -1.1226
18329TIP3   OH276401   0.793   3.794   2.328  0.2878 -0.8438 -0.1436
18329TIP3    H176402   0.737   3.837   2.264 -0.1137  0.4546  1.0270
18329TIP3    H276403   0.874   3.775   2.280 -0.8047 -2.0427 -1.6399
18330TIP3   OH276404   1.735   5.605   5.295 -0.4723 -0.3054 -0.5655
18330TIP3    H176405   1.700   5.596   5.384 -0.5909 -1.3118 -0.6972
18330TIP3    H276406   1.818   5.558   5.298  0.0760  0.6321 -0.6994
18331TIP3   OH276407   3.426   5.030  15.550 -0.3152  0.2515  0.3317
18331TIP3    H176408   3.398   5.101  15.493 -0.2186 -0.1670 -0.2477
18331TIP3    H276409   3.444   5.072  15.634 -0.8311  0.8150  0.1675
18332TIP3   OH276410   4.694   1.212   5.842 -0.1287 -0.5036  0.5640
18332TIP3    H176411   4.782   1.210   5.805 -0.5398  0.6450 -0.5543
18332TIP3    H276412   4.686   1.130   5.890  1.0032 -1.3567 -0.6344
18333TIP3   OH276413   3.168   5.327  16.341 -0.1568 -0.0010  0.0642
18333TIP3    H176414   3.085   5.371  16.324  0.1462  0.7979  0.5926
18333TIP3    H276415   3.235   5.393  16.322  0.3341 -0.4180  0.2902
18334TIP3   OH276416   3.175   4.197  14.027  0.3821 -0.2356  0.5358
18334TIP3    H176417   3.103   4.246  13.989 -0.2233 -0.2973  1.5553
18334TIP3    H276418   3.133   4.122  14.069  1.4190 -2.8794 -2.7005
18335TIP3   OH276419   3.101   2.555  11.910  0.2349  0.4935  0.3391
18335TIP3    H176420   3.192   2.579  11.892  0.2626  0.2611  0.1770
18335TIP3    H276421   3.084   2.478  11.856 -0.2799  0.9551 -0.1780
18336TIP3   OH276422   6.699   3.403  14.201 -0.9798  0.0338  0.1252
18336TIP3    H176423   6.737   3.372  14.119  1.3056  0.0211  1.1328
18336TIP3    H276424   6.641   3.333  14.229 -0.2933 -0.7999 -0.5006
18337TIP3   OH276425   0.798   3.076  12.952  0.1039 -0.4284  0.0394
18337TIP3    H176426   0.852   3.003  12.981 -0.9463 -0.4388  2.0984
18337TIP3    H276427   0.719   3.036  12.916 -0.8585 -0.3516  1.9629
18338TIP3   OH276428   1.405   0.428  15.183 -0.1902  0.3800  0.2371
18338TIP3    H176429   1.404   0.476  15.100  0.2069  0.0910  0.0623
18338TIP3    H276430   1.390   0.337  15.159 -3.7398  0.6688  0.7995
18339TIP3   OH276431   5.601   5.385  11.421  0.0430 -0.0183 -0.1937
18339TIP3    H176432   5.643   5.447  11.361  1.8045 -0.7785  0.2098
18339TIP3    H276433   5.659   5.309  11.423 -0.6968 -0.5940  1.3781
18340TIP3   OH276434   6.604   5.243  14.509  0.3309  0.6376 -0.3449
18340TIP3    H176435   6.619   5.322  14.457 -1.0713  2.6036  2.0659
18340TIP3    H276436   6.666   5.250  14.582  2.7857 -2.4361 -1.8659
18341TIP3   OH276437   3.690   2.586   2.056  0.3596  0.2324  0.1683
18341TIP3    H176438   3.673   2.509   2.002 -1.3120  1.0795 -0.5888
18341TIP3    H276439   3.743   2.553   2.129  1.4142 -1.2203 -1.1862
18342TIP3   OH276440   5.699   0.688  11.004  0.1547  0.1507  0.4711
18342TIP3    H176441   5.790   0.669  10.981 -0.4845 -0.6145 -1.6931
18342TIP3    H276442   5.681   0.633  11.080  1.0356 -0.9654 -0.0914
18343TIP3   OH276443   5.201   4.753   1.304  0.1827 -0.2204  0.5753
18343TIP3    H176444   5.140   4.779   1.372  0.3361  0.4429  0.4624
18343TIP3    H276445   5.273   4.816   1.311 -1.4850  2.2939 -2.6323
18344TIP3   OH276446   2.946   2.132  15.447  0.2163 -0.2473 -0.2203
18344TIP3    H176447   2.890   2.167  15.516 -0.0233 -0.7551 -0.1514
18344TIP3    H276448   2.986   2.054  15.486  0.0715 -0.5431 -0.6486
18345TIP3   OH276449   6.485   3.077  12.155  0.1905 -0.1551  0.3115
18345TIP3    H176450   6.520   3.078  12.066  1.3501 -0.2892  0.7515
18345TIP3    H276451   6.410   3.137  12.152  0.8868  0.6995 -0.4901
18346TIP3   OH276452   1.942   3.398   0.397 -0.0316  0.1489  0.3564
18346TIP3    H176453   1.885   3.473   0.380 -1.0775 -0.3368  1.5472
18346TIP3    H276454   1.886   3.335   0.442  1.2297 -0.7159  0.7774
18347TIP3   OH276455   4.375   1.873   3.993  0.0246  0.3748 -0.3343
18347TIP3    H176456   4.371   1.903   4.084  0.0409  1.8227 -0.7878
18347TIP3    H276457   4.459   1.905   3.961 -0.7617  1.4749 -1.3734
18348TIP3   OH276458   4.390   1.451   0.230  0.0791 -0.6944 -0.0315
18348TIP3    H176459   4.392   1.361   0.196  0.5019 -0.4856 -0.5574
18348TIP3    H276460   4.439   1.446   0.312 -0.0998 -0.9928  0.0600
18349TIP3   OH276461   3.444   2.163   3.273 -0.1516  0.1146  0.1166
18349TIP3    H176462   3.470   2.095   3.211  0.4643  0.8177 -0.4283
18349TIP3    H276463   3.520   2.173   3.331 -0.8651 -0.7967  1.2369
18350TIP3   OH276464   2.874   3.858   5.790  0.5592 -0.0692 -0.1457
18350TIP3    H176465   2.890   3.782   5.733 -0.5398  0.3579 -1.0534
18350TIP3    H276466   2.779   3.870   5.789  0.7124  1.3184 -0.0079
18351TIP3   OH276467   2.098   6.695   5.570 -0.2996  0.3700  0.0309
18351TIP3    H176468   2.025   6.680   5.630 -0.9101  1.0093 -0.5348
18351TIP3    H276469   2.159   6.624   5.589 -0.8689  0.0702  0.8123
18352TIP3   OH276470   3.328   0.197   4.841  0.5962 -0.3820 -0.1057
18352TIP3    H176471   3.250   0.154   4.804 -0.0913  0.2590  0.5605
18352TIP3    H276472   3.387   0.124   4.861 -0.0196 -0.9199 -0.1903
18353TIP3   OH276473   6.495   2.573   5.046 -0.3768 -0.1072  0.4876
18353TIP3    H176474   6.417   2.605   5.001 -1.4574 -0.5928  1.9391
18353TIP3    H276475   6.461   2.517   5.116  1.3418 -1.8110  0.0473
18354TIP3   OH276476   4.302   3.302   5.929  0.5752  0.0346  0.3746
18354TIP3    H176477   4.326   3.334   5.842 -1.8785  1.7277  0.1951
18354TIP3    H276478   4.384   3.302   5.978  2.0296 -1.0171 -1.9066
18355TIP3   OH276479   5.490   0.933   1.607 -1.0937  0.1263  0.1058
18355TIP3    H176480   5.485   0.975   1.693  0.0092 -0.2917  0.3990
18355TIP3    H276481   5.526   1.000   1.549  0.2867 -0.2586  0.4840
18356TIP3   OH276482   1.379   1.953   3.489 -0.2580 -0.0183 -0.1850
18356TIP3    H176483   1.287   1.978   3.482 -0.3831 -0.3544  0.1861
18356TIP3    H276484   1.418   1.979   3.405 -0.7716 -0.2018 -0.4838
18357TIP3   OH276485   2.078   0.456   1.273  0.2641 -0.2396  0.5603
18357TIP3    H176486   1.991   0.493   1.258  1.2050  2.2458  0.8332
18357TIP3    H276487   2.072   0.414   1.358 -0.4802  0.6043  0.9394
18358TIP3   OH276488   0.291   0.404  11.037  0.1192 -0.2539 -0.4118
18358TIP3    H176489   0.231   0.448  10.977  1.0962  2.7108  0.6016
18358TIP3    H276490   0.368   0.384  10.985 -0.0889 -0.1904 -0.7448
18359TIP3   OH276491   6.248   5.018  15.956  0.0027  0.1868 -0.1525
18359TIP3    H176492   6.339   4.991  15.968 -1.0325 -3.4918  0.6806
18359TIP3    H276493   6.223   5.055  16.041  1.1798  3.2511 -1.0150
18360TIP3   OH276494   4.849   4.747  15.115  0.0099  0.3096  0.6441
18360TIP3    H176495   4.929   4.784  15.077  0.1251 -2.5130 -2.3602
18360TIP3    H276496   4.778   4.797  15.076  0.2459  0.4355  0.3728
18361TIP3   OH276497   2.484   0.747  12.584 -0.3343  0.0059  0.1333
18361TIP3    H176498   2.400   0.750  12.538 -0.5744 -1.4037  0.4306
18361TIP3    H276499   2.463   0.713  12.671  0.0654  2.8586  1.4821
18362TIP3   OH276500   5.059   0.124   4.814 -0.3517  0.4372 -0.6491
18362TIP3    H176501   5.139   0.075   4.834 -0.3025  0.8149  0.1149
18362TIP3    H276502   5.037   0.098   4.725 -0.1017 -0.6588 -0.4081
18363TIP3   OH276503   2.464   2.352   1.118  0.8225 -0.2617 -0.2478
18363TIP3    H176504   2.470   2.330   1.025  0.2063 -2.1409  0.1073
18363TIP3    H276505   2.375   2.385   1.129  0.9145  0.0162 -0.3336
18364TIP3   OH276506   5.436   3.607   0.607 -0.0716 -0.5146  0.5893
18364TIP3    H176507   5.531   3.616   0.612 -0.1246  1.3632 -0.7307
18364TIP3    H276508   5.402   3.684   0.652 -0.9104 -0.3316 -0.3080
18365TIP3   OH276509   0.623   3.189   1.624  0.0658 -0.4438 -0.5502
18365TIP3    H176510   0.703   3.204   1.675  0.0292 -2.1498  0.0804
18365TIP3    H276511   0.564   3.144   1.685 -0.5622 -1.1550 -1.6526
18366TIP3   OH276512   1.106   3.946   5.107  0.2269 -0.1668  0.4161
18366TIP3    H176513   1.036   3.903   5.057 -0.6202  2.0288 -0.3967
18366TIP3    H276514   1.060   3.995   5.175  0.8636  1.8344 -0.5263
18367TIP3   OH276515   4.597   0.138   4.200  0.7532 -0.5825  0.1277
18367TIP3    H176516   4.547   0.170   4.124  1.7241 -0.7663 -0.6128
18367TIP3    H276517   4.605   0.044   4.185  0.2895 -0.7525  0.8762
18368TIP3   OH276518   0.021   5.587   6.160 -0.4696  0.5614 -0.2343
18368TIP3    H176519  -0.065   5.629   6.149 -0.7497 -0.2096 -1.0407
18368TIP3    H276520   0.084   5.655   6.135 -0.9152  0.5507 -1.4087
18369TIP3   OH276521   3.677   5.580  14.012 -0.3562 -0.0060 -0.4903
18369TIP3    H176522   3.664   5.488  13.991  1.4176 -0.0604 -1.5845
18369TIP3    H276523   3.743   5.580  14.081 -0.6843  0.4331 -0.1740
18370TIP3   OH276524   5.878   5.649  14.197 -0.7095  0.4212 -0.1351
18370TIP3    H176525   5.876   5.602  14.280 -0.1579 -0.1670 -0.4470
18370TIP3    H276526   5.933   5.726  14.216  2.1605 -1.3158 -0.7231
18371TIP3   OH276527   4.582   0.664  15.671  0.6708 -0.5982 -0.0357
18371TIP3    H176528   4.622   0.586  15.709  3.0857  0.3686 -0.4014
18371TIP3    H276529   4.639   0.688  15.598  0.9290  2.3508  0.9869
18372TIP3   OH276530   6.031   2.831   4.064 -0.4507 -0.4443 -0.2915
18372TIP3    H176531   5.967   2.872   4.006 -0.2957  0.3147  0.0665
18372TIP3    H276532   6.088   2.782   4.006  1.7543  2.9311 -1.2512
18373TIP3   OH276533   3.906   2.120  12.343 -0.1662 -0.2284 -0.3449
18373TIP3    H176534   3.930   2.071  12.422 -0.8864  1.3873  0.9351
18373TIP3    H276535   3.954   2.203  12.351 -0.3332  0.0056 -1.5709
18374TIP3   OH276536   6.606   3.477   6.388  0.4822  0.3461  0.4781
18374TIP3    H176537   6.522   3.513   6.418  0.1372 -0.3076  0.3145
18374TIP3    H276538   6.618   3.515   6.301 -1.3094 -2.0993 -0.9567
18375TIP3   OH276539   1.668   4.958  14.451 -0.1574 -0.1023 -0.0402
18375TIP3    H176540   1.733   4.946  14.382  1.2229  2.0620  0.8008
18375TIP3    H276541   1.670   4.876  14.501  1.1942 -0.4482 -0.6229
18376TIP3   OH276542   3.071   4.744   6.508  0.1780 -0.5872  0.1202
18376TIP3    H176543   3.141   4.785   6.558  2.2797 -1.1304 -2.1975
18376TIP3    H276544   3.033   4.815   6.457  0.7337 -0.6833 -0.4477
18377TIP3   OH276545   3.230   0.176  13.379 -0.0544 -0.4231  0.0187
18377TIP3    H176546   3.296   0.125  13.426  2.3708  2.7070  0.3586
18377TIP3    H276547   3.251   0.163  13.286  0.6128 -0.0346  0.1066
18378TIP3   OH276548   0.132   3.202   4.305  0.8508  0.0036 -0.0975
18378TIP3    H176549   0.109   3.110   4.312 -0.3207  0.3255  0.4757
18378TIP3    H276550   0.148   3.231   4.395  1.4018  0.3228 -0.2888
18379TIP3   OH276551   0.569   0.350   6.261  0.1589  0.1304  0.1953
18379TIP3    H176552   0.478   0.321   6.270 -0.0930  0.7786 -0.1686
18379TIP3    H276553   0.613   0.314   6.338  0.0560 -1.8648 -0.6270
18380TIP3   OH276554   1.358   0.329   3.890  0.9170  0.5664 -0.4284
18380TIP3    H176555   1.342   0.403   3.832  1.4057  0.2536 -0.9760
18380TIP3    H276556   1.353   0.252   3.834 -0.2752  0.1101  0.2645
18381TIP3   OH276557   2.534   2.679   2.199 -0.1345 -0.2603  0.9005
18381TIP3    H176558   2.594   2.610   2.169 -0.5894 -0.7670  1.1369
18381TIP3    H276559   2.474   2.692   2.126  1.3948  1.6258 -0.1230
18382TIP3   OH276560   2.757   4.087  14.317 -0.0569  0.0993 -0.1969
18382TIP3    H176561   2.820   4.155  14.295  1.0147 -0.5409  0.7189
18382TIP3    H276562   2.708   4.071  14.237  2.0722 -0.5227 -1.4467
18383TIP3   OH276563   1.669   5.249  14.665 -0.0628  0.7284  0.1774
18383TIP3    H176564   1.697   5.192  14.737 -0.1887  1.4328  0.7911
18383TIP3    H276565   1.574   5.258  14.678 -0.0941  0.8222 -0.1079
18384TIP3   OH276566   2.527   1.497  16.476  0.5673  0.4568 -0.5585
18384TIP3    H176567   2.531   1.451  16.392  0.0480  1.4138 -1.1222
18384TIP3    H276568   2.437   1.528  16.482  0.5546  0.2704  0.4353
18385TIP3   OH276569   0.668   3.178  14.160 -0.6971  0.3771 -0.4627
18385TIP3    H176570   0.596   3.200  14.219 -0.5189  1.3741 -0.6007
18385TIP3    H276571   0.739   3.237  14.185 -0.6089  0.8029 -1.6453
18386TIP3   OH276572   5.616   1.941  14.974 -0.0370  0.5345 -0.1263
18386TIP3    H176573   5.554   1.987  14.917  0.0647  1.3245  0.3862
18386TIP3    H276574   5.614   1.990  15.056  2.0442  1.2172 -0.4223
18387TIP3   OH276575   6.262   3.546   4.871  0.0111 -0.2911  0.2967
18387TIP3    H176576   6.198   3.589   4.927  0.3333 -1.1758  1.3825
18387TIP3    H276577   6.336   3.526   4.929 -0.1506 -2.3470 -0.1260
18388TIP3   OH276578   3.821   5.500  13.662 -0.1454  0.9085  0.5335
18388TIP3    H176579   3.907   5.479  13.698 -0.2304 -0.1717  0.1390
18388TIP3    H276580   3.836   5.578  13.609  0.4819  1.0295  0.8672
18389TIP3   OH276581   3.437   2.055  11.555  0.1227 -0.0176 -0.4724
18389TIP3    H176582   3.502   1.984  11.556  0.3050  0.0969 -1.7707
18389TIP3    H276583   3.377   2.031  11.484 -0.7873  0.3026  0.1709
18390TIP3   OH276584   2.952   3.938  12.356 -0.3639 -0.0120 -0.3380
18390TIP3    H176585   2.971   4.032  12.353 -0.3068  0.0805  1.6246
18390TIP3    H276586   2.870   3.931  12.405  0.7470 -1.0523  1.5102
18391TIP3   OH276587   1.941   0.015  13.796  0.2879  0.2922  0.3981
18391TIP3    H176588   1.923  -0.021  13.709 -0.0901 -0.7387  0.8948
18391TIP3    H276589   1.977   0.102  13.778  1.4704 -0.4086 -0.8374
18392TIP3   OH276590   0.748   0.217   5.886  0.0401 -0.7480 -0.1558
18392TIP3    H176591   0.688   0.152   5.849 -1.8150  2.3122 -3.1199
18392TIP3    H276592   0.835   0.188   5.858 -0.6932 -2.0308 -1.2349
18393TIP3   OH276593   1.653   5.576  14.961 -0.3296  0.6047  0.4020
18393TIP3    H176594   1.662   5.611  14.872  0.8631 -0.6976 -0.0318
18393TIP3    H276595   1.713   5.502  14.963 -1.3061 -0.1886  1.8966
18394TIP3   OH276596   0.345   3.803   0.768  0.0432 -0.5559 -0.0040
18394TIP3    H176597   0.284   3.748   0.720  0.3147 -0.8971  0.0334
18394TIP3    H276598   0.424   3.806   0.713  0.4725 -1.2163  0.5584
18395TIP3   OH276599   1.541   5.850   5.657  0.2444 -0.1595 -0.2964
18395TIP3    H176600   1.463   5.905   5.661 -0.5971 -1.3631  0.1900
18395TIP3    H276601   1.563   5.833   5.749  2.3333  1.8222 -0.3070
18396TIP3   OH276602   0.572   2.395  12.497 -0.1823  0.1538 -0.2832
18396TIP3    H176603   0.481   2.372  12.518  0.5277 -1.9411  0.8356
18396TIP3    H276604   0.588   2.356  12.411 -0.0040 -0.5696  0.0693
18397TIP3   OH276605   4.573   4.738   4.165 -0.0387  0.0103  0.1418
18397TIP3    H176606   4.509   4.744   4.236 -0.2636  0.8546 -0.1247
18397TIP3    H276607   4.544   4.803   4.101  0.8728  0.1419 -0.1485
18398TIP3   OH276608   6.647   5.634  13.821 -0.3156  0.3623  0.4281
18398TIP3    H176609   6.707   5.704  13.796 -1.2072  1.4065  1.1203
18398TIP3    H276610   6.577   5.637  13.756  1.4910 -2.4948 -1.9153
18399TIP3   OH276611   1.160   3.106  12.930  0.1485  0.3576 -0.4588
18399TIP3    H176612   1.222   3.033  12.924  1.4053  1.1888  1.4567
18399TIP3    H276613   1.165   3.149  12.845  1.7105  0.0229 -0.5582
18400TIP3   OH276614   6.188   3.804   3.811  0.4524  0.1445 -0.4132
18400TIP3    H176615   6.157   3.731   3.757  2.3340  0.5772 -2.1792
18400TIP3    H276616   6.117   3.868   3.807 -0.0328 -0.4198 -1.2115
18401TIP3   OH276617   0.247   3.427  16.594 -0.2955  0.8479 -0.4105
18401TIP3    H176618   0.288   3.513  16.591 -1.1375  1.3159  0.6416
18401TIP3    H276619   0.153   3.445  16.593 -0.4945  0.0070  0.5411
18402TIP3   OH276620   2.434   4.449   4.224 -0.8050 -0.1498  0.2224
18402TIP3    H176621   2.433   4.420   4.132 -0.4064  1.1860 -0.2228
18402TIP3    H276622   2.354   4.412   4.261 -2.6168  1.7980 -1.4816
18403TIP3   OH276623   4.758   0.882  16.017 -0.1273  0.1833  0.2139
18403TIP3    H176624   4.693   0.952  16.025 -0.3575  0.1615 -1.1697
18403TIP3    H276625   4.719   0.807  16.062 -1.2473  0.0655 -0.8973
18404TIP3   OH276626   1.086   4.217  14.154  0.0324  0.3535  0.2418
18404TIP3    H176627   1.162   4.259  14.196 -0.5746  1.2864  0.4317
18404TIP3    H276628   1.120   4.186  14.070  1.5053 -2.3020  1.6691
18405TIP3   OH276629   1.259   5.476   2.149  0.1741 -0.3819  0.3616
18405TIP3    H176630   1.317   5.472   2.225  0.1587  1.7788  0.5552
18405TIP3    H276631   1.318   5.468   2.074  0.7769  1.4704  0.5613
18406TIP3   OH276632   2.797   3.461   2.734 -0.1159 -0.0524  0.5184
18406TIP3    H176633   2.764   3.371   2.734  1.5255 -0.6988  0.6981
18406TIP3    H276634   2.841   3.470   2.649  1.8030 -0.2782  1.4313
18407TIP3   OH276635   1.831   5.792   6.182 -0.2237  0.3467  0.1338
18407TIP3    H176636   1.772   5.728   6.221  0.8931 -0.6244  0.2953
18407TIP3    H276637   1.791   5.815   6.098  0.4523 -2.3383 -1.0291
18408TIP3   OH276638   3.794   3.764   3.002  0.0779 -0.1830  0.4017
18408TIP3    H176639   3.811   3.672   3.022 -0.6561 -0.5588 -0.6103
18408TIP3    H276640   3.880   3.805   3.003  0.3126 -0.6242  1.9904
18409TIP3   OH276641   6.683   2.735   1.719 -0.4758  0.2609 -0.2154
18409TIP3    H176642   6.707   2.654   1.763  0.2261 -0.9644 -2.6549
18409TIP3    H276643   6.765   2.783   1.708 -0.8484  1.2187  0.9736
18410TIP3   OH276644   3.482   4.572  11.745  0.4833  0.5460  0.3905
18410TIP3    H176645   3.459   4.621  11.824  0.6128 -0.0085  0.7812
18410TIP3    H276646   3.423   4.606  11.678 -1.5361 -0.8468  1.3664
18411TIP3   OH276647   6.642   0.780  10.502  0.8638 -0.5671  0.0910
18411TIP3    H176648   6.674   0.857  10.455  1.4620 -0.3907  0.7685
18411TIP3    H276649   6.706   0.712  10.485  2.3451  0.1138  2.3992
18412TIP3   OH276650   4.741   6.048  12.659  0.4272  0.0407  0.7465
18412TIP3    H176651   4.762   6.057  12.751  0.6618  1.5960  0.5581
18412TIP3    H276652   4.824   6.062  12.613  0.5846 -1.9659  0.3140
18413TIP3   OH276653   5.234   0.602  14.110 -0.1526  0.9363  0.0235
18413TIP3    H176654   5.266   0.514  14.093  1.5326  1.1652  1.7515
18413TIP3    H276655   5.139   0.592  14.117  0.0425 -0.8107  0.5923
18414TIP3   OH276656   5.677   0.204   5.068  0.1086 -0.0398 -0.4061
18414TIP3    H176657   5.659   0.139   5.000 -0.2201  0.7321 -1.0762
18414TIP3    H276658   5.760   0.176   5.107  0.5023 -0.2873 -1.3863
18415TIP3   OH276659   0.374   0.784   4.619  0.4333 -0.0207 -0.1646
18415TIP3    H176660   0.464   0.775   4.648  1.2204  0.9410 -2.1271
18415TIP3    H276661   0.361   0.878   4.606 -0.8646 -0.1342  0.0881
18416TIP3   OH276662   3.515   6.362  17.003 -0.2282 -0.2209 -0.1463
18416TIP3    H176663   3.472   6.428  17.058 -2.4167 -0.3166 -1.5840
18416TIP3    H276664   3.501   6.279  17.048 -1.9411 -0.2894 -0.7345
18417TIP3   OH276665   2.984   6.061   2.924  0.2324 -0.5142  0.1698
18417TIP3    H176666   2.946   6.069   2.837  0.2405 -0.6408  0.1558
18417TIP3    H276667   3.034   5.979   2.922  0.9948 -0.0608  0.0007
18418TIP3   OH276668   6.493   3.717  15.483 -0.6547  0.5265 -0.0030
18418TIP3    H176669   6.426   3.747  15.422 -0.3761 -1.9216 -1.6952
18418TIP3    H276670   6.461   3.632  15.513  0.7977  0.1644  0.6103
18419TIP3   OH276671   3.741   4.264  15.762  0.6972  0.4573  0.1386
18419TIP3    H176672   3.807   4.277  15.693  1.3083 -0.1813  0.5875
18419TIP3    H276673   3.783   4.203  15.823 -0.5345 -0.4011  0.1516
18420TIP3   OH276674   4.435   6.757   3.272  0.2298  0.3244  0.3060
18420TIP3    H176675   4.367   6.823   3.255 -0.0004  0.7862  2.6813
18420TIP3    H276676   4.444   6.711   3.189 -3.6911 -0.3825  0.0531
18421TIP3   OH276677   4.390   3.295   4.222  0.7346  0.3714  0.0946
18421TIP3    H176678   4.309   3.342   4.204  0.9345  0.8729  0.4670
18421TIP3    H276679   4.408   3.313   4.315  0.6245 -0.7388  0.3529
18422TIP3   OH276680   0.672   3.504   3.370 -0.4824  0.5828 -0.1432
18422TIP3    H176681   0.715   3.587   3.388  0.2728 -0.0338  1.0071
18422TIP3    H276682   0.719   3.440   3.423 -0.2050 -0.8265 -1.9803
18423TIP3   OH276683   6.124   0.459  11.951 -0.2132 -0.2365 -0.2295
18423TIP3    H176684   6.127   0.449  12.046  0.0889  0.1425 -0.1943
18423TIP3    H276685   6.184   0.392  11.918 -0.7636 -0.7533 -0.1847
18424TIP3   OH276686   2.858   3.316   0.888 -0.0541 -0.8908  0.4224
18424TIP3    H176687   2.828   3.228   0.867  0.5438 -0.7632 -1.0742
18424TIP3    H276688   2.784   3.372   0.864  0.4784 -0.7823 -1.0407
18425TIP3   OH276689   5.216   3.986  14.616  0.1854 -0.1139  0.3023
18425TIP3    H176690   5.269   4.055  14.575  0.2535 -0.3268  0.0319
18425TIP3    H276691   5.126   4.021  14.614  0.2161 -0.0385  0.1454
18426TIP3   OH276692   2.327   2.448  11.827  0.5663  0.2490 -0.2977
18426TIP3    H176693   2.329   2.364  11.874  0.5423  0.2743 -0.2517
18426TIP3    H276694   2.309   2.424  11.736  0.6628  0.1962 -0.3035
18427TIP3   OH276695   0.639   1.264   2.754 -0.3469  0.4531 -0.0421
18427TIP3    H176696   0.597   1.324   2.815  1.6691  2.7128 -0.7452
18427TIP3    H276697   0.677   1.320   2.686  0.5285 -1.7080 -1.4555
18428TIP3   OH276698   2.701   2.037   3.242  0.0530  0.2027 -0.6273
18428TIP3    H176699   2.638   2.023   3.312  1.3197 -0.7213  0.3713
18428TIP3    H276700   2.767   2.095   3.280  2.0859 -2.2583 -0.1144
18429TIP3   OH276701   4.660   6.197   2.507  0.0390 -0.1834 -0.4458
18429TIP3    H176702   4.706   6.234   2.581 -1.1351  1.1092 -0.3191
18429TIP3    H276703   4.729   6.167   2.448  0.9866 -0.6507  0.8643
18430TIP3   OH276704   0.216   1.655   0.358  0.0114  0.1093  0.1964
18430TIP3    H176705   0.256   1.692   0.280  1.5428 -1.7706  0.0293
18430TIP3    H276706   0.160   1.585   0.325 -2.4286  1.7501  0.5486
18431TIP3   OH276707   5.956   1.452  11.939 -0.6223  0.5889  0.0252
18431TIP3    H176708   5.967   1.443  11.844  0.4784  3.0493 -0.1644
18431TIP3    H276709   6.045   1.462  11.973 -0.9656 -0.6975  1.4195
18432TIP3   OH276710   0.002   5.490  11.528  0.6537  0.0781 -0.4387
18432TIP3    H176711  -0.045   5.441  11.461  0.8048  1.0695 -1.2929
18432TIP3    H276712   0.033   5.423  11.589 -1.0445 -0.6774 -0.3472
18433TIP3   OH276713   2.354   0.610   3.060 -0.1731 -0.0051  0.0027
18433TIP3    H176714   2.326   0.522   3.085 -0.7063  0.2245  0.2300
18433TIP3    H276715   2.369   0.605   2.965  0.9722 -0.6434  0.2037
18434TIP3   OH276716   3.416   3.630   3.136  0.1873  0.3631 -0.2515
18434TIP3    H176717   3.463   3.548   3.121  0.2481  0.5556 -1.1432
18434TIP3    H276718   3.427   3.647   3.230 -1.2692 -1.5224  0.3265
18435TIP3   OH276719   6.478   5.747   6.247 -0.8766 -0.2991 -0.0566
18435TIP3    H176720   6.491   5.654   6.224  3.2879 -0.4483  1.9502
18435TIP3    H276721   6.429   5.745   6.329  0.9326 -0.9662  1.0700
18436TIP3   OH276722   0.665   1.123  14.028 -0.3085 -1.0953 -0.3764
18436TIP3    H176723   0.674   1.184  13.954  0.1352 -1.8765 -0.9867
18436TIP3    H276724   0.686   1.175  14.105 -1.5814 -0.0469 -0.7115
18437TIP3   OH276725   5.050   2.082   3.530 -0.0172  0.0722 -0.2018
18437TIP3    H176726   5.036   2.063   3.437  1.4267 -4.6200  0.3017
18437TIP3    H276727   5.145   2.075   3.542 -0.0915  1.3251  1.5525
18438TIP3   OH276728   5.252   2.398   3.988  0.1835 -0.4931 -0.2530
18438TIP3    H176729   5.172   2.381   4.038  0.5571 -1.8090 -0.0596
18438TIP3    H276730   5.260   2.323   3.930  0.8924 -0.0125 -0.7897
18439TIP3   OH276731   5.501   4.355   1.010  0.7241  0.4715 -0.0176
18439TIP3    H176732   5.497   4.374   0.916  0.7883  0.2002 -0.0769
18439TIP3    H276733   5.469   4.434   1.052 -0.8031  0.0612 -0.3210
18440TIP3   OH276734   1.134   2.144  15.322  0.2560  0.1416  0.4830
18440TIP3    H176735   1.192   2.205  15.277 -0.0205  0.6418  0.7982
18440TIP3    H276736   1.132   2.067  15.266 -2.2267  1.7245 -1.8102
18441TIP3   OH276737   4.272   0.296  12.581 -0.5952 -0.3339 -0.6135
18441TIP3    H176738   4.269   0.391  12.589 -1.2166 -0.2145 -1.9401
18441TIP3    H276739   4.359   0.278  12.547 -0.7081 -0.1703 -0.9965
18442TIP3   OH276740   3.969   1.440   2.401 -0.2254 -0.2107  0.4210
18442TIP3    H176741   3.996   1.349   2.391  0.5581  0.1449 -1.0631
18442TIP3    H276742   3.877   1.441   2.372 -0.1158 -0.4602  0.0551
18443TIP3   OH276743   0.438   4.529   5.267  0.5270 -0.2641  0.0506
18443TIP3    H176744   0.432   4.574   5.351  0.1414 -0.7426  0.2860
18443TIP3    H276745   0.514   4.568   5.224 -0.7843  1.8712 -0.5300
18444TIP3   OH276746   3.865   1.735  11.664 -0.0382 -0.5270  0.1496
18444TIP3    H176747   3.896   1.753  11.575  0.3864  0.1767  0.4293
18444TIP3    H276748   3.900   1.808  11.716  1.8269 -2.1849  1.3641
18445TIP3   OH276749   3.721   5.498   1.137  0.4167  0.1773  0.1615
18445TIP3    H176750   3.724   5.404   1.123  0.1368  0.0415  1.0050
18445TIP3    H276751   3.804   5.531   1.100  0.1912 -0.2959 -0.8004
18446TIP3   OH276752   0.170   5.618  15.790  0.0614 -0.0717 -0.2197
18446TIP3    H176753   0.181   5.543  15.731 -0.3035 -0.0677 -0.2937
18446TIP3    H276754   0.111   5.586  15.858 -1.2357  0.5564 -0.9955
18447TIP3   OH276755   6.303   4.576  11.226  0.0843 -0.0170  0.4002
18447TIP3    H176756   6.258   4.612  11.303 -0.1601  0.0759  0.2155
18447TIP3    H276757   6.261   4.619  11.151 -0.5041 -1.0130  0.1510
18448TIP3   OH276758   3.711   3.694  14.579 -0.5973  0.2127 -0.9620
18448TIP3    H176759   3.747   3.695  14.668 -0.4666  0.8707 -1.0220
18448TIP3    H276760   3.750   3.770  14.536 -1.4943  0.5200 -1.2515
18449TIP3   OH276761   0.097   6.191  15.414  0.1472 -0.4584 -0.3218
18449TIP3    H176762   0.014   6.143  15.408 -1.1042  1.5812 -0.3822
18449TIP3    H276763   0.128   6.197  15.324  0.0559 -0.7271 -0.3721
18450TIP3   OH276764   4.600   0.197  15.996 -0.3032 -0.0567  0.0518
18450TIP3    H176765   4.606   0.146  16.077 -1.0254  0.5200  0.4878
18450TIP3    H276766   4.620   0.135  15.926 -0.6578 -0.8108  0.6048
18451TIP3   OH276767   4.761   2.260  13.853  0.0332 -0.5206 -0.0451
18451TIP3    H176768   4.777   2.165  13.854 -1.4893 -0.9806 -3.4125
18451TIP3    H276769   4.800   2.290  13.771  0.3539  1.7893  0.8798
18452TIP3   OH276770   3.275   4.227  15.022  0.1586  0.1887  0.1401
18452TIP3    H176771   3.363   4.234  14.984 -0.6633  1.7061 -1.6182
18452TIP3    H276772   3.233   4.158  14.971 -0.1931  0.6004 -0.1283
18453TIP3   OH276773   0.003   1.072  15.129 -0.6428  0.0759 -0.4797
18453TIP3    H176774  -0.063   1.120  15.080  1.3583  3.6448  0.0361
18453TIP3    H276775   0.080   1.071  15.072 -0.5370 -2.5524 -0.4125
18454TIP3   OH276776   2.236   2.454   2.133 -0.1195  0.9727 -0.1589
18454TIP3    H176777   2.172   2.390   2.165  1.1121 -0.1730  0.1384
18454TIP3    H276778   2.259   2.505   2.211  0.7736  0.0601  0.2036
18455TIP3   OH276779   5.759   1.521  14.872  0.0738  0.4002 -0.4949
18455TIP3    H176780   5.786   1.533  14.963 -2.4239 -0.0545  0.3956
18455TIP3    H276781   5.773   1.428  14.855  1.9940  0.7551 -1.1710
18456TIP3   OH276782   3.339   4.978  12.061 -0.2921  0.3106 -0.1989
18456TIP3    H176783   3.316   5.054  12.115 -4.4991  2.7032 -4.5466
18456TIP3    H276784   3.410   5.010  12.005  0.1610 -0.1674  0.0939
18457TIP3   OH276785   1.120   6.586  11.695  0.1625  0.7983  0.4373
18457TIP3    H176786   1.106   6.660  11.755  0.2680  1.1547  0.0239
18457TIP3    H276787   1.182   6.619  11.631 -1.1230  0.9426 -0.7902
18458TIP3   OH276788   2.024   5.005   3.839  0.0526 -0.0684  0.2752
18458TIP3    H176789   2.004   5.089   3.880 -1.0146 -0.3167  0.3022
18458TIP3    H276790   2.108   4.979   3.877  0.0906  0.6836  0.7317
18459TIP3   OH276791   1.864   3.457   1.436  0.1203  0.4961 -0.1136
18459TIP3    H176792   1.839   3.393   1.370  0.6534 -1.5709  1.5949
18459TIP3    H276793   1.954   3.435   1.458  0.0925  1.4155  1.0008
18460TIP3   OH276794   0.321   2.121  14.993 -0.1002 -0.2872 -0.1060
18460TIP3    H176795   0.294   2.069  14.917 -1.2225 -1.2918  0.9398
18460TIP3    H276796   0.400   2.077  15.025  0.9882  0.7559 -1.2757
18461TIP3   OH276797   4.399   3.541   0.642  0.0984  0.0299 -0.2037
18461TIP3    H176798   4.311   3.503   0.645 -0.2597  0.5863 -2.2072
18461TIP3    H276799   4.458   3.467   0.654 -0.6227 -0.8136 -1.6648
18462TIP3   OH276800   2.377   1.667   4.159 -0.3938 -0.0900 -0.4032
18462TIP3    H176801   2.410   1.679   4.248  0.6185 -1.6746 -0.5137
18462TIP3    H276802   2.428   1.729   4.106 -1.0015  0.8581  0.1147
18463TIP3   OH276803   4.926   6.109   5.809  0.3019  0.4054 -0.2416
18463TIP3    H176804   4.910   6.106   5.715  1.5527 -1.4536 -0.4425
18463TIP3    H276805   5.017   6.138   5.817  0.2471  0.4191  0.3891
18464TIP3   OH276806   3.941   5.150  16.527  0.4539  0.4035  0.4198
18464TIP3    H176807   4.003   5.154  16.455 -0.9033 -0.7113 -0.8600
18464TIP3    H276808   3.857   5.129  16.486 -0.6110  0.9812  2.1892
18465TIP3   OH276809   1.417   0.116  14.663  0.0957  0.3559 -0.3365
18465TIP3    H176810   1.438   0.107  14.570 -1.2587  0.9819 -0.7226
18465TIP3    H276811   1.465   0.195  14.691  0.0450  0.4963 -0.6433
18466TIP3   OH276812   1.474   0.519  15.829  0.1676 -0.1228 -0.1777
18466TIP3    H176813   1.521   0.436  15.835 -2.1027 -1.5467 -0.5820
18466TIP3    H276814   1.437   0.533  15.916 -1.0323 -0.5839 -0.5899
18467TIP3   OH276815   0.368   0.065   5.705  0.0439 -0.5637  0.3791
18467TIP3    H176816   0.279   0.064   5.741 -0.1770 -0.1026 -0.1297
18467TIP3    H276817   0.359   0.023   5.619  0.1561  0.1886 -0.0087
18468TIP3   OH276818   1.492   6.024   2.521  0.1106 -0.2003 -0.4489
18468TIP3    H176819   1.502   6.047   2.613  2.4843 -1.1353 -0.4044
18468TIP3    H276820   1.511   6.105   2.474 -0.6940  0.1749 -0.1388
18469TIP3   OH276821   2.765   3.917   4.749  0.4135 -0.3634 -0.0249
18469TIP3    H176822   2.713   3.864   4.689  0.1097 -0.5390  0.3864
18469TIP3    H276823   2.780   3.860   4.825  0.4890 -0.0238  0.2189
18470TIP3   OH276824   0.910   4.385   1.283 -0.1788  0.0291 -0.5053
18470TIP3    H176825   0.984   4.447   1.277  0.1037 -0.2151  0.2240
18470TIP3    H276826   0.934   4.313   1.225 -1.6195  1.6317 -3.3086
18471TIP3   OH276827   4.044   3.871   3.299 -0.2243  0.0666 -0.1634
18471TIP3    H176828   4.110   3.888   3.365 -0.3755 -0.2023  0.0598
18471TIP3    H276829   4.009   3.957   3.276  0.6942  0.2897 -0.8027
18472TIP3   OH276830   4.223   0.332  16.404 -0.1539  0.3836 -0.1564
18472TIP3    H176831   4.298   0.373  16.361  1.2166 -0.1841  1.5590
18472TIP3    H276832   4.162   0.404  16.421  1.4068  1.4609  1.1892
18473TIP3   OH276833   5.964   4.489  14.829 -0.2623  0.2622 -0.7675
18473TIP3    H176834   5.900   4.476  14.759  0.3237  0.0642 -1.2789
18473TIP3    H276835   6.029   4.420  14.815 -0.2691  0.0490  0.1344
18474TIP3   OH276836   5.928   2.483  14.752  0.4942  0.6630 -0.8242
18474TIP3    H176837   5.964   2.441  14.674 -0.2434  0.3263 -0.9899
18474TIP3    H276838   5.984   2.453  14.824  0.4402 -0.0065 -1.0515
18475TIP3   OH276839   6.326   6.739  14.614 -0.0035 -0.2105  0.2511
18475TIP3    H176840   6.342   6.833  14.622 -0.0165 -0.1873  0.0178
18475TIP3    H276841   6.281   6.729  14.529 -0.4266 -0.3739  0.4894
18476TIP3   OH276842   0.724   2.354   6.182 -0.0341 -0.3284  0.3930
18476TIP3    H176843   0.755   2.264   6.182 -0.6493 -0.5619 -0.7957
18476TIP3    H276844   0.771   2.395   6.109 -2.3496 -0.6601 -1.3773
18477TIP3   OH276845   2.468   5.322  14.769 -0.4513  0.2890 -0.0609
18477TIP3    H176846   2.446   5.389  14.705 -1.9356  1.7811  1.8840
18477TIP3    H276847   2.385   5.280  14.789  0.1592 -0.8616  0.1765
18478TIP3   OH276848   2.889   3.966   3.527 -0.7056  0.2095 -0.4409
18478TIP3    H176849   2.909   3.918   3.446 -0.0519  0.8564 -0.6668
18478TIP3    H276850   2.906   3.902   3.597 -0.7026 -0.1674 -0.7799
18479TIP3   OH276851   3.616   4.791  14.170  0.1329  0.4256  0.8260
18479TIP3    H176852   3.577   4.724  14.114 -1.7566 -0.0448  2.5910
18479TIP3    H276853   3.706   4.761  14.184 -0.4750 -1.4304  1.0428
18480TIP3   OH276854   6.177   4.533   3.850  0.1761  0.3497  0.3390
18480TIP3    H176855   6.106   4.537   3.914  0.8630 -0.2316  1.1618
18480TIP3    H276856   6.250   4.579   3.892  0.5339  0.2421 -0.1567
18481TIP3   OH276857   3.535   3.759   2.552 -0.2780  0.2325  1.0621
18481TIP3    H176858   3.487   3.682   2.581 -0.0343 -0.4578 -0.2949
18481TIP3    H276859   3.475   3.803   2.491 -0.2514  0.8930  1.5017
18482TIP3   OH276860   0.796   2.503  14.932  0.5282 -0.2730 -0.0571
18482TIP3    H176861   0.739   2.580  14.939  0.6022 -0.3125  1.1077
18482TIP3    H276862   0.879   2.532  14.970  1.0189 -0.4960 -0.9329
18483TIP3   OH276863   2.966   4.408   3.945 -0.0543  0.5329 -0.0518
18483TIP3    H176864   2.899   4.405   3.877  0.0803 -2.1954 -0.1422
18483TIP3    H276865   3.026   4.477   3.916 -1.2384  1.0086 -1.4860
18484TIP3   OH276866   5.020   5.479  13.069  0.9329  0.4759 -0.2448
18484TIP3    H176867   4.998   5.537  12.996  0.8503  0.2144 -0.4270
18484TIP3    H276868   5.111   5.501  13.090  0.8122  0.8724 -0.1262
18485TIP3   OH276869   3.320   5.613  13.785  0.4614 -0.0124  0.0949
18485TIP3    H176870   3.391   5.548  13.782 -0.0610 -0.5713 -1.5652
18485TIP3    H276871   3.362   5.695  13.759  0.7415 -0.0979  0.2739
18486TIP3   OH276872   1.136   1.568   5.378 -0.0114  0.6529 -0.5757
18486TIP3    H176873   1.229   1.578   5.402 -0.0678 -0.0346 -0.0426
18486TIP3    H276874   1.129   1.612   5.293  0.7788  0.8097 -0.5725
18487TIP3   OH276875   2.954   4.750  10.645 -0.0581 -0.4447  0.8336
18487TIP3    H176876   2.968   4.793  10.561  1.4936 -0.3812  1.0840
18487TIP3    H276877   3.005   4.669  10.639 -1.8716 -1.6493  0.8528
18488TIP3   OH276878   0.785   1.971  13.296  0.0027  0.2674  0.5649
18488TIP3    H176879   0.750   2.056  13.323 -1.1731 -0.0468  0.1154
18488TIP3    H276880   0.880   1.982  13.295 -0.1254  1.4606  0.8597
18489TIP3   OH276881   1.219   2.718   5.443 -0.7885 -0.1805 -0.2306
18489TIP3    H176882   1.257   2.795   5.486  1.1355  0.6933 -3.1614
18489TIP3    H276883   1.243   2.645   5.499 -1.1215  1.1403  1.7291
18490TIP3   OH276884   3.918   5.090  15.478 -0.2671 -0.0220  0.7441
18490TIP3    H176885   3.853   5.158  15.493  1.2612  2.0464 -1.2496
18490TIP3    H276886   3.879   5.033  15.411 -0.8627 -0.0716  1.1306
18491TIP3   OH276887   6.042   1.582  16.207  0.1058 -1.0740 -0.1810
18491TIP3    H176888   5.969   1.643  16.197  1.5786  0.8302  0.0444
18491TIP3    H276889   6.073   1.597  16.297  1.4544 -1.0111 -0.6408
18492TIP3   OH276890   1.010   5.705  11.796 -0.2856  0.5070 -0.1449
18492TIP3    H176891   0.999   5.763  11.721 -0.9814 -0.3339 -0.7164
18492TIP3    H276892   1.101   5.716  11.822  0.3000 -0.0283 -1.8448
18493TIP3   OH276893   3.004   4.252   1.784 -0.0381  0.2130 -0.0625
18493TIP3    H176894   3.030   4.338   1.816 -1.3831  0.7631 -0.3326
18493TIP3    H276895   2.974   4.205   1.862  0.9672 -0.1257  0.1272
18494TIP3   OH276896   2.776   4.523   4.972  0.1864 -0.4285 -0.1330
18494TIP3    H176897   2.817   4.609   4.977  1.2078 -0.9672  1.4759
18494TIP3    H276898   2.687   4.536   5.004  0.8350 -0.2411  1.6663
18495TIP3   OH276899   2.522   2.967  12.314  0.2581  0.5713  0.0471
18495TIP3    H176900   2.534   2.899  12.247  0.7321  0.9704 -0.2843
18495TIP3    H276901   2.541   2.923  12.396  0.3217  0.2397 -0.1431
18496TIP3   OH276902   3.553   4.497   0.775 -0.1690  0.1807  0.1607
18496TIP3    H176903   3.625   4.475   0.716 -0.6501 -0.2708 -0.2720
18496TIP3    H276904   3.594   4.511   0.860  0.4300 -0.0351 -0.0924
18497TIP3   OH276905   5.123   3.752   5.093  0.5373  0.1072 -0.1771
18497TIP3    H176906   5.205   3.781   5.132  0.0721  1.9496 -0.4456
18497TIP3    H276907   5.129   3.780   5.002 -0.5811  0.8055 -0.0667
18498TIP3   OH276908   2.483   6.131   1.232  0.0686  0.3977  0.0831
18498TIP3    H176909   2.550   6.063   1.225 -1.0705 -0.7805  0.2699
18498TIP3    H276910   2.420   6.110   1.163 -0.8299  0.6407  0.8057
18499TIP3   OH276911   3.827   3.068   2.352  0.5968 -0.1427  0.1556
18499TIP3    H176912   3.810   2.975   2.368  0.9125 -0.5913 -1.8504
18499TIP3    H276913   3.915   3.083   2.386 -0.4535  0.1613  3.0125
18500TIP3   OH276914   2.278   6.401   0.814  0.2065  0.1942  0.3238
18500TIP3    H176915   2.217   6.409   0.742  0.2831  3.1057  0.4578
18500TIP3    H276916   2.364   6.397   0.773  0.1973  1.0008  0.2138
18501TIP3   OH276917   5.260   4.754  13.422 -0.1397  0.0304 -0.2173
18501TIP3    H176918   5.305   4.832  13.388  0.0678  0.9067  1.9264
18501TIP3    H276919   5.242   4.702  13.344  2.7857  0.5698 -1.4186
18502TIP3   OH276920   5.815   4.431  17.077 -0.2784  0.0784 -0.5574
18502TIP3    H176921   5.825   4.480  16.996 -0.5665  3.4780  1.2467
18502TIP3    H276922   5.873   4.475  17.139 -1.1335 -1.4234  1.4522
18503TIP3   OH276923   2.878   3.476  14.654  0.0062  0.4859 -0.0288
18503TIP3    H176924   2.912   3.404  14.601 -1.3856  1.2305 -2.0463
18503TIP3    H276925   2.956   3.516  14.694  1.1736  0.0987 -1.8111
18504TIP3   OH276926   4.625   2.251   2.009 -0.1534 -0.0649 -0.2376
18504TIP3    H176927   4.611   2.341   1.977 -0.8447  0.1189  0.5514
18504TIP3    H276928   4.705   2.223   1.965 -0.3135  0.6800 -1.0503
18505TIP3   OH276929   4.409   6.475   2.455 -0.0738  0.2083  0.1597
18505TIP3    H176930   4.396   6.564   2.489  0.3092  0.5728 -0.6384
18505TIP3    H276931   4.466   6.486   2.379 -1.2336 -0.5614 -0.8432
18506TIP3   OH276932   6.246   4.866  15.443  0.4142  0.0774 -0.0005
18506TIP3    H176933   6.178   4.927  15.473 -0.2434 -0.8839  0.5315
18506TIP3    H276934   6.241   4.793  15.505 -0.1303 -1.4026 -1.7074
18507TIP3   OH276935   1.922   2.938   1.621  0.1736 -0.4169 -0.4780
18507TIP3    H176936   1.871   2.861   1.593 -0.3053 -0.4111  0.3424
18507TIP3    H276937   1.990   2.902   1.678 -0.3828 -0.1875  0.3451
18508TIP3   OH276938   5.500   2.897   4.835 -0.0537  0.0589  0.0769
18508TIP3    H176939   5.423   2.953   4.845  0.3125  0.4742  0.6279
18508TIP3    H276940   5.470   2.826   4.778 -0.1430  1.5451 -1.8391
18509TIP3   OH276941   5.085   1.496  17.140 -0.0919 -0.3363  0.4133
18509TIP3    H176942   5.101   1.587  17.117 -1.4522 -0.2046 -0.0868
18509TIP3    H276943   4.991   1.484  17.131  0.0903 -1.8729  0.1730
18510TIP3   OH276944   3.560   1.233  16.082  0.1831 -0.2250  0.0632
18510TIP3    H176945   3.497   1.206  16.150  1.5160  0.3526  1.6090
18510TIP3    H276946   3.641   1.187  16.106  0.6685 -0.0385 -1.1824
18511TIP3   OH276947   0.069   5.646   3.242  0.0986 -0.2858  0.3904
18511TIP3    H176948   0.012   5.678   3.312  0.3157  2.4109 -0.5618
18511TIP3    H276949   0.036   5.688   3.162  0.5315 -2.3991 -0.9895
18512TIP3   OH276950   3.658   1.435   2.313  0.3283 -0.1397 -0.2914
18512TIP3    H176951   3.618   1.478   2.389 -1.6640 -0.9084 -0.8448
18512TIP3    H276952   3.691   1.507   2.260  1.0833  0.4437  0.9190
18513TIP3   OH276953   1.938   6.352   3.047  0.5391  0.3856 -1.0366
18513TIP3    H176954   1.847   6.352   3.076  1.0574  0.0902  0.6762
18513TIP3    H276955   1.944   6.277   2.988 -0.3186  0.4050 -1.1635
18514TIP3   OH276956   1.763   0.143   5.197 -0.3831  0.9243 -0.5465
18514TIP3    H176957   1.724   0.056   5.209 -0.3956  1.0954  0.8534
18514TIP3    H276958   1.720   0.197   5.264  1.7270  1.2994  0.5731
18515TIP3   OH276959   3.118   1.145  13.959 -0.1426 -0.1410  0.0541
18515TIP3    H176960   3.170   1.122  14.036 -3.2934 -3.2334  1.4970
18515TIP3    H276961   3.173   1.120  13.885  1.6193 -0.3241  1.3559
18516TIP3   OH276962   5.019   0.736  12.892  0.0873 -0.0193  0.5892
18516TIP3    H176963   5.109   0.737  12.927 -0.7414  0.8297  2.9060
18516TIP3    H276964   5.020   0.804  12.825  1.4019 -0.6798 -0.1053
18517TIP3   OH276965   4.106   0.620   2.320 -0.2802 -0.0672 -0.4657
18517TIP3    H176966   4.103   0.703   2.273  0.3130  0.7177  0.8282
18517TIP3    H276967   4.186   0.625   2.373 -1.7678 -0.1688  1.9464
18518TIP3   OH276968   6.513   1.482   2.169  0.3561 -0.2725  1.0772
18518TIP3    H176969   6.449   1.539   2.125  0.6868 -0.7868 -0.1333
18518TIP3    H276970   6.471   1.396   2.170  0.8364 -0.5221  0.6527
18519TIP3   OH276971   0.248   3.679   2.223  0.0493 -0.5348  0.4362
18519TIP3    H176972   0.342   3.668   2.211 -0.0676 -1.2138  0.0389
18519TIP3    H276973   0.218   3.594   2.256 -0.7403 -1.1006 -1.5786
18520TIP3   OH276974   4.441   1.868  16.581 -0.7590 -0.0978  0.1804
18520TIP3    H176975   4.369   1.927  16.603 -0.3674  0.6778 -0.5454
18520TIP3    H276976   4.452   1.813  16.658 -0.7784  1.1500  1.1021
18521TIP3   OH276977   4.613   2.455   0.981  0.1806  0.1085 -0.5741
18521TIP3    H176978   4.574   2.387   0.926  1.5705  0.1968 -1.7211
18521TIP3    H276979   4.700   2.422   1.001  0.2790  0.8324  0.2163
18522TIP3   OH276980   4.750   6.496  16.976 -0.1182  0.3703  0.5586
18522TIP3    H176981   4.840   6.527  16.974  0.1722 -0.3752  1.6506
18522TIP3    H276982   4.754   6.408  16.937 -0.3677  0.3081  0.6729
18523TIP3   OH276983   2.440   0.123   2.611 -0.4422  0.3988 -0.0232
18523TIP3    H176984   2.398   0.068   2.678  1.2621  0.4041  1.1366
18523TIP3    H276985   2.368   0.170   2.569 -1.6659 -0.3958  1.0991
18524TIP3   OH276986   1.328   4.449  13.577 -0.0798  0.2734  0.1630
18524TIP3    H176987   1.361   4.517  13.635  0.0556  1.6678 -1.4517
18524TIP3    H276988   1.289   4.384  13.635  1.0287  1.0458  1.8385
18525TIP3   OH276989   5.495   4.830  14.068  0.1312 -0.3926  0.0956
18525TIP3    H176990   5.505   4.735  14.056  0.7908 -0.8787  3.3485
18525TIP3    H276991   5.401   4.845  14.060 -0.1268 -1.5696  0.5721
18526TIP3   OH276992   5.317   5.403   3.552 -0.0532 -0.6480 -0.2877
18526TIP3    H176993   5.359   5.467   3.609  0.1832 -0.4580 -0.6724
18526TIP3    H276994   5.276   5.456   3.484 -1.5216 -0.7696  0.4560
18527TIP3   OH276995   1.275   4.058   0.578 -0.0319 -0.2905  0.0021
18527TIP3    H176996   1.289   4.152   0.582 -2.1136  0.0604  0.3870
18527TIP3    H276997   1.269   4.030   0.669 -1.9124 -0.3211 -0.0976
18528TIP3   OH276998   1.164   3.783   1.803  0.1136  0.0457 -0.2568
18528TIP3    H176999   1.259   3.775   1.815  0.2886 -1.2724 -2.1619
18528TIP3    H277000   1.128   3.724   1.870  0.7326 -1.0422 -0.8524
18529TIP3   OH277001   6.303   4.706  13.547  0.4829 -0.3792  0.1163
18529TIP3    H177002   6.267   4.642  13.609  1.3552 -0.4550  0.5635
18529TIP3    H277003   6.383   4.665  13.515 -0.3161 -0.6477 -1.6304
18530TIP3   OH277004   6.611   3.803   2.686 -0.1172  0.8092 -0.1589
18530TIP3    H177005   6.599   3.861   2.611 -5.0444  0.4466  0.0126
18530TIP3    H277006   6.560   3.843   2.756 -0.9852 -1.9980  0.9822
18531TIP3   OH277007   4.901   3.999   5.887  0.5477 -0.3213  0.0133
18531TIP3    H177008   4.936   3.934   5.826  0.7492  1.5829 -2.0310
18531TIP3    H277009   4.975   4.056   5.906 -0.1776  0.7432 -0.2538
18532TIP3   OH277010   3.919   2.911   2.738  0.0857  0.2519  0.1160
18532TIP3    H177011   3.976   2.888   2.665 -1.8604 -1.1434 -1.0674
18532TIP3    H277012   3.934   2.844   2.804  0.0151  0.0560 -0.0688
18533TIP3   OH277013   2.026   2.575   1.944  0.3297 -0.7023 -0.4894
18533TIP3    H177014   2.103   2.520   1.929  1.4572  0.7625 -0.3254
18533TIP3    H277015   1.957   2.514   1.969  1.1366 -2.1720 -1.6702
18534TIP3   OH277016   5.573   1.760   5.920 -0.4381 -0.3392  0.0775
18534TIP3    H177017   5.628   1.822   5.970 -0.4800  0.1410 -0.4629
18534TIP3    H277018   5.609   1.674   5.941 -0.1645 -0.1086  0.5812
18535TIP3   OH277019   1.495   1.884  17.086  0.4854 -0.0140  0.1633
18535TIP3    H177020   1.514   1.962  17.034  0.3358 -0.2317 -0.2220
18535TIP3    H277021   1.495   1.812  17.023 -0.4410 -0.1765  0.3366
18536TIP3   OH277022   2.799   5.209  14.412  0.2903  0.2868  0.0979
18536TIP3    H177023   2.827   5.204  14.503  1.1023  0.1863 -0.1505
18536TIP3    H277024   2.766   5.298  14.402 -2.1317 -0.4156  1.1273
18537TIP3   OH277025   4.863   4.839  13.200  0.3963 -0.2325 -0.3696
18537TIP3    H177026   4.816   4.916  13.232  0.6389 -0.7024  1.1918
18537TIP3    H277027   4.943   4.874  13.161 -1.0811  0.5768 -2.9840
18538TIP3   OH277028   2.116   4.374   6.332  0.4948  0.1240 -0.6651
18538TIP3    H177029   2.202   4.416   6.340 -0.4652  1.9102  1.1302
18538TIP3    H277030   2.129   4.286   6.369  1.6332  0.2329 -0.7775
18539TIP3   OH277031   4.786   3.502   2.899 -0.2878  0.6816 -0.5626
18539TIP3    H177032   4.846   3.441   2.943  0.9069  0.6777 -2.1173
18539TIP3    H277033   4.721   3.446   2.858 -0.7050  0.6220  0.1586
18540TIP3   OH277034   3.662   2.231  16.397  0.6021  0.6125  0.6328
18540TIP3    H177035   3.746   2.246  16.355  0.9990  0.9475  1.5219
18540TIP3    H277036   3.678   2.159  16.459  0.0044  0.0530  0.1507
18541TIP3   OH277037   0.138   1.380  10.385 -0.7228 -0.0031  0.0441
18541TIP3    H177038   0.129   1.437  10.309 -1.3908 -0.6396 -0.3706
18541TIP3    H277039   0.081   1.419  10.451 -0.5823  0.2388  0.0207
18542TIP3   OH277040   4.190   5.877  13.520 -0.3396  0.3251 -0.0227
18542TIP3    H177041   4.268   5.895  13.572  0.0367 -1.3610  0.0577
18542TIP3    H277042   4.224   5.847  13.435 -0.9301  1.1329 -0.5630
18543TIP3   OH277043   2.375   3.337   0.188  0.3779 -0.5416 -0.3713
18543TIP3    H177044   2.377   3.423   0.145 -0.3256 -0.6339 -0.5881
18543TIP3    H277045   2.283   3.321   0.206  0.6213 -0.6407  0.9010
18544TIP3   OH277046   5.477   2.788   2.795  0.7285 -0.2961  0.0933
18544TIP3    H177047   5.472   2.823   2.884 -0.7766  0.2477 -0.1779
18544TIP3    H277048   5.533   2.849   2.748  2.6608 -1.3237  0.9666
18545TIP3   OH277049   2.757   4.181   4.819 -0.3054 -0.0694  0.0991
18545TIP3    H177050   2.746   4.089   4.798 -0.0539 -0.0130 -0.2863
18545TIP3    H277051   2.725   4.228   4.742 -0.3369  0.1633  0.2507
18546TIP3   OH277052   5.372   2.721  15.590 -0.4200 -0.0210  0.0662
18546TIP3    H177053   5.431   2.767  15.530  0.5634 -1.5521 -0.1946
18546TIP3    H277054   5.287   2.720  15.544  0.2706 -1.0257 -1.2630
18547TIP3   OH277055   4.841   0.621   4.663  0.3321  0.1693  0.0902
18547TIP3    H177056   4.877   0.541   4.624 -0.7615 -0.1684 -0.2455
18547TIP3    H277057   4.833   0.681   4.589 -1.1314 -0.2516 -0.1297
18548TIP3   OH277058   6.413   6.663  12.560  0.5409  0.2126  0.2125
18548TIP3    H177059   6.425   6.569  12.574 -0.0569 -0.0719 -1.0816
18548TIP3    H277060   6.331   6.683  12.604  0.2566 -0.0404 -0.1958
18549TIP3   OH277061   0.102   2.858  16.867 -0.0173  0.5185 -0.2741
18549TIP3    H177062   0.162   2.873  16.794  0.9775 -0.0742  0.4008
18549TIP3    H277063   0.158   2.851  16.944 -0.8195 -1.2920  0.2057
18550TIP3   OH277064   4.846   5.691   0.066 -0.4065  0.0435 -0.3805
18550TIP3    H177065   4.894   5.766   0.030  1.2850 -1.3980 -1.2795
18550TIP3    H277066   4.844   5.707   0.161  0.6891  0.8161 -0.4700
18551TIP3   OH277067   2.404   5.972   4.217  0.2434 -0.3294  0.2617
18551TIP3    H177068   2.321   6.012   4.191  0.0690 -1.4210 -0.9315
18551TIP3    H277069   2.410   5.893   4.164  1.9884 -0.3382  0.4428
18552TIP3   OH277070   1.471   3.310   3.939  0.0310 -0.2445  0.3147
18552TIP3    H177071   1.500   3.377   3.876 -0.7344 -1.4071 -1.3201
18552TIP3    H277072   1.526   3.326   4.016 -0.1286  2.2671  0.0097
18553TIP3   OH277073   5.135   3.128   1.081 -0.3530  0.0651  0.6076
18553TIP3    H177074   5.164   3.096   0.995 -1.5823 -0.0544  0.2195
18553TIP3    H277075   5.060   3.073   1.103 -1.8045  1.8658  0.4504
18554TIP3   OH277076   0.240   2.765  11.497 -0.4048  0.3559  0.4700
18554TIP3    H177077   0.267   2.675  11.513  1.3637  0.9415  1.0548
18554TIP3    H277078   0.316   2.805  11.454 -0.6805  1.8804  1.3447
18555TIP3   OH277079   0.977   5.858  11.346 -0.2023 -0.3957 -0.3935
18555TIP3    H177080   0.976   5.932  11.406  1.8347 -1.2491  0.7678
18555TIP3    H277081   1.029   5.888  11.271 -2.1253  0.4080 -1.5005
18556TIP3   OH277082   5.212   4.848   3.373 -0.0759  0.0388  0.8846
18556TIP3    H177083   5.168   4.867   3.456 -1.0616 -0.6092  0.5221
18556TIP3    H277084   5.143   4.818   3.315  0.8878 -1.3734  0.4133
18557TIP3   OH277085   3.925   0.849   4.046  0.3264  0.0893 -0.1039
18557TIP3    H177086   3.995   0.914   4.038 -0.4343  1.3076  2.1721
18557TIP3    H277087   3.847   0.901   4.066 -0.9722 -1.3361 -1.2627
18558TIP3   OH277088   2.443   0.288  12.395  0.2320  0.6280 -0.0041
18558TIP3    H177089   2.508   0.318  12.331  0.9697 -0.0583  0.4000
18558TIP3    H277090   2.495   0.251  12.466 -0.5869  1.1621  0.8885
18559TIP3   OH277091   1.059   5.840  13.165  0.4248  0.4186  0.1823
18559TIP3    H177092   1.104   5.764  13.129  0.9737  0.9297 -0.2281
18559TIP3    H277093   1.119   5.914  13.148  0.2394  0.8250  1.2309
18560TIP3   OH277094   4.570   3.272   3.116 -0.2827  0.3084 -0.2463
18560TIP3    H177095   4.579   3.289   3.022  0.9560  1.4720  0.0381
18560TIP3    H277096   4.647   3.315   3.155 -1.2424  0.6265  1.3846
18561TIP3   OH277097   2.035   6.220  16.592  0.9089  0.5110 -0.0537
18561TIP3    H177098   2.114   6.166  16.585  0.9343  0.1355  2.3058
18561TIP3    H277099   2.000   6.200  16.679 -0.0801  2.9811  0.1963
18562TIP3   OH277100   3.487   4.168   0.674  0.2126  0.3035 -0.3613
18562TIP3    H177101   3.502   4.227   0.600  0.4182  0.3303 -0.2977
18562TIP3    H277102   3.479   4.226   0.750  0.2235  0.2612 -0.3277
18563TIP3   OH277103   4.880   0.083  13.798 -0.0356 -0.2308  0.2664
18563TIP3    H177104   4.928   0.094  13.880  2.0980  0.5341 -1.0112
18563TIP3    H277105   4.793   0.119  13.817  0.4279  0.0028  2.1624
18564TIP3   OH277106   4.878   2.378  15.427  0.4219  0.0631  0.4142
18564TIP3    H177107   4.833   2.294  15.436  1.6835 -0.6002  0.7083
18564TIP3    H277108   4.895   2.386  15.333  1.1086 -0.4662  0.4822
18565TIP3   OH277109   5.486   1.762  16.808  0.2165  0.5461 -0.3466
18565TIP3    H177110   5.509   1.687  16.863  0.8280  1.6655  1.0022
18565TIP3    H277111   5.510   1.735  16.720  2.2507 -0.1624  0.3614
18566TIP3   OH277112   0.771   3.270  14.865  0.3346 -0.0724  0.4181
18566TIP3    H177113   0.752   3.356  14.902 -0.6476 -0.4996  0.9366
18566TIP3    H277114   0.858   3.280  14.825 -0.0031  1.3011 -0.0202
18567TIP3   OH277115   0.861   6.210  15.869 -0.0083  0.3287  0.6709
18567TIP3    H177116   0.929   6.142  15.874 -0.4250 -0.2384 -0.8468
18567TIP3    H277117   0.851   6.240  15.959  2.3973  0.5917  0.9092
18568TIP3   OH277118   2.274   0.122   5.115 -0.0089  0.7165 -0.2104
18568TIP3    H177119   2.266   0.037   5.159 -2.0735 -0.4094 -2.5241
18568TIP3    H277120   2.209   0.177   5.159  0.9032  0.9585  0.8851
18569TIP3   OH277121   2.454   0.148  15.186 -0.4891  0.3258 -0.1952
18569TIP3    H177122   2.492   0.235  15.198 -1.5776  1.1671 -2.2727
18569TIP3    H277123   2.381   0.145  15.248 -0.1420  0.6968  0.2347
18570TIP3   OH277124   1.956   6.762  16.777  0.2314 -0.4257  0.0189
18570TIP3    H177125   1.927   6.705  16.848  1.0338 -1.0494 -0.1454
18570TIP3    H277126   1.890   6.832  16.774 -0.4274 -1.0095  0.6171
18571TIP3   OH277127   0.758   5.406   4.058 -0.0417 -0.6261  0.3440
18571TIP3    H177128   0.828   5.364   4.108  2.1480  1.1871 -1.0028
18571TIP3    H277129   0.720   5.470   4.117  1.9987  0.9587  0.0422
18572TIP3   OH277130   2.446   4.763   4.524  0.0468 -0.4042 -0.9155
18572TIP3    H177131   2.542   4.760   4.514  0.2674 -1.7495  0.9597
18572TIP3    H277132   2.417   4.824   4.457  2.2484  0.2561 -1.3710
18573TIP3   OH277133   5.334   4.486  14.568 -0.1809  0.3462 -0.6074
18573TIP3    H177134   5.310   4.577  14.585  0.3372  0.2383  0.9291
18573TIP3    H277135   5.335   4.445  14.655  1.5130 -0.6278 -1.0362
18574TIP3   OH277136   0.736   1.147  12.825  0.1367 -0.1709 -0.1408
18574TIP3    H177137   0.826   1.129  12.852  1.1932  0.6748 -2.7372
18574TIP3    H277138   0.682   1.115  12.897  2.4623 -1.4973  1.1331
18575TIP3   OH277139   0.746   3.498  15.013 -0.0117 -0.3331  0.2821
18575TIP3    H177140   0.667   3.545  14.986  1.2150  2.2020  0.8121
18575TIP3    H277141   0.737   3.485  15.107  0.2575  0.1318  0.3773
18576TIP3   OH277142   3.894   6.741  12.057  0.4976  0.3893  0.4762
18576TIP3    H177143   3.869   6.689  12.133 -1.2119  0.1800 -0.1810
18576TIP3    H277144   3.934   6.820  12.093 -1.9921  1.1759  1.6825
18577TIP3   OH277145   0.938   4.093  13.447 -0.3060  0.1850 -0.3535
18577TIP3    H177146   0.998   4.117  13.377  1.1096 -0.4637  0.5860
18577TIP3    H277147   0.856   4.072  13.402  0.8188 -1.1217 -1.9305
18578TIP3   OH277148   4.755   4.183   5.714 -0.4369 -0.2576 -0.0786
18578TIP3    H177149   4.683   4.134   5.675  0.2836 -0.7343 -0.8598
18578TIP3    H277150   4.818   4.116   5.741 -0.6946  0.0921  1.4868
18579TIP3   OH277151   1.719   2.361   5.148  0.0058 -0.3542 -0.4116
18579TIP3    H177152   1.651   2.382   5.212  0.0254 -0.2625 -0.4204
18579TIP3    H277153   1.801   2.367   5.197  0.1455  1.1138 -0.7644
18580TIP3   OH277154   2.641   2.387  12.361 -0.0853  0.6907  0.4369
18580TIP3    H177155   2.556   2.379  12.318 -0.6449  1.9471  1.2605
18580TIP3    H277156   2.622   2.377  12.454  0.2789  3.1661  0.8544
18581TIP3   OH277157   4.192   4.229  10.432  0.1604 -0.1265 -0.4704
18581TIP3    H177158   4.194   4.325  10.431 -0.5792 -0.1020 -0.2522
18581TIP3    H277159   4.146   4.207  10.513  0.8189 -0.6827 -0.2316
18582TIP3   OH277160   1.145   2.029  10.883  0.2173 -0.0727  0.3924
18582TIP3    H177161   1.099   1.952  10.849 -0.6757  0.4821  0.3180
18582TIP3    H277162   1.177   2.074  10.805 -0.6456  0.4761  0.3538
18583TIP3   OH277163   0.357   1.379   5.659  0.7876 -0.1072  0.8223
18583TIP3    H177164   0.405   1.415   5.733  0.3865 -0.3601  1.2150
18583TIP3    H277165   0.307   1.306   5.696  0.5559 -0.2169  0.3084
18584TIP3   OH277166   0.938   2.558   2.165  0.0682 -0.2067  0.3420
18584TIP3    H177167   0.884   2.525   2.093  1.1079 -2.8524  0.6577
18584TIP3    H277168   0.964   2.645   2.137 -1.9574  0.0234 -1.1114
18585TIP3   OH277169   3.719   3.899   1.209  0.0780  0.0248  0.5508
18585TIP3    H177170   3.668   3.975   1.182 -2.2230 -1.0635  1.5225
18585TIP3    H277171   3.662   3.853   1.272  1.5037 -2.2972  0.2768
18586TIP3   OH277172   1.741   4.200  16.015  0.5050 -0.3572  0.3952
18586TIP3    H177173   1.762   4.260  16.087 -0.0942 -2.2295  2.2379
18586TIP3    H277174   1.798   4.124  16.030 -1.0919 -1.6579  0.1728
18587TIP3   OH277175   3.698   3.103   2.685 -0.1474 -0.2350  0.4554
18587TIP3    H177176   3.693   3.116   2.591 -1.8727 -0.7162  0.4473
18587TIP3    H277177   3.791   3.108   2.705  0.2440 -0.0885 -1.2601
18588TIP3   OH277178   3.248   6.613  16.961 -0.4073  0.0793 -0.8690
18588TIP3    H177179   3.302   6.692  16.947  3.0551 -2.2244 -1.8430
18588TIP3    H277180   3.297   6.543  16.918 -2.6362 -2.8850  1.0435
18589TIP3   OH277181   2.460   2.420   4.731 -0.1383 -0.6171  0.0745
18589TIP3    H177182   2.448   2.460   4.818  1.1922 -0.6729  0.2934
18589TIP3    H277183   2.400   2.469   4.675 -0.2121  0.1567  0.8015
18590TIP3   OH277184   5.793   0.002   4.511  0.3294  0.4643  0.0664
18590TIP3    H177185   5.857  -0.015   4.581  1.8218  1.5447 -0.9680
18590TIP3    H277186   5.831   0.075   4.462 -0.4056 -0.5772 -2.1760
18591TIP3   OH277187   4.731   5.735  16.679  0.6860  0.0461 -0.3628
18591TIP3    H177188   4.679   5.656  16.666  1.9206 -0.6276 -1.5404
18591TIP3    H277189   4.680   5.788  16.739 -0.0950 -1.7269  0.6140
18592TIP3   OH277190   2.222   5.377   4.447  0.0772 -0.5166 -0.0195
18592TIP3    H177191   2.221   5.374   4.543  0.0389  0.3450  0.0192
18592TIP3    H277192   2.262   5.295   4.420  1.3399 -0.1920  0.7821
18593TIP3   OH277193   6.409   6.050  15.890 -0.4421 -0.6210  0.5358
18593TIP3    H177194   6.401   6.145  15.876 -1.0435 -0.3436  2.4685
18593TIP3    H277195   6.503   6.034  15.890 -0.3473 -0.1384 -0.4143
18594TIP3   OH277196   1.725   5.479  15.872  0.2279 -0.2085 -0.6917
18594TIP3    H177197   1.633   5.464  15.891  0.7476 -1.5376  1.0595
18594TIP3    H277198   1.750   5.407  15.814  1.0478 -2.3431  2.0917
18595TIP3   OH277199   3.168   3.366  12.599 -0.4624 -0.4939 -0.5806
18595TIP3    H177200   3.153   3.317  12.518  0.0796 -0.2059 -0.8589
18595TIP3    H277201   3.263   3.378  12.602 -0.4890 -0.4313  0.0583
18596TIP3   OH277202   4.258   2.525   0.845 -0.1691 -0.1245  0.0477
18596TIP3    H177203   4.164   2.527   0.860  0.1615 -0.0888  2.6324
18596TIP3    H277204   4.296   2.539   0.932  2.2172 -1.6108 -0.6690
18597TIP3   OH277205   0.361   0.750  16.376  0.8589 -0.1596 -0.3344
18597TIP3    H177206   0.364   0.834  16.421  0.8726 -1.3797  2.0990
18597TIP3    H277207   0.440   0.749  16.322  1.2067  1.0923  0.1175
18598TIP3   OH277208   2.390   3.623   3.367 -0.0936 -0.0645  0.0569
18598TIP3    H177209   2.437   3.619   3.451  1.0492  2.9473 -0.2833
18598TIP3    H277210   2.455   3.596   3.302 -0.7742 -1.7415  0.0275
18599TIP3   OH277211   2.379   1.193  10.909 -0.5212 -0.1054  0.2736
18599TIP3    H177212   2.330   1.171  10.830 -0.9772 -3.1901  1.2585
18599TIP3    H277213   2.319   1.245  10.962 -1.4735 -0.8863 -0.0145
18600TIP3   OH277214   5.407   4.042  12.850 -0.2900 -0.0143  0.7423
18600TIP3    H177215   5.355   4.088  12.916 -0.6267 -0.7718  1.0166
18600TIP3    H277216   5.404   3.951  12.877 -0.5782 -0.3591 -0.4235
18601TIP3   OH277217   0.052   6.697  15.532 -0.0805 -0.0187 -0.0068
18601TIP3    H177218   0.018   6.610  15.511 -1.2135  0.6027 -0.9142
18601TIP3    H277219   0.119   6.713  15.465 -0.7771  0.2973 -0.6502
18602TIP3   OH277220   2.443   6.195   0.409 -0.0135 -0.0485 -0.4617
18602TIP3    H177221   2.412   6.239   0.329 -1.3257 -2.1696 -1.2249
18602TIP3    H277222   2.364   6.185   0.463  0.8505  1.3003  1.1316
18603TIP3   OH277223   6.493   3.351  13.836  0.1631  0.3240  0.2809
18603TIP3    H177224   6.468   3.356  13.744  0.9151  2.0931  0.1286
18603TIP3    H277225   6.586   3.326  13.834 -0.6274 -3.1726  0.7399
18604TIP3   OH277226   6.051   0.305  16.384  0.3038 -0.2617 -0.1797
18604TIP3    H177227   6.140   0.304  16.419  0.1982 -1.1310  0.0972
18604TIP3    H277228   6.044   0.388  16.338  0.3981  1.0205  1.9823
18605TIP3   OH277229   0.446   2.920   3.531  0.7252 -0.3061 -1.0005
18605TIP3    H177230   0.450   2.901   3.438  1.0712 -0.1816 -1.0144
18605TIP3    H277231   0.436   2.834   3.573  0.3469 -0.3401 -1.1638
18606TIP3   OH277232   5.245   3.325   1.204  0.1650 -0.4920 -0.0807
18606TIP3    H177233   5.263   3.397   1.143  1.5045 -1.1818 -0.5297
18606TIP3    H277234   5.204   3.258   1.149  1.1988 -1.0405 -0.1978
18607TIP3   OH277235   5.428   6.478  14.329  0.5381 -0.4270  0.5108
18607TIP3    H177236   5.347   6.435  14.354  1.4432 -1.8993  1.0723
18607TIP3    H277237   5.473   6.413  14.274  1.7062  0.0121  0.9206
18608TIP3   OH277238   6.771   3.551   1.991 -0.4131  0.0335  0.0555
18608TIP3    H177239   6.714   3.540   1.915 -0.2458  0.9550 -0.2134
18608TIP3    H277240   6.849   3.499   1.972 -0.8957 -0.7433  0.1561
18609TIP3   OH277241   4.699   5.310  16.924  0.1579  0.4135 -0.0575
18609TIP3    H177242   4.627   5.247  16.918  0.1146  0.4648 -0.0751
18609TIP3    H277243   4.701   5.353  16.839 -0.0921  0.7445  0.1034
18610TIP3   OH277244   2.571   5.225  11.269 -0.2898  0.0923  0.1909
18610TIP3    H177245   2.520   5.201  11.191  0.8694  0.8051 -0.8268
18610TIP3    H277246   2.535   5.171  11.339 -0.7251 -1.2791 -1.0452
18611TIP3   OH277247   0.482   0.708  16.122  0.1253  0.1124  0.4316
18611TIP3    H177248   0.402   0.666  16.090  0.3950  0.5860 -0.9107
18611TIP3    H277249   0.542   0.707  16.047  0.7976  1.2459  0.9234
18612TIP3   OH277250   3.065   0.528   3.527  0.5804 -0.7406  0.5924
18612TIP3    H177251   3.044   0.506   3.618 -0.1415  1.1979  0.9412
18612TIP3    H277252   3.056   0.623   3.523  2.9813 -0.5144 -0.9249
18613TIP3   OH277253   2.091   4.691   3.290  0.4776  1.0819  0.2437
18613TIP3    H177254   2.046   4.699   3.374  1.8948  0.6566  1.0722
18613TIP3    H277255   2.044   4.750   3.232 -1.1096  0.6844  1.0762
18614TIP3   OH277256   4.435   6.756   2.991 -0.2949 -0.2441  0.1290
18614TIP3    H177257   4.410   6.846   3.009 -0.5997 -0.4835  0.9648
18614TIP3    H277258   4.378   6.729   2.919 -0.5255  0.0860  0.1877
18615TIP3   OH277259   2.190   1.218  12.350 -0.5755 -0.4292  0.1270
18615TIP3    H177260   2.134   1.155  12.305 -2.0247  0.7087  0.2388
18615TIP3    H277261   2.235   1.167  12.417 -0.8195 -1.5423 -0.5285
18616TIP3   OH277262   3.355   3.866   3.336 -0.7914 -0.0806 -0.4446
18616TIP3    H177263   3.283   3.807   3.312 -1.4236  0.2812  0.5214
18616TIP3    H277264   3.315   3.931   3.393 -0.2198  1.6228 -1.9148
18617TIP3   OH277265   4.606   1.854   3.825  0.1143 -0.1239  0.4292
18617TIP3    H177266   4.675   1.795   3.854 -0.7187 -0.2684  2.2268
18617TIP3    H277267   4.638   1.941   3.845 -0.7791 -0.2539  2.6742
18618TIP3   OH277268   3.717   1.474  13.428 -0.2241 -0.3879 -0.5770
18618TIP3    H177269   3.725   1.548  13.488  0.1881 -0.6410 -0.3137
18618TIP3    H277270   3.790   1.485  13.366 -0.8131  0.0307 -1.2190
18619TIP3   OH277271   4.235   2.179   2.882  0.3725  0.1415 -0.0196
18619TIP3    H177272   4.251   2.216   2.796 -0.9436 -0.1378 -0.4124
18619TIP3    H277273   4.288   2.099   2.885  1.8866  1.1276  0.1778
18620TIP3   OH277274   4.096   0.400   5.866 -0.3262 -0.1834 -0.3116
18620TIP3    H177275   4.078   0.381   5.775  0.0786  1.4104 -0.7511
18620TIP3    H277276   4.055   0.328   5.915  0.6881 -1.8507 -1.8003
18621TIP3   OH277277   5.947   4.597  11.737  0.5019  0.1045  0.1343
18621TIP3    H177278   6.042   4.607  11.729  0.3610  2.0477  0.2701
18621TIP3    H277279   5.926   4.631  11.824 -0.2796 -0.7682  0.3079
18622TIP3   OH277280   0.055   4.751  15.477 -0.2771 -0.6289  0.7880
18622TIP3    H177281   0.002   4.831  15.484  0.8670  0.2737 -0.3036
18622TIP3    H277282   0.101   4.760  15.393 -1.2190 -3.1463 -0.0833
18623TIP3   OH277283   4.159   3.329   2.003  0.1796  0.5587  0.8843
18623TIP3    H177284   4.217   3.335   2.079  0.9181  0.2154  0.3693
18623TIP3    H277285   4.112   3.247   2.015  2.4194 -1.0279 -0.4314
18624TIP3   OH277286   1.202   4.414  13.302 -0.2618  0.9040 -0.0170
18624TIP3    H177287   1.166   4.326  13.299  1.0561  0.2927  1.1243
18624TIP3    H277288   1.225   4.427  13.394 -1.1009  2.7231 -0.0187
18625TIP3   OH277289   3.085   1.675   4.317  0.0411  0.2854 -0.1788
18625TIP3    H177290   3.146   1.623   4.265  0.0896  0.7913 -0.6386
18625TIP3    H277291   3.026   1.611   4.357 -0.2518 -0.0842 -1.1894
18626TIP3   OH277292   0.455   6.622   2.607  0.0148  0.3361  0.2402
18626TIP3    H177293   0.377   6.570   2.626  0.9710 -0.6108  1.8538
18626TIP3    H277294   0.456   6.690   2.673  0.2304  0.7235 -0.1545
18627TIP3   OH277295   4.114   2.592   5.293 -0.5850 -0.0310 -0.3537
18627TIP3    H177296   4.044   2.562   5.235  0.0503 -3.8832  0.5520
18627TIP3    H277297   4.091   2.555   5.378  1.1495  1.0047  0.6137
18628TIP3   OH277298   6.209   2.612   1.761 -0.3710  0.0465  0.1544
18628TIP3    H177299   6.302   2.591   1.767 -0.1359  1.0002  0.0932
18628TIP3    H277300   6.197   2.687   1.820 -1.2750 -0.5886  0.8107
18629TIP3   OH277301   0.525   2.248   2.280  0.4264 -0.0784  0.0181
18629TIP3    H177302   0.431   2.264   2.287  0.3943  0.3082 -1.1241
18629TIP3    H277303   0.540   2.231   2.187  1.5634  0.3799  0.0999
18630TIP3   OH277304   3.556   6.044   2.614 -0.1894 -0.0337 -0.3631
18630TIP3    H177305   3.624   5.979   2.595 -0.7924 -0.4168 -1.3287
18630TIP3    H277306   3.474   6.000   2.591 -0.8330  0.1993  1.3749
18631TIP3   OH277307   1.636   2.105  15.849 -0.2393 -0.4404  0.1065
18631TIP3    H177308   1.676   2.177  15.800  1.7932 -2.2024 -1.0143
18631TIP3    H277309   1.702   2.081  15.914 -1.0394 -1.0390  0.7175
18632TIP3   OH277310   4.632   1.613  14.072 -0.2946  0.1958  0.4791
18632TIP3    H177311   4.709   1.602  14.128  0.2964  1.3326 -0.0824
18632TIP3    H277312   4.645   1.697  14.029 -2.0173  0.5550  0.6061
18633TIP3   OH277313   2.083   1.080  16.723 -0.1372 -0.8638  0.2231
18633TIP3    H177314   2.074   1.109  16.632 -0.6856 -2.2558 -0.1937
18633TIP3    H277315   2.171   1.109  16.748 -0.1539 -0.0562 -0.5911
18634TIP3   OH277316   6.501   2.649  13.779 -0.0976 -0.1444  0.1003
18634TIP3    H177317   6.575   2.709  13.780 -0.6425  0.5490 -0.6254
18634TIP3    H277318   6.527   2.581  13.717  0.8452 -1.1190  1.4925
18635TIP3   OH277319   3.905   5.131  11.775 -0.0951 -0.1689 -0.8205
18635TIP3    H177320   3.868   5.217  11.753 -0.3042 -0.7016 -2.7357
18635TIP3    H277321   3.999   5.146  11.779 -0.1547  0.2190 -0.7827
18636TIP3   OH277322   4.563   6.535   1.648  0.6528 -0.3577  0.9485
18636TIP3    H177323   4.496   6.486   1.601  1.3458  0.3096 -0.7869
18636TIP3    H277324   4.528   6.624   1.653  1.4304  0.0149 -0.0456
18637TIP3   OH277325   5.044   5.315   2.728 -0.0752 -0.1910  0.4234
18637TIP3    H177326   5.016   5.315   2.820 -0.1650  0.8875  0.4090
18637TIP3    H277327   4.965   5.295   2.679 -0.2452  0.1956  0.5345
18638TIP3   OH277328   3.421   6.574  16.159  0.2911 -0.2001  0.3132
18638TIP3    H177329   3.433   6.669  16.149  0.4963 -0.2130  0.4185
18638TIP3    H277330   3.502   6.545  16.200  0.7427 -0.5965 -0.8211
18639TIP3   OH277331   5.096   4.925  12.555 -0.0625  0.3337  0.3062
18639TIP3    H177332   5.125   4.909  12.465 -0.0757  2.3510 -0.1118
18639TIP3    H277333   5.006   4.892  12.557 -0.2005  0.6266 -0.5480
18640TIP3   OH277334   5.691   2.533  12.563  0.6296  0.6044  0.1029
18640TIP3    H177335   5.626   2.597  12.594  0.7001  0.9393 -0.4163
18640TIP3    H277336   5.725   2.572  12.482  2.7140  1.2728  1.2195
18641TIP3   OH277337   6.154   6.032  13.467 -0.1863 -0.0912  0.6173
18641TIP3    H177338   6.184   6.030  13.376  0.0184 -1.9159  0.6766
18641TIP3    H277339   6.219   6.084  13.513  1.7213 -2.0822  0.3286
18642TIP3   OH277340   5.095   6.200   6.641  0.8551  0.4731 -0.4922
18642TIP3    H177341   5.034   6.262   6.681  0.0691  0.3539 -1.4537
18642TIP3    H277342   5.138   6.157   6.715 -0.2552  0.5463  0.2222
18643TIP3   OH277343   3.836   3.347  12.903  0.4224  0.3476 -0.4077
18643TIP3    H177344   3.744   3.330  12.879 -0.1088  1.0032  1.0622
18643TIP3    H277345   3.836   3.437  12.933  1.7951  0.7105 -1.4280
18644TIP3   OH277346   1.435   1.916  11.714 -0.6866 -0.3077  0.0431
18644TIP3    H177347   1.500   1.981  11.688 -0.7845  0.4335  1.5332
18644TIP3    H277348   1.484   1.833  11.716 -0.1938 -0.0310 -0.4044
18645TIP3   OH277349   1.735   3.549   1.666 -0.5460 -0.2305 -0.3545
18645TIP3    H177350   1.757   3.457   1.677  3.2541  0.6667  0.7585
18645TIP3    H277351   1.763   3.569   1.576 -1.0068 -0.0611 -0.4616
18646TIP3   OH277352   3.623   1.008   4.940 -0.0777  0.9158 -0.4644
18646TIP3    H177353   3.547   1.027   4.994  0.9972  1.4399  0.9310
18646TIP3    H277354   3.631   1.083   4.881 -0.3036  1.1505 -0.1987
18647TIP3   OH277355   6.542   6.476   5.516 -0.2180  0.1082 -0.4611
18647TIP3    H177356   6.497   6.553   5.552  0.4380  0.6914 -0.8616
18647TIP3    H277357   6.626   6.474   5.561  0.6024  0.8352 -1.8839
18648TIP3   OH277358   3.689   2.903  11.828 -0.4730 -0.8570 -0.1718
18648TIP3    H177359   3.699   2.974  11.764 -1.5185 -0.4972  0.0450
18648TIP3    H277360   3.779   2.883  11.856 -0.1218 -0.0109 -0.6593
18649TIP3   OH277361   3.713   3.972   0.679  0.1877 -0.5351  0.2985
18649TIP3    H177362   3.754   3.994   0.762  0.0311 -0.8473  0.4614
18649TIP3    H277363   3.655   4.045   0.661 -0.0774 -0.6520  0.6647
18650TIP3   OH277364   3.730   4.336   2.190 -0.2071 -0.0226 -0.7945
18650TIP3    H177365   3.767   4.280   2.122 -1.1393  0.0762 -1.3998
18650TIP3    H277366   3.715   4.278   2.264  0.1722 -0.2690 -0.9064
18651TIP3   OH277367   4.922   4.576  13.113 -0.1418  0.0509  0.3377
18651TIP3    H177368   4.898   4.660  13.153  0.1208  0.9677 -1.3591
18651TIP3    H277369   5.011   4.559  13.145 -0.2941  0.2783  0.8930
18652TIP3   OH277370   3.380   5.433   4.555  0.6154 -0.5005 -0.1582
18652TIP3    H177371   3.399   5.340   4.548 -1.4693 -0.8609 -2.5939
18652TIP3    H277372   3.303   5.437   4.613  0.5860 -0.3161 -0.2093
18653TIP3   OH277373   2.031   1.101   5.487  0.6496  0.1546 -0.3234
18653TIP3    H177374   2.009   1.142   5.571  0.7834  0.9806 -0.6918
18653TIP3    H277375   2.049   1.009   5.510 -1.7394 -0.2412  0.2174
18654TIP3   OH277376   1.180   0.461  12.187  0.0832 -0.1246  0.0765
18654TIP3    H177377   1.147   0.536  12.237  1.5726  0.8199 -0.2539
18654TIP3    H277378   1.192   0.392  12.252 -1.3134 -0.0790  0.3951
18655TIP3   OH277379   4.025   2.432  11.665 -0.1879  0.0590  0.1096
18655TIP3    H177380   4.075   2.495  11.611  0.8899  0.6866  1.7650
18655TIP3    H277381   3.972   2.384  11.601  0.3706  1.3510 -1.4242
18656TIP3   OH277382   1.404   4.011   5.588  0.1739 -0.3332 -0.5054
18656TIP3    H177383   1.490   3.980   5.559 -1.0897 -2.1651 -2.7522
18656TIP3    H277384   1.380   3.952   5.659 -0.3182 -1.6806 -1.7373
18657TIP3   OH277385   5.113   2.466  14.219  0.0759 -0.1735 -0.6093
18657TIP3    H177386   5.039   2.413  14.248 -0.7189  0.7426 -0.9057
18657TIP3    H277387   5.181   2.402  14.197  0.4109 -0.9573  2.3152
18658TIP3   OH277388   2.791   2.615  11.909 -0.2747 -0.0904  0.2531
18658TIP3    H177389   2.870   2.569  11.937 -0.6475 -0.8008  0.1588
18658TIP3    H277390   2.788   2.693  11.965  0.4555 -0.0821  0.2969
18659TIP3   OH277391   1.756   3.188  17.100 -0.3386 -0.7327  0.2384
18659TIP3    H177392   1.800   3.269  17.125  1.0381 -1.3343 -0.1067
18659TIP3    H277393   1.667   3.197  17.133 -0.0322  0.6582  0.7355
18660TIP3   OH277394   3.509   3.286  15.237 -0.2051 -0.3662  0.1168
18660TIP3    H177395   3.463   3.227  15.177 -2.3320 -0.3240  1.6045
18660TIP3    H277396   3.469   3.269  15.323  1.1105  1.2251  1.1033
18661TIP3   OH277397   1.529   2.501   0.639  0.7062 -0.7218  0.1005
18661TIP3    H177398   1.559   2.411   0.653  2.9812 -0.0444  0.0674
18661TIP3    H277399   1.583   2.533   0.566 -0.6949  0.3956 -0.4881
18662TIP3   OH277400   2.888   6.381  12.176 -0.3214 -0.6951 -0.3196
18662TIP3    H177401   2.871   6.327  12.253 -1.4707  1.6415  1.1931
18662TIP3    H277402   2.806   6.381  12.127 -0.4354 -0.0907 -0.1357
18663TIP3   OH277403   1.565   3.118  11.359 -0.8036  0.4970  0.2728
18663TIP3    H177404   1.599   3.208  11.352 -1.4375  0.7500  0.3749
18663TIP3    H277405   1.558   3.088  11.269  0.3926  0.1626  0.2690
18664TIP3   OH277406   6.403   4.292   5.763 -0.2326 -0.0392  0.3174
18664TIP3    H177407   6.432   4.279   5.853  0.0206 -0.3422  0.1963
18664TIP3    H277408   6.328   4.350   5.770 -1.3744 -1.5128  0.8930
18665TIP3   OH277409   2.733   3.619   2.019 -0.7003  0.1720 -0.4572
18665TIP3    H177410   2.796   3.666   2.075 -0.3187 -0.3378 -0.4494
18665TIP3    H277411   2.723   3.675   1.942 -0.9166  0.6832 -0.0633
18666TIP3   OH277412   3.920   6.589   2.178  0.1934 -0.1156 -0.2591
18666TIP3    H177413   3.868   6.508   2.185  1.5896 -1.1096 -0.9303
18666TIP3    H277414   3.862   6.650   2.133 -1.7768  0.0915  2.2895
18667TIP3   OH277415   1.298   5.649  13.116 -0.1829 -0.2410 -0.1644
18667TIP3    H177416   1.287   5.627  13.209 -0.8752  0.9112  0.0497
18667TIP3    H277417   1.318   5.743  13.116  2.1732 -0.6784 -1.0572
18668TIP3   OH277418   1.019   2.519   2.478 -0.1480  0.1732 -0.3327
18668TIP3    H177419   0.945   2.567   2.440  0.1557  1.5358  0.7333
18668TIP3    H277420   1.018   2.434   2.433 -1.3560  0.7701 -1.5027
18669TIP3   OH277421   2.196   2.916  15.583  0.8353 -0.4236  0.2542
18669TIP3    H177422   2.126   2.935  15.646  2.0742 -1.2192  1.9348
18669TIP3    H277423   2.154   2.928  15.497 -0.5671  1.9769  1.1570
18670TIP3   OH277424   6.150   0.597   2.261 -0.4269 -0.6329  0.3826
18670TIP3    H177425   6.098   0.516   2.255 -0.3667 -0.6474 -0.0082
18670TIP3    H277426   6.102   0.652   2.323 -0.1906 -1.1732  1.0558
18671TIP3   OH277427   5.164   1.354   1.981 -0.6570  0.0581 -0.3415
18671TIP3    H177428   5.228   1.284   1.998 -1.3828 -0.3208  1.0387
18671TIP3    H277429   5.149   1.394   2.067 -2.0818  0.2851 -0.6656
18672TIP3   OH277430   2.111   2.450  17.148 -0.2379 -0.6788 -0.2766
18672TIP3    H177431   2.192   2.398  17.148 -0.4935 -1.1701 -2.7944
18672TIP3    H277432   2.044   2.390  17.180  0.3414 -0.2371  1.9370
18673TIP3   OH277433   5.458   1.402   3.875 -0.6401 -0.1905  0.5917
18673TIP3    H177434   5.550   1.387   3.849 -0.7063  0.5667 -0.1289
18673TIP3    H277435   5.460   1.485   3.923 -1.0567  0.2661 -0.1543
18674TIP3   OH277436   5.622   0.986   2.098 -0.2150 -0.3653  0.1805
18674TIP3    H177437   5.648   0.936   2.175  0.6291 -1.8630 -1.0047
18674TIP3    H277438   5.526   0.976   2.095 -0.1959 -0.7663  0.7152
18675TIP3   OH277439   1.398   6.042   1.457  0.1760 -0.4124  0.1875
18675TIP3    H177440   1.394   5.947   1.459  1.6490 -0.4797  0.7835
18675TIP3    H277441   1.413   6.068   1.548 -0.7408  0.4401  0.1234
18676TIP3   OH277442   0.501   3.867   3.469  0.4629 -0.3172 -0.1328
18676TIP3    H177443   0.475   3.943   3.521  2.4095  0.6280 -0.4410
18676TIP3    H277444   0.489   3.793   3.528  0.6355  0.4910  0.9533
18677TIP3   OH277445   1.524   4.911  11.684  0.0911 -0.2743 -0.3965
18677TIP3    H177446   1.447   4.967  11.692 -1.2280 -2.2409  2.6199
18677TIP3    H277447   1.589   4.950  11.741  0.5567  0.1593 -1.2034
18678TIP3   OH277448   0.958   5.804  12.842 -0.0339 -0.3340 -0.0357
18678TIP3    H177449   1.006   5.722  12.832  1.3243  0.5237 -0.9153
18678TIP3    H277450   1.020   5.872  12.812 -2.0156  0.7711 -1.9467
18679TIP3   OH277451   0.282   4.370   0.394 -0.0340  0.1726 -0.0925
18679TIP3    H177452   0.311   4.292   0.442 -0.5533 -0.2200 -0.4134
18679TIP3    H277453   0.257   4.337   0.308  0.5300  0.8208 -0.5101
18680TIP3   OH277454   4.908   2.310  13.065 -0.2737  0.1653 -0.2368
18680TIP3    H177455   4.897   2.215  13.062 -1.0562  0.2750 -1.7502
18680TIP3    H277456   4.959   2.326  13.144  1.0984 -1.6346 -0.6856
18681TIP3   OH277457   4.945   2.228  10.709  0.5624 -0.3806  0.0909
18681TIP3    H177458   4.974   2.300  10.652  3.0914  0.4846  2.2427
18681TIP3    H277459   4.893   2.271  10.776  0.7745 -0.7911  0.5228
18682TIP3   OH277460   4.367   6.711   5.654  0.1783  0.1461 -0.4242
18682TIP3    H177461   4.451   6.748   5.626 -0.2303  1.0236 -0.5384
18682TIP3    H277462   4.348   6.644   5.588  0.1395  0.8883 -1.1882
18683TIP3   OH277463   4.194   5.405   0.145 -0.0227 -0.1479 -0.1058
18683TIP3    H177464   4.115   5.460   0.138  0.0555 -0.0168  0.0561
18683TIP3    H277465   4.201   5.364   0.059 -1.6135 -2.0065  0.5765
18684TIP3   OH277466   5.687   2.567  10.438  0.3228 -0.0449  0.2551
18684TIP3    H177467   5.718   2.499  10.377 -0.2933 -0.7329  0.6959
18684TIP3    H277468   5.689   2.647  10.386  1.9912 -0.2060  0.0034
18685TIP3   OH277469   2.334   0.403  10.876 -0.1399 -0.3318  0.6806
18685TIP3    H177470   2.250   0.431  10.840 -0.3430 -0.8953  0.6986
18685TIP3    H277471   2.398   0.426  10.808 -0.1649  1.0421  1.1039
18686TIP3   OH277472   5.287   0.655   4.495  0.3323  0.4500  0.1746
18686TIP3    H177473   5.278   0.660   4.400  0.1752 -0.4019  0.1362
18686TIP3    H277474   5.312   0.564   4.512 -0.1330  0.4661  0.9858
18687TIP3   OH277475   0.720   1.105   3.716  0.4397 -0.1114 -0.0035
18687TIP3    H177476   0.780   1.179   3.727 -1.0775  0.8478  2.9109
18687TIP3    H277477   0.773   1.028   3.738  0.7662  0.6920  2.2767
18688TIP3   OH277478   0.917   1.077  15.973  0.8076  0.2295  0.2943
18688TIP3    H177479   0.989   1.060  15.912  1.4173  1.6409  0.5810
18688TIP3    H277480   0.894   1.169  15.960  0.5277  0.4001  1.7262
18689TIP3   OH277481   1.070   1.643   6.051  1.0571 -0.8489  0.4716
18689TIP3    H177482   1.056   1.549   6.063  1.1790 -0.9068  0.1526
18689TIP3    H277483   1.157   1.650   6.014  1.1653 -0.5897  0.7682
18690TIP3   OH277484   2.973   1.614  11.839  0.2910  0.4060 -0.0506
18690TIP3    H177485   2.926   1.564  11.906 -0.7016 -0.3922 -1.2880
18690TIP3    H277486   2.906   1.667  11.796  0.6907  0.0560 -1.1487
18691TIP3   OH277487   2.918   4.236  12.679 -0.1210 -0.0726 -0.4975
18691TIP3    H177488   2.877   4.155  12.649 -0.5908  0.4723 -1.3928
18691TIP3    H277489   2.845   4.292  12.704  0.2410 -0.2937  1.1820
18692TIP3   OH277490   5.396   2.555   5.700  0.2197  1.1383 -0.4606
18692TIP3    H177491   5.478   2.510   5.718  0.0021  0.1807 -1.6889
18692TIP3    H277492   5.419   2.624   5.638  0.2094  1.3004 -0.2827
18693TIP3   OH277493   4.282   5.209  12.745 -0.3219 -0.4509 -0.3829
18693TIP3    H177494   4.309   5.301  12.755 -0.3829 -0.3812 -0.8442
18693TIP3    H277495   4.352   5.159  12.786 -0.2140 -0.2055 -0.2601
18694TIP3   OH277496   3.625   5.493   2.956  0.1706 -0.3344  0.3052
18694TIP3    H177497   3.685   5.499   2.882  0.2476 -2.5964  0.0891
18694TIP3    H277498   3.632   5.577   3.001  1.0717  0.6236 -1.5263
18695TIP3   OH277499   6.405   4.808  14.307 -0.0483 -0.5491 -0.0311
18695TIP3    H177500   6.352   4.755  14.368 -1.7302 -0.4310 -1.3205
18695TIP3    H277501   6.370   4.788  14.221  1.9502 -0.3131 -0.9453
18696TIP3   OH277502   4.140   1.151  12.341 -0.3331 -0.6170 -0.2724
18696TIP3    H177503   4.220   1.201  12.352 -1.6681  1.3068  1.2836
18696TIP3    H277504   4.126   1.149  12.246 -0.9715  3.3310 -0.4005
18697TIP3   OH277505   2.109   2.729   0.002  0.5660  0.0821 -0.0874
18697TIP3    H177506   2.194   2.759  -0.028  1.3697 -1.6139  0.3460
18697TIP3    H277507   2.103   2.638  -0.029 -1.0726  0.1453 -0.0780
18698TIP3   OH277508   4.689   5.425  12.700 -0.4922  0.4756  0.1711
18698TIP3    H177509   4.707   5.516  12.674  2.2074  0.5001  1.7908
18698TIP3    H277510   4.652   5.433  12.788  0.1308  0.0179  0.4817
18699TIP3   OH277511   3.718   2.938  16.046 -0.1163  0.0153 -0.0986
18699TIP3    H177512   3.678   2.998  15.983 -0.4602 -0.1179 -0.0135
18699TIP3    H277513   3.749   2.865  15.993  0.4848  0.3584 -0.2268
18700TIP3   OH277514   3.538   1.838   1.121  0.2208 -0.4962  0.2537
18700TIP3    H177515   3.538   1.793   1.036 -0.4643 -0.6635  0.3297
18700TIP3    H277516   3.462   1.896   1.117  0.8065  0.2820  0.3552
18701TIP3   OH277517   5.266   0.152  13.838  0.1951  0.1368 -0.1157
18701TIP3    H177518   5.316   0.220  13.884 -1.5075 -0.1288  2.3411
18701TIP3    H277519   5.187   0.198  13.807  0.0651 -0.2583 -0.3714
18702TIP3   OH277520   4.068   1.494   1.493  0.2605  0.0698 -0.2189
18702TIP3    H177521   4.135   1.559   1.470  0.4833 -0.3928 -0.9105
18702TIP3    H277522   4.026   1.473   1.410 -1.7544  1.4230  0.4024
18703TIP3   OH277523   6.296   0.316  16.523 -0.0764 -0.4836 -0.1912
18703TIP3    H177524   6.308   0.247  16.588  1.2224 -0.9781 -0.9147
18703TIP3    H277525   6.377   0.367  16.527 -0.5645  0.3328 -0.4462
18704TIP3   OH277526   1.899   1.255  16.916 -0.0741  0.2275 -0.5018
18704TIP3    H177527   1.828   1.286  16.860  0.6289  0.8625 -1.0650
18704TIP3    H277528   1.977   1.300  16.884  0.6779 -0.7962 -0.2006
18705TIP3   OH277529   0.901   6.295  14.340 -0.4147  0.0982  0.0601
18705TIP3    H177530   0.994   6.317  14.343  0.3426 -2.8082  0.9438
18705TIP3    H277531   0.865   6.331  14.421  0.3888 -0.3932  0.6503
18706TIP3   OH277532   3.263   0.041  15.663 -0.1459 -0.3166  0.2026
18706TIP3    H177533   3.209  -0.038  15.670  0.3035 -0.5319  1.7093
18706TIP3    H277534   3.340   0.021  15.716  2.0125 -0.4648 -2.7867
18707TIP3   OH277535   6.551   1.014   0.521 -0.0810  0.0653  0.3070
18707TIP3    H177536   6.595   0.950   0.466  0.9632  2.1887 -1.4685
18707TIP3    H277537   6.461   0.983   0.527 -0.4370  0.0320 -3.2491
18708TIP3   OH277538   2.525   6.655  16.023  0.6234 -0.9998 -0.1686
18708TIP3    H177539   2.439   6.660  15.981 -0.9151  0.7644  2.8893
18708TIP3    H277540   2.587   6.666  15.951 -1.7384 -0.2679 -2.2357
18709TIP3   OH277541   2.265   4.214  12.463 -0.4406  0.0535  0.3427
18709TIP3    H177542   2.338   4.220  12.525  0.0001 -1.5639  0.0308
18709TIP3    H277543   2.288   4.275  12.393  1.9787 -2.2421 -1.0343
18710TIP3   OH277544   0.913   2.158  16.899 -0.3961 -0.4526 -0.1116
18710TIP3    H177545   0.919   2.253  16.913  1.1209 -0.6717  0.9183
18710TIP3    H277546   0.882   2.150  16.809  0.4586  1.0233 -0.5825
18711TIP3   OH277547   2.945   5.461  15.525  0.6688 -0.0766  0.4345
18711TIP3    H177548   2.932   5.554  15.541  0.8957  0.2848 -1.2899
18711TIP3    H277549   2.864   5.420  15.557  0.1391  0.8274  0.2872
18712TIP3   OH277550   1.829   5.777  13.233 -0.1898  0.4702 -0.0254
18712TIP3    H177551   1.745   5.732  13.221 -0.7074  1.3343  0.2202
18712TIP3    H277552   1.827   5.847  13.168 -0.6880  1.9174  1.4804
18713TIP3   OH277553   4.132   1.698  16.543 -0.7574 -0.1023  0.1764
18713TIP3    H177554   4.071   1.769  16.523 -0.4336  0.7345  1.9381
18713TIP3    H277555   4.082   1.636  16.596 -0.4752 -0.1174  0.4339
18714TIP3   OH277556   6.379   6.287  13.300 -0.2997 -0.2689 -0.2921
18714TIP3    H177557   6.393   6.193  13.301 -1.6605 -0.5072 -1.1770
18714TIP3    H277558   6.444   6.321  13.238  1.4921 -0.3436  1.4515
18715TIP3   OH277559   6.296   4.874   0.449 -0.2485 -0.3490  0.2457
18715TIP3    H177560   6.264   4.874   0.358 -1.2854 -0.7770  0.5908
18715TIP3    H277561   6.254   4.950   0.489  0.9404  0.3891  0.1452
18716TIP3   OH277562   4.667   6.745   2.372 -0.1229  0.7353 -0.4544
18716TIP3    H177563   4.717   6.788   2.442 -0.3481  2.5089 -1.3271
18716TIP3    H277564   4.587   6.715   2.414  1.1622 -1.3120  0.7627
18717TIP3   OH277565   5.434   5.076   4.790 -0.0147  0.5319  0.2684
18717TIP3    H177566   5.422   5.143   4.857  0.8833 -1.2621  2.3330
18717TIP3    H277567   5.375   5.005   4.815  0.2808 -0.1618 -0.9012
18718TIP3   OH277568   3.500   4.317   5.072  0.5850 -0.1982  0.6448
18718TIP3    H177569   3.588   4.280   5.062  0.3412 -0.7488  0.4973
18718TIP3    H277570   3.469   4.329   4.982 -0.1389 -1.5954  0.6822
18719TIP3   OH277571   5.031   0.869  12.083  0.0639  0.2783 -0.1606
18719TIP3    H177572   5.126   0.869  12.070  0.3291 -1.9386  1.2710
18719TIP3    H277573   4.999   0.800  12.025 -0.1576 -1.5096  1.9638
18720TIP3   OH277574   0.120   1.102   4.114  0.5987  0.6244  0.0168
18720TIP3    H177575   0.197   1.157   4.123  1.3852 -0.3458 -0.5713
18720TIP3    H277576   0.107   1.063   4.201  1.5152 -0.1432 -0.1730
18721TIP3   OH277577   5.603   0.815   4.688 -0.3205 -0.3689 -0.8832
18721TIP3    H177578   5.546   0.871   4.634 -0.9548 -0.5562 -0.4197
18721TIP3    H277579   5.542   0.759   4.736  0.2484 -0.3939 -0.1784
18722TIP3   OH277580   1.256   3.308   5.227 -0.2701  0.4671 -0.6774
18722TIP3    H177581   1.301   3.360   5.160 -0.6028  0.8875 -0.5838
18722TIP3    H277582   1.315   3.308   5.302  0.0606  0.0791 -0.9388
18723TIP3   OH277583   6.072   5.028   1.229  0.4769  0.4077 -0.0405
18723TIP3    H177584   6.007   5.012   1.161  2.0049  1.5520 -1.9046
18723TIP3    H277585   6.105   4.941   1.252 -0.0383 -0.0024 -0.8097
18724TIP3   OH277586   4.514   3.941  16.270 -0.6140 -0.8126  0.9404
18724TIP3    H177587   4.517   4.015  16.331 -0.7339  0.1634 -0.2120
18724TIP3    H277588   4.487   3.867  16.324 -0.9626  0.0817  2.0277
18725TIP3   OH277589   1.740   2.031   3.599  0.2136 -0.2918  0.2679
18725TIP3    H177590   1.731   1.946   3.555 -0.1136 -0.5100  0.7462
18725TIP3    H277591   1.650   2.055   3.623  0.0383  1.1254 -1.5597
18726TIP3   OH277592   4.708   0.472  16.336 -0.9890  0.2825 -0.2894
18726TIP3    H177593   4.758   0.553  16.336 -0.8389  0.1910 -0.7300
18726TIP3    H277594   4.691   0.454  16.429  0.5682 -0.1730 -0.0700
18727TIP3   OH277595   4.046   3.664   5.387 -0.0187  0.6456 -0.2470
18727TIP3    H177596   4.069   3.584   5.434 -0.9607 -0.0534 -0.9397
18727TIP3    H277597   4.130   3.704   5.366  0.4877 -0.4522 -0.3749
18728TIP3   OH277598   6.052   1.669  12.170  0.0037 -0.6107  0.0811
18728TIP3    H177599   5.999   1.745  12.145 -0.1745 -0.3875  1.1174
18728TIP3    H277600   6.001   1.593  12.141 -0.6216 -0.3841  0.5837
18729TIP3   OH277601   0.360   0.626  14.291 -0.1555 -0.5390 -0.0690
18729TIP3    H177602   0.346   0.648  14.199  1.0753 -1.1966 -0.4439
18729TIP3    H277603   0.406   0.543  14.289  2.7224  0.8918  1.0054
18730TIP3   OH277604   1.792   2.077  14.365 -0.1530 -0.3385  0.8615
18730TIP3    H177605   1.825   2.086  14.455 -0.5611 -0.3148  1.0119
18730TIP3    H277606   1.697   2.064  14.376 -0.3053  0.3469  0.4062
18731TIP3   OH277607   3.805   4.330   1.319  0.1474  0.2832 -0.2288
18731TIP3    H177608   3.847   4.414   1.337 -0.6565  1.0735 -1.8608
18731TIP3    H277609   3.873   4.265   1.341  0.9330  1.3420  0.6328
18732TIP3   OH277610   1.025   4.231   5.694 -0.1573  0.3150  0.3767
18732TIP3    H177611   0.991   4.241   5.605 -1.0669 -0.2793  0.6407
18732TIP3    H277612   0.989   4.147   5.724 -0.0102  0.5951  1.3707
18733TIP3   OH277613   4.686   2.058   0.676 -0.2937  0.1020 -0.2698
18733TIP3    H177614   4.609   2.100   0.639 -0.5152  0.2941  0.3971
18733TIP3    H277615   4.657   2.026   0.761 -0.6009 -2.7990 -1.3505
18734TIP3   OH277616   1.447   6.154   5.623 -0.0887  0.4811 -0.2036
18734TIP3    H177617   1.517   6.205   5.664 -1.9966  0.6122  3.3700
18734TIP3    H277618   1.377   6.218   5.608 -1.1188 -0.3768  0.7614
18735TIP3   OH277619   1.371   3.877   5.062 -0.1621  0.4576 -0.0650
18735TIP3    H177620   1.275   3.874   5.068 -0.1740  0.7599 -0.0978
18735TIP3    H277621   1.400   3.899   5.150  0.0031 -2.0156  0.5668
18736TIP3   OH277622   0.922   2.535  12.234 -0.1596 -0.0999  0.1321
18736TIP3    H177623   0.933   2.489  12.151 -2.0497  0.3724 -0.4321
18736TIP3    H277624   0.969   2.618  12.221 -0.4984  0.0020 -0.5172
18737TIP3   OH277625   6.316   5.840   6.012  0.3431 -0.0530 -0.2456
18737TIP3    H177626   6.346   5.931   6.017  0.6602 -0.0123 -2.0055
18737TIP3    H277627   6.309   5.812   6.103 -1.4981  2.2764  0.4305
18738TIP3   OH277628   4.889   0.490  12.852  0.4152 -0.1566 -0.3580
18738TIP3    H177629   4.917   0.570  12.896  0.6706 -0.4669  0.0601
18738TIP3    H277630   4.944   0.484  12.774  1.0214 -0.3813  0.0751
18739TIP3   OH277631   2.973   4.969  16.332 -0.6280 -0.5083 -0.3789
18739TIP3    H177632   3.067   4.983  16.339 -0.4721 -1.9544  0.7773
18739TIP3    H277633   2.956   4.971  16.237  0.3206  1.0483 -0.5490
18740TIP3   OH277634   6.623   1.203   4.116 -0.0574  0.3634  0.0562
18740TIP3    H177635   6.712   1.175   4.098 -0.6037 -0.7303 -1.1072
18740TIP3    H277636   6.568   1.147   4.060 -1.5659  0.0465  1.7291
18741TIP3   OH277637   4.866   2.047  15.884  0.7199  0.5132  0.1116
18741TIP3    H177638   4.926   1.974  15.897 -0.7400 -0.6869  0.3296
18741TIP3    H277639   4.878   2.072  15.792  1.1899 -0.0408  0.0163
18742TIP3   OH277640   3.999   2.072  13.481 -0.3929  0.2648  0.1303
18742TIP3    H177641   3.995   2.152  13.533 -0.0712 -0.5253  1.3947
18742TIP3    H277642   4.087   2.037  13.497 -0.7308 -0.6468  0.0449
18743TIP3   OH277643   6.379   0.408  16.225  0.0685  0.2812 -0.6042
18743TIP3    H177644   6.298   0.459  16.227 -0.6592 -0.8476 -0.3510
18743TIP3    H277645   6.350   0.317  16.224  1.3028 -0.2767  2.2757
18744TIP3   OH277646   2.776   5.396   6.050 -0.3830 -0.2015  0.0643
18744TIP3    H177647   2.721   5.420   5.976  1.7870  1.4716 -1.1251
18744TIP3    H277648   2.733   5.437   6.126 -0.3563  1.9109 -0.9718
18745TIP3   OH277649   5.170   3.813  12.466 -0.0746 -0.4892  0.1753
18745TIP3    H177650   5.222   3.735  12.445 -0.5187 -0.7017 -0.1382
18745TIP3    H277651   5.099   3.780  12.521 -0.8390 -0.4744 -0.7838
18746TIP3   OH277652   3.419   3.878   3.797  0.2520 -0.1366  0.0139
18746TIP3    H177653   3.348   3.849   3.855  0.3234 -0.3377  0.0010
18746TIP3    H277654   3.376   3.892   3.713  0.0295  0.7419  0.2612
18747TIP3   OH277655   1.723   0.670  11.594  0.1182 -0.2509  0.3753
18747TIP3    H177656   1.628   0.678  11.585  0.3263 -0.0169 -3.6939
18747TIP3    H277657   1.756   0.753  11.560  1.8037 -0.7932  0.6423
18748TIP3   OH277658   4.381   6.682  13.613 -0.3720  0.2369  0.0054
18748TIP3    H177659   4.300   6.681  13.663 -0.8143  0.2357 -0.7028
18748TIP3    H277660   4.440   6.738  13.664 -1.2685  1.3919 -0.1704
18749TIP3   OH277661   4.843   0.583   3.149 -0.4155  0.0297  0.0015
18749TIP3    H177662   4.802   0.647   3.208 -0.7658  0.8726 -1.1210
18749TIP3    H277663   4.935   0.582   3.175 -0.4322  0.9113  0.1272
18750TIP3   OH277664   4.591   3.974   1.591  0.0002 -0.1747 -0.2525
18750TIP3    H177665   4.625   3.886   1.571  1.6184  0.7572 -1.8800
18750TIP3    H277666   4.636   4.000   1.671  0.1363 -0.4895 -0.2275
18751TIP3   OH277667   4.808   0.499   2.887 -0.0240 -0.2228 -0.6564
18751TIP3    H177668   4.739   0.560   2.862  0.5186  0.2118 -1.1182
18751TIP3    H277669   4.815   0.509   2.982 -1.5845 -1.3446 -0.3717
18752TIP3   OH277670   2.220   4.764   1.667 -0.4416  0.1166 -0.0488
18752TIP3    H177671   2.293   4.785   1.610  0.4504 -1.4947  0.4279
18752TIP3    H277672   2.162   4.711   1.612  0.0217 -0.7483  0.2691
18753TIP3   OH277673   1.900   4.023   4.534 -0.4610  0.6947  0.0933
18753TIP3    H177674   1.971   4.077   4.499  0.0791 -0.2443 -0.3095
18753TIP3    H277675   1.931   3.998   4.622 -0.0636 -0.0750 -0.2477
18754TIP3   OH277676   2.563   5.805  12.190  0.2220  0.1454  0.0946
18754TIP3    H177677   2.472   5.793  12.164  0.0120  2.1284 -0.2215
18754TIP3    H277678   2.611   5.739  12.140 -0.9342 -0.3833 -0.3479
18755TIP3   OH277679   6.037   1.397   5.116 -0.5457 -0.5407 -0.1779
18755TIP3    H177680   6.064   1.453   5.189  2.0774 -0.0902 -1.3723
18755TIP3    H277681   5.993   1.456   5.055 -1.0123 -0.5290  0.1666
18756TIP3   OH277682   6.167   0.492   4.533  0.5821  0.1017  0.2757
18756TIP3    H177683   6.238   0.525   4.588 -1.1293  3.3946  0.7615
18756TIP3    H277684   6.199   0.503   4.443  1.5631 -0.7776  0.5003
18757TIP3   OH277685   2.842   3.085  11.156 -0.3874  0.8011 -0.0697
18757TIP3    H177686   2.930   3.071  11.120 -0.9817 -1.1256 -0.8862
18757TIP3    H277687   2.854   3.081  11.251  0.1862 -1.2551 -0.1867
18758TIP3   OH277688   6.619   0.574   2.953 -0.3144 -0.0102 -0.1649
18758TIP3    H177689   6.662   0.494   2.924  1.4009  0.8098 -0.0092
18758TIP3    H277690   6.691   0.635   2.972 -1.3734  0.4289  3.0875
18759TIP3   OH277691   2.331   3.618   4.687  0.1061 -0.2500 -0.0947
18759TIP3    H177692   2.308   3.576   4.604  1.1943  1.0413 -1.1033
18759TIP3    H277693   2.424   3.640   4.677 -0.4068  2.4010  0.3362
18760TIP3   OH277694   2.005   2.962  15.866  0.0851  0.5123  0.2707
18760TIP3    H177695   2.060   2.885  15.877  0.6715  0.8665 -0.1199
18760TIP3    H277696   1.940   2.956  15.936  1.1336  0.5228  1.2691
18761TIP3   OH277697   6.790   0.904   5.961 -0.1384 -0.0424  0.4213
18761TIP3    H177698   6.815   0.813   5.975 -2.1832 -0.8191 -0.5925
18761TIP3    H277699   6.863   0.955   5.997  2.4019 -2.0835 -1.4658
18762TIP3   OH277700   4.142   3.335  11.876 -0.5167 -1.0362 -0.5148
18762TIP3    H177701   4.207   3.282  11.923 -0.6064 -0.2906  0.4777
18762TIP3    H277702   4.059   3.289  11.889 -1.0769  0.5898  2.5541
18763TIP3   OH277703   0.664   3.413  11.441 -0.2004 -0.3925  0.5760
18763TIP3    H177704   0.579   3.431  11.480 -1.0771  1.2959 -1.8769
18763TIP3    H277705   0.650   3.335  11.388 -0.3654  0.1507 -0.1906
18764TIP3   OH277706   4.907   2.526  11.314  0.0571 -0.1717  0.6429
18764TIP3    H177707   4.954   2.445  11.334  0.8610  0.1532  0.1481
18764TIP3    H277708   4.870   2.510  11.227 -1.1662 -0.5976  1.2230
18765TIP3   OH277709   0.024   6.350   6.589  0.0183  0.5016 -0.1230
18765TIP3    H177710   0.108   6.306   6.573  1.0188  1.7393  1.3136
18765TIP3    H277711   0.038   6.439   6.556 -1.4331  0.2232 -1.5931
18766TIP3   OH277712   0.093   0.275  17.065 -0.0340  0.6817  0.4653
18766TIP3    H177713   0.111   0.358  17.110  1.6658  1.2390 -1.1257
18766TIP3    H277714   0.079   0.300  16.974 -1.9432 -0.5684  0.3533
18767TIP3   OH277715   5.943   5.094   2.922 -0.9799 -0.1199 -0.2603
18767TIP3    H177716   5.935   5.032   2.995  0.1605  0.5790  0.4875
18767TIP3    H277717   5.956   5.179   2.964  0.7639  0.1489 -1.2523
18768TIP3   OH277718   1.767   0.566   0.336 -0.0411  0.3942 -0.2447
18768TIP3    H177719   1.760   0.501   0.266 -1.3321 -0.9926  1.1130
18768TIP3    H277720   1.855   0.554   0.370  0.0985  0.0892 -0.6938
18769TIP3   OH277721   5.289   5.457   5.194 -0.4600 -0.2391 -0.0449
18769TIP3    H177722   5.217   5.469   5.255 -1.6777  1.9655 -1.7572
18769TIP3    H277723   5.265   5.380   5.142 -0.0169 -1.3639  1.3474
18770TIP3   OH277724   2.274   1.330  11.256  0.1117 -0.4931  0.1772
18770TIP3    H177725   2.268   1.235  11.261  1.0130 -0.6295 -0.8657
18770TIP3    H277726   2.232   1.352  11.173  1.9818 -0.2447 -0.7554
18771TIP3   OH277727   4.258   3.869  16.476  0.5190 -0.2196 -0.7150
18771TIP3    H177728   4.257   3.776  16.497  3.3797 -0.1656  0.0522
18771TIP3    H277729   4.230   3.873  16.384  0.8114 -1.8662 -0.8977
18772TIP3   OH277730   2.898   3.116  13.333  0.4651  0.4507  0.2665
18772TIP3    H177731   2.884   3.048  13.267  1.2685  2.7578 -2.4942
18772TIP3    H277732   2.958   3.076  13.396 -1.2560 -2.2484  0.3520
18773TIP3   OH277733   4.063   3.228  14.535 -0.2999  0.2542 -0.7356
18773TIP3    H177734   4.084   3.318  14.513 -1.9476  0.4368 -1.7545
18773TIP3    H277735   4.024   3.233  14.622 -2.7791  0.9585 -1.8009
18774TIP3   OH277736   5.405   3.911  13.745  0.5644  0.3743  0.5732
18774TIP3    H177737   5.316   3.928  13.714  0.2149  0.1522  1.4225
18774TIP3    H277738   5.461   3.932  13.671 -0.2335  0.0405 -0.1396
18775TIP3   OH277739   3.664   5.231   3.777 -0.6783  0.5083 -0.2201
18775TIP3    H177740   3.701   5.288   3.710 -1.0833  2.6505  1.3051
18775TIP3    H277741   3.739   5.178   3.807  0.1081  1.4451 -0.4816
18776TIP3   OH277742   3.385   1.917  15.102  0.7153  0.1394  0.4112
18776TIP3    H177743   3.366   1.922  15.008 -0.4768  0.1394  0.6440
18776TIP3    H277744   3.354   2.001  15.136  1.0004  0.0720  0.8332
18777TIP3   OH277745   1.954   4.388  12.163 -0.2730 -0.3349  0.0073
18777TIP3    H177746   1.909   4.462  12.123  1.7040  1.5559  1.0786
18777TIP3    H277747   1.915   4.380  12.250 -0.0928 -0.1649  0.1048
18778TIP3   OH277748   0.969   5.831   3.650 -0.5354 -0.2030 -0.0367
18778TIP3    H177749   0.977   5.925   3.630 -0.2421 -0.2831 -0.2973
18778TIP3    H277750   0.878   5.810   3.628 -0.7354  0.1217  0.4540
18779TIP3   OH277751   4.583   3.174   4.709 -0.3608  0.1338 -0.3144
18779TIP3    H177752   4.512   3.231   4.680 -0.2463  0.4491  0.0212
18779TIP3    H277753   4.543   3.119   4.776 -1.0897 -1.7705 -2.1815
18780TIP3   OH277754   2.956   2.414  11.479 -0.4002  0.3650  1.0017
18780TIP3    H177755   2.950   2.386  11.388  0.7837 -1.4823  1.4270
18780TIP3    H277756   2.868   2.400  11.515 -0.9241  1.2927  0.1121
18781TIP3   OH277757   0.747   4.725   2.841 -0.1479 -0.0163 -0.5602
18781TIP3    H177758   0.786   4.768   2.917 -1.1287  2.0165 -1.1188
18781TIP3    H277759   0.812   4.733   2.772 -0.8604  2.0378 -1.0765
18782TIP3   OH277760   0.837   3.155  13.836  0.0023  0.1160  0.2199
18782TIP3    H177761   0.798   3.238  13.809 -2.0790 -0.2417  1.7919
18782TIP3    H277762   0.802   3.091  13.774  1.3285  0.3171 -0.7783
18783TIP3   OH277763   6.607   2.578  15.918 -0.3104  0.2500 -0.4628
18783TIP3    H177764   6.543   2.614  15.856 -1.1931 -1.3697 -0.5272
18783TIP3    H277765   6.561   2.578  16.002 -0.1272 -0.2384 -0.3641
18784TIP3   OH277766   4.966   5.595  16.449 -0.2101 -0.2838 -0.1988
18784TIP3    H177767   4.944   5.546  16.371  0.7270 -1.1568  0.0656
18784TIP3    H277768   4.999   5.530  16.511  1.3629  0.6877  0.0492
18785TIP3   OH277769   4.674   2.380  11.749 -0.4310 -0.2167  0.4136
18785TIP3    H177770   4.681   2.343  11.837  0.7646  0.7417  0.7527
18785TIP3    H277771   4.716   2.315  11.693  0.0326 -0.2110  0.7476
18786TIP3   OH277772   3.781   3.344  12.090  0.0848  0.1610  0.1615
18786TIP3    H177773   3.717   3.398  12.136 -0.7769 -1.2530  0.6820
18786TIP3    H277774   3.758   3.352  11.998 -0.7166 -0.1550  0.3253
18787TIP3   OH277775   3.327   2.325   5.212 -0.8341 -0.2921 -0.2377
18787TIP3    H177776   3.329   2.325   5.117 -1.3092  0.9318 -0.2726
18787TIP3    H277777   3.280   2.245   5.235 -1.2464 -0.2972 -1.0573
18788TIP3   OH277778   0.447   3.994   2.406  0.3536  0.2985 -0.4942
18788TIP3    H177779   0.530   3.976   2.451 -0.9975 -0.8259  1.6795
18788TIP3    H277780   0.403   3.910   2.401 -0.9740  0.9908 -0.9713
18789TIP3   OH277781   0.239   2.412   5.748 -0.2025 -0.3812  0.0016
18789TIP3    H177782   0.178   2.365   5.691 -2.2137  0.1675  1.6243
18789TIP3    H277783   0.186   2.476   5.793  1.6927  0.4839  1.1239
18790TIP3   OH277784   6.405   5.350  12.652  0.3647 -0.3123  0.4955
18790TIP3    H177785   6.361   5.272  12.685  0.2312  0.1138  1.3645
18790TIP3    H277786   6.493   5.346  12.687 -0.1991  0.8666  2.1599
18791TIP3   OH277787   1.031   0.028  16.820  0.0459  0.2841 -0.7885
18791TIP3    H177788   1.116   0.017  16.777  0.2465  1.9396 -0.9044
18791TIP3    H277789   0.996  -0.060  16.828  2.5988 -0.6615  1.0030
18792TIP3   OH277790   3.057   0.740  10.822  0.2703  0.2091  0.2062
18792TIP3    H177791   3.055   0.666  10.883  1.9599  0.4667  0.6300
18792TIP3    H277792   3.022   0.813  10.873  1.4500  0.3695  0.8080
18793TIP3   OH277793   2.665   6.118   2.814  0.3377  0.0835 -0.4511
18793TIP3    H177794   2.661   6.130   2.909  0.2045 -0.5927 -0.3628
18793TIP3    H277795   2.580   6.080   2.792  0.1748  0.7070 -0.9150
18794TIP3   OH277796   5.566   6.092   2.125 -0.5688 -0.0126 -0.1572
18794TIP3    H177797   5.584   6.186   2.129 -1.6899  0.2821 -1.3126
18794TIP3    H277798   5.629   6.053   2.186 -0.4188  1.5260  0.7366
18795TIP3   OH277799   5.752   4.926  13.583  0.2706 -0.5613 -0.5941
18795TIP3    H177800   5.746   4.979  13.662 -1.6671 -1.1071 -0.3303
18795TIP3    H277801   5.810   4.976  13.525  1.1555  0.1907  0.8689
18796TIP3   OH277802   4.517   5.033   5.655  0.3032 -0.3832 -0.2612
18796TIP3    H177803   4.610   5.021   5.635  0.7373 -0.5566  1.7015
18796TIP3    H277804   4.481   4.944   5.655  0.0091 -0.2845 -1.4536
18797TIP3   OH277805   0.422   3.412   5.043  0.3052 -0.1708  0.2458
18797TIP3    H177806   0.359   3.340   5.037 -0.1214  0.2653 -0.5236
18797TIP3    H277807   0.508   3.368   5.046  0.0109 -0.7364  0.6321
18798TIP3   OH277808   0.919   4.799   1.850 -0.2531  0.2354  0.1422
18798TIP3    H177809   0.879   4.724   1.805 -0.4276  1.2244 -1.4458
18798TIP3    H277810   0.847   4.862   1.858  0.3408  0.9816 -0.3021
18799TIP3   OH277811   5.826   5.415  17.213  0.4903  0.0298 -0.7961
18799TIP3    H177812   5.826   5.324  17.240  0.6728  0.3777  0.4352
18799TIP3    H277813   5.772   5.417  17.134  1.4154 -1.3139 -1.4872
18800TIP3   OH277814   5.755   5.951   0.556  0.7624 -0.3986  0.0165
18800TIP3    H177815   5.802   5.974   0.637  0.2381 -0.2500  0.2833
18800TIP3    H277816   5.682   6.013   0.553  1.0927 -0.0374 -0.8626
18801TIP3   OH277817   3.582   1.624  16.594  0.4284 -0.4970 -0.0519
18801TIP3    H177818   3.572   1.630  16.689  0.1652 -0.3229 -0.0919
18801TIP3    H277819   3.573   1.530  16.576  0.5404 -0.5387  0.1020
18802TIP3   OH277820   3.920   0.597  16.964  0.2645 -0.1224  0.4158
18802TIP3    H177821   4.015   0.581  16.969  0.2066 -0.0977  1.9143
18802TIP3    H277822   3.888   0.581  17.052 -0.7555  2.1823  0.5260
18803TIP3   OH277823   0.488   5.379   0.822  0.0190 -0.0172 -0.0732
18803TIP3    H177824   0.543   5.326   0.880  1.4950  0.9917 -0.4785
18803TIP3    H277825   0.452   5.447   0.879 -0.5652 -0.5019  0.1370
18804TIP3   OH277826   3.838   6.626   5.980 -0.4657  0.6436 -0.2777
18804TIP3    H177827   3.814   6.558   6.042 -0.4118  0.8705 -0.0074
18804TIP3    H277828   3.800   6.597   5.897 -0.6880  0.4305 -0.1017
18805TIP3   OH277829   3.269   1.569  12.038  0.7347  0.0796 -0.4325
18805TIP3    H177830   3.272   1.587  11.944 -1.7986 -0.7431 -0.7511
18805TIP3    H277831   3.218   1.641  12.075 -3.1071 -2.2519 -0.6401
18806TIP3   OH277832   1.407   4.800  14.224 -0.4866  0.2892  0.0469
18806TIP3    H177833   1.485   4.806  14.169 -0.6525 -0.5019 -0.2911
18806TIP3    H277834   1.389   4.890  14.250  0.1487  0.5577 -0.4243
18807TIP3   OH277835   6.036   6.325   0.991 -0.0898  0.2614  0.2520
18807TIP3    H177836   6.060   6.387   0.922  0.6259  0.0669  0.3253
18807TIP3    H277837   6.024   6.380   1.069 -1.6625  0.5849 -0.1742
18808TIP3   OH277838   0.500   0.171  16.411  0.3067  0.0160  0.0874
18808TIP3    H177839   0.469   0.220  16.334 -0.5042  0.6725  0.8198
18808TIP3    H277840   0.506   0.080  16.380 -0.6052  0.1692 -0.5923
18809TIP3   OH277841   1.939   5.547  16.707  0.1292  0.0065  0.2693
18809TIP3    H177842   1.980   5.479  16.760  1.6528 -0.0147 -0.8636
18809TIP3    H277843   1.935   5.624  16.764  1.4830 -0.0933  0.5145
18810TIP3   OH277844   5.632   2.201  12.268 -0.1738 -0.5220 -0.0122
18810TIP3    H177845   5.644   2.157  12.353 -0.2082 -0.1828  0.1685
18810TIP3    H277846   5.604   2.131  12.209 -1.8750 -0.4422  0.6653
18811TIP3   OH277847   3.067   1.758   0.204  0.0411 -0.2989 -0.1218
18811TIP3    H177848   3.121   1.837   0.196 -0.3227 -0.1199 -0.8613
18811TIP3    H277849   3.099   1.715   0.284  1.3470 -0.2415 -0.5849
18812TIP3   OH277850   1.276   0.266  17.108  0.3511 -0.6386  0.2409
18812TIP3    H177851   1.203   0.298  17.056 -0.9009  0.5408  2.5571
18812TIP3    H277852   1.278   0.171  17.093 -0.5782 -0.4598 -1.1226
18813TIP3   OH277853   4.064   6.594  12.493 -0.0224 -0.0658  0.1687
18813TIP3    H177854   4.083   6.666  12.554 -0.4027  0.0030  0.2078
18813TIP3    H277855   4.118   6.521  12.524 -0.2474 -0.0445  0.6204
18814TIP3   OH277856   4.131   6.257   6.317 -0.3499  0.4775 -0.1701
18814TIP3    H177857   4.126   6.295   6.230 -2.4553  1.5337  0.3459
18814TIP3    H277858   4.042   6.264   6.352 -0.1720 -2.2536  1.1102
18815TIP3   OH277859   2.560   4.831   0.496  0.1846 -0.8778 -0.1046
18815TIP3    H177860   2.471   4.815   0.527  0.4306 -2.4471 -0.1426
18815TIP3    H277861   2.602   4.879   0.567 -0.4888 -0.7510  0.2091
18816TIP3   OH277862   0.607   5.133  13.397  0.2251  0.5321  0.2413
18816TIP3    H177863   0.597   5.080  13.318 -0.3843  1.2675 -0.1910
18816TIP3    H277864   0.518   5.144  13.430  0.4227  0.6770  0.7383
18817TIP3   OH277865   0.379   5.741  15.522  0.5383 -1.0463  0.0488
18817TIP3    H177866   0.351   5.831  15.537  1.7081 -0.6195 -0.2023
18817TIP3    H277867   0.400   5.707  15.609  1.0170 -0.7489  0.0535
18818TIP3   OH277868   6.338   3.275  11.902  0.1649  0.6914  0.4482
18818TIP3    H177869   6.334   3.255  11.996 -0.4939 -1.7173 -0.0098
18818TIP3    H277870   6.281   3.209  11.862 -0.1395  2.1166 -1.6082
18819TIP3   OH277871   1.232   3.024  11.746  0.1867 -0.4514 -0.5358
18819TIP3    H177872   1.180   3.073  11.683 -0.9708  0.1692  0.8384
18819TIP3    H277873   1.303   2.985  11.694  0.5610  1.8161 -1.8641
18820TIP3   OH277874   5.659   3.417   0.196  0.1447  0.2210  0.3605
18820TIP3    H177875   5.653   3.406   0.291 -4.1172 -0.3243  0.2574
18820TIP3    H277876   5.651   3.511   0.182  2.0287  0.4319  0.5035
18821TIP3   OH277877   4.230   6.195   2.573 -0.3703 -0.1593  0.3484
18821TIP3    H177878   4.297   6.172   2.509  0.0687 -1.1065  1.1298
18821TIP3    H277879   4.147   6.174   2.529 -0.2044  1.1953 -0.6914
18822TIP3   OH277880   3.723   0.489  11.930  0.2275 -0.2134 -0.0438
18822TIP3    H177881   3.812   0.467  11.958  0.3177 -1.7791 -1.4393
18822TIP3    H277882   3.735   0.542  11.851 -0.0722  0.0099  0.0588
18823TIP3   OH277883   6.501   3.109   5.927  0.2395  0.4380  0.5337
18823TIP3    H177884   6.455   3.166   5.865 -0.2027 -0.3265  0.1533
18823TIP3    H277885   6.532   3.036   5.874  2.1937  1.0650  0.7116
18824TIP3   OH277886   0.254   1.702  13.546 -0.6048  0.3055 -0.8644
18824TIP3    H177887   0.344   1.682  13.519 -0.6546 -0.3354 -0.5766
18824TIP3    H277888   0.229   1.778  13.493  0.6498  1.4841  0.1443
18825TIP3   OH277889   3.548   0.556  16.245  0.3779 -0.2611 -0.2090
18825TIP3    H177890   3.540   0.557  16.340  1.0833  1.7213 -0.1265
18825TIP3    H277891   3.463   0.524  16.214  0.2909 -1.3309  1.0849
18826TIP3   OH277892   3.759   5.763   5.808  0.1209 -0.3204  0.2219
18826TIP3    H177893   3.726   5.844   5.769  2.7097  0.7438  0.0302
18826TIP3    H277894   3.854   5.766   5.793  0.6563 -2.0824  2.6009
18827TIP3   OH277895   3.066   0.102  17.160 -0.2481 -0.6127 -0.6686
18827TIP3    H177896   3.078   0.187  17.202  1.5404 -1.4987  0.7231
18827TIP3    H277897   2.996   0.117  17.097  1.1364  2.3340 -1.6978
18828TIP3   OH277898   2.032   0.042  11.406 -0.4321 -0.1167 -0.0662
18828TIP3    H177899   2.104   0.047  11.469  0.7357  0.9898 -1.4252
18828TIP3    H277900   2.051  -0.035  11.353 -1.0948 -0.7054  0.5351
18829TIP3   OH277901   1.094   3.442  15.180  0.3635  0.2570  0.7893
18829TIP3    H177902   1.074   3.369  15.238  0.8230 -0.2949  0.2656
18829TIP3    H277903   1.017   3.450  15.124  0.5312 -0.1884  0.4870
18830TIP3   OH277904   2.761   4.694  14.604 -0.1273 -0.5583  0.1990
18830TIP3    H177905   2.778   4.633  14.676 -1.5132 -0.5684  0.5357
18830TIP3    H277906   2.771   4.780  14.644  0.8521 -0.5405 -0.0432
18831TIP3   OH277907   5.142   2.845  15.491 -0.4148  0.2761  0.0180
18831TIP3    H177908   5.099   2.861  15.575 -0.0880 -0.8568  0.4115
18831TIP3    H277909   5.176   2.931  15.465  0.4452  0.4422  1.5896
18832TIP3   OH277910   5.033   1.226  10.616 -0.8838 -0.2038  0.4011
18832TIP3    H177911   5.100   1.191  10.556 -2.1568  2.2708 -2.7774
18832TIP3    H277912   5.074   1.303  10.655 -1.7128  1.2917 -1.5196
18833TIP3   OH277913   3.304   1.490  13.816 -0.3770 -0.5089 -0.2452
18833TIP3    H177914   3.363   1.473  13.890  0.7548 -3.3156 -1.6542
18833TIP3    H277915   3.217   1.486  13.854  0.1556  2.4325  1.6536
18834TIP3   OH277916   1.881   1.386  16.260 -0.2335  0.1014  0.5112
18834TIP3    H177917   1.865   1.326  16.187  1.9537 -1.0242  0.8861
18834TIP3    H277918   1.917   1.464  16.220  0.8973 -0.4865  0.3459
18835TIP3   OH277919   5.202   1.875  15.574  0.0626  0.6874  0.3348
18835TIP3    H177920   5.156   1.829  15.644 -0.6323  1.5694  0.4721
18835TIP3    H277921   5.216   1.809  15.507 -1.0460  0.3120  0.4638
18836TIP3   OH277922   3.942   2.678  15.495  0.3626  0.2942 -0.0582
18836TIP3    H177923   3.994   2.598  15.485 -1.2716 -0.9321  0.7782
18836TIP3    H277924   3.996   2.735  15.550  2.1236  0.3568 -1.7427
18837TIP3   OH277925   1.609   4.964   3.958 -0.5291 -0.3714 -0.5615
18837TIP3    H177926   1.636   4.987   3.869 -1.0068 -1.0130 -0.8782
18837TIP3    H277927   1.552   5.036   3.985  0.0015  0.0660 -0.5866
18838TIP3   OH277928   2.796   4.730   3.133 -0.0036 -0.1600 -0.1074
18838TIP3    H177929   2.887   4.702   3.126  0.2764  0.6332  0.2656
18838TIP3    H277930   2.767   4.697   3.218 -0.0932 -0.4812 -0.2606
18839TIP3   OH277931   5.405   2.268   4.270  0.2848  0.6250  0.3367
18839TIP3    H177932   5.435   2.334   4.333  2.2984  0.0211  0.0821
18839TIP3    H277933   5.459   2.282   4.193 -0.8560  0.1253 -0.5884
18840TIP3   OH277934   0.038   2.699   1.225 -0.3052 -0.3242  0.0641
18840TIP3    H177935  -0.040   2.748   1.200 -0.7192 -0.3439  1.2611
18840TIP3    H277936   0.109   2.763   1.217 -0.7427  0.2969  0.9480
18841TIP3   OH277937   6.499   0.592  11.105 -0.1396  0.0298  0.6607
18841TIP3    H177938   6.472   0.673  11.147  0.0960  0.8152 -0.6493
18841TIP3    H277939   6.515   0.616  11.014 -0.1925 -1.5170  0.2085
18842TIP3   OH277940   6.723   4.900  16.576 -0.5908 -0.2490  0.3874
18842TIP3    H177941   6.689   4.821  16.533 -1.9189  0.2335  0.5003
18842TIP3    H277942   6.655   4.924  16.639 -0.2627  1.0548  0.2670
18843TIP3   OH277943   3.173   3.217  11.818  0.1894 -0.7021  0.6100
18843TIP3    H177944   3.268   3.212  11.827  0.0506 -2.2475  1.4446
18843TIP3    H277945   3.139   3.155  11.883 -1.3991 -0.0828  0.4167
18844TIP3   OH277946   3.835   3.885  14.432  0.2203 -0.2228 -0.0144
18844TIP3    H177947   3.927   3.898  14.411  0.2890 -1.7339 -0.8100
18844TIP3    H277948   3.794   3.969  14.412  1.4621  0.5630  0.6344
18845TIP3   OH277949   2.908   3.029   5.854  0.2657 -0.2762  0.1036
18845TIP3    H177950   2.848   3.095   5.820  0.8179  0.0353 -0.2787
18845TIP3    H277951   2.921   2.968   5.781 -0.3665 -0.9157  0.5022
18846TIP3   OH277952   0.377   4.323   1.139  0.6560 -0.6078 -0.5465
18846TIP3    H177953   0.352   4.347   1.050 -0.2334 -0.6343 -0.3080
18846TIP3    H277954   0.448   4.260   1.127  0.8682 -0.2497 -1.2257
18847TIP3   OH277955   2.134   3.334   4.744  0.2634  0.1095 -0.0451
18847TIP3    H177956   2.100   3.270   4.806  1.6298 -0.8450 -0.2450
18847TIP3    H277957   2.173   3.282   4.675  0.7334  1.1677 -0.5980
18848TIP3   OH277958   3.112   1.250   3.362 -0.3903 -0.5830  0.3851
18848TIP3    H177959   3.075   1.304   3.432  3.2560  1.6102  0.8893
18848TIP3    H277960   3.111   1.307   3.285  1.8573 -0.3565  0.4599
18849TIP3   OH277961   5.391   6.715   0.710 -0.1049  0.2268  0.1856
18849TIP3    H177962   5.380   6.756   0.796  1.6212  1.2283 -0.0303
18849TIP3    H277963   5.395   6.621   0.730  0.7264  0.4653  1.2814
18850TIP3   OH277964   6.135   5.988  14.139  0.1725 -0.1453 -0.0989
18850TIP3    H177965   6.050   6.028  14.156 -0.4705 -0.9714 -1.2569
18850TIP3    H277966   6.180   6.050  14.082 -0.6757 -0.8479 -1.5876
18851TIP3   OH277967   5.575   4.566  12.734  0.0203  0.3203  0.6342
18851TIP3    H177968   5.653   4.620  12.716  0.6349 -0.2268  1.5963
18851TIP3    H277969   5.606   4.476  12.724 -0.7679  0.1125 -0.0298
18852TIP3   OH277970   0.143   2.760  13.543  0.4643 -0.1667 -0.4644
18852TIP3    H177971   0.072   2.697  13.539  1.6812 -1.5891 -0.8196
18852TIP3    H277972   0.215   2.713  13.585  0.5905  1.8819  1.8357
18853TIP3   OH277973   3.988   3.537  12.798  0.1777  0.3693  0.0128
18853TIP3    H177974   4.012   3.564  12.709  1.5702  0.2082  0.3054
18853TIP3    H277975   3.934   3.460  12.786  2.4540 -1.2393 -0.7006
18854TIP3   OH277976   4.470   1.153  15.500 -0.5928  0.3634  0.3301
18854TIP3    H177977   4.436   1.097  15.570 -1.5424 -0.4832 -0.7707
18854TIP3    H277978   4.399   1.159  15.437  1.4007 -2.1023 -2.4624
18855TIP3   OH277979   4.996   5.184   4.137 -0.6258  0.5632 -0.1872
18855TIP3    H177980   4.929   5.117   4.147  0.1552 -0.1800  0.2024
18855TIP3    H277981   5.076   5.144   4.173  0.1154  1.2818 -0.9825
18856TIP3   OH277982   2.735   0.520  16.807 -0.5965  0.5911  0.2154
18856TIP3    H177983   2.800   0.524  16.737  1.6813  0.1766  2.1911
18856TIP3    H277984   2.703   0.430  16.805  0.5435  0.1645  0.6021
18857TIP3   OH277985   5.834   3.719  14.538 -0.2591 -0.7014 -0.2071
18857TIP3    H177986   5.794   3.693  14.621  1.8015 -1.9572  0.4833
18857TIP3    H277987   5.770   3.694  14.472 -1.2529 -1.2198  0.9042
18858TIP3   OH277988   5.903   2.242  16.060  0.6448 -0.6691  0.4250
18858TIP3    H177989   5.937   2.186  16.130  1.0312 -0.3281  0.5133
18858TIP3    H277990   5.889   2.327  16.102 -1.9659 -1.2170  0.8273
18859TIP3   OH277991   0.035   0.663  16.794 -0.2118 -0.3980 -0.3770
18859TIP3    H177992   0.086   0.742  16.772 -0.8174 -0.1931 -1.0873
18859TIP3    H277993  -0.056   0.693  16.794 -0.2992 -0.5521  1.7967
18860TIP3   OH277994   5.947   2.500   2.275  0.6458 -0.5955 -0.2941
18860TIP3    H177995   5.973   2.439   2.206  0.7923 -0.4927 -0.3320
18860TIP3    H277996   5.928   2.445   2.351  2.5135 -0.6029  0.2312
18861TIP3   OH277997   0.243   2.267   5.257 -0.2042 -0.0967 -0.0802
18861TIP3    H177998   0.230   2.172   5.256  1.6300 -0.3700 -0.3163
18861TIP3    H277999   0.203   2.296   5.175  1.0174 -0.9494 -1.0114
18862TIP3   OH278000   5.729   5.711  17.095 -0.1753  0.1564  0.0914
18862TIP3    H178001   5.661   5.777  17.111 -0.3254 -0.1141  0.5932
18862TIP3    H278002   5.738   5.665  17.179  2.3821  1.7910  0.8172
18863TIP3   OH278003   3.116   3.552  13.591 -0.4137  0.4957 -0.0262
18863TIP3    H178004   3.186   3.512  13.642 -1.1841 -2.3227 -0.9983
18863TIP3    H278005   3.155   3.568  13.505 -0.6853 -0.3256 -0.3181
18864TIP3   OH278006   1.629   6.708  10.550 -0.1017 -0.9149 -0.3293
18864TIP3    H178007   1.675   6.708  10.634 -0.2489 -0.7207 -0.2466
18864TIP3    H278008   1.686   6.758  10.492 -0.2638 -0.5664 -0.1935
18865TIP3   OH278009   0.795   5.664  11.433  0.5502  0.2529  0.1142
18865TIP3    H178010   0.842   5.746  11.415  0.7647  0.0851 -0.0921
18865TIP3    H278011   0.771   5.631  11.346  1.0542 -0.2465  0.1595
18866TIP3   OH278012   4.965   6.215   4.737  0.4343  0.7218 -0.5301
18866TIP3    H178013   4.959   6.278   4.809  1.3377 -0.0774  0.2753
18866TIP3    H278014   4.891   6.237   4.680  0.2655  1.9947  0.1289
18867TIP3   OH278015   3.861   6.710  14.212  0.3059  0.0310  0.0577
18867TIP3    H178016   3.901   6.662  14.140  0.3866  2.2457 -1.4784
18867TIP3    H278017   3.777   6.740  14.178  1.0715  2.5593  0.1844
18868TIP3   OH278018   3.204   5.905  12.646  0.4266 -0.0190  0.4217
18868TIP3    H178019   3.141   5.884  12.577  1.3844 -0.4939 -0.3417
18868TIP3    H278020   3.226   5.997  12.631  0.4239 -0.0451  0.2508
18869TIP3   OH278021   2.385   2.430   2.521  0.1647  0.2789 -0.3945
18869TIP3    H178022   2.474   2.463   2.508  0.8245 -0.7620  1.1304
18869TIP3    H278023   2.397   2.337   2.541 -1.0802  0.5113  1.7058
18870TIP3   OH278024   3.639   0.398   2.181 -0.0433  0.3946 -0.1868
18870TIP3    H178025   3.627   0.375   2.088 -1.6570  1.3755 -0.2717
18870TIP3    H278026   3.561   0.364   2.224  0.7891 -0.2271  0.8801
18871TIP3   OH278027   2.452   1.395  10.428  0.3027  0.0107  0.0780
18871TIP3    H178028   2.397   1.404  10.506  0.8415 -2.1086  0.7675
18871TIP3    H278029   2.397   1.427  10.356 -1.4938 -1.1460  0.8732
18872TIP3   OH278030   1.804   5.188  12.176  0.1641 -0.0027  0.3025
18872TIP3    H178031   1.838   5.237  12.251 -0.2969 -1.7444  1.7100
18872TIP3    H278032   1.709   5.202  12.179  0.2230  0.6939 -0.5643
18873TIP3   OH278033   4.408   3.668   4.955 -0.2377 -0.4125 -0.2260
18873TIP3    H178034   4.331   3.652   5.010  0.4283  1.1694  1.2803
18873TIP3    H278035   4.458   3.586   4.957 -0.4949 -0.5493  1.1205
18874TIP3   OH278036   3.816   0.235  14.525  0.3194 -0.6349  0.0794
18874TIP3    H178037   3.732   0.193  14.542  0.5836 -1.0305  0.4330
18874TIP3    H278038   3.813   0.260  14.433  0.0148 -1.1065 -0.0391
18875TIP3   OH278039   4.126   2.927  15.510  0.2091  0.0642 -0.4925
18875TIP3    H178040   4.209   2.887  15.483  0.0061 -1.2277  0.6740
18875TIP3    H278041   4.144   2.963  15.597 -0.1317  0.9241 -0.7579
18876TIP3   OH278042   4.892   4.725  16.057 -0.1524 -0.0294  0.8374
18876TIP3    H178043   4.862   4.810  16.026  2.6520  1.5708  2.1825
18876TIP3    H278044   4.821   4.665  16.033 -1.2730  2.2289 -2.1729
18877TIP3   OH278045   0.796   3.062   2.438  0.4878 -0.6750 -0.2972
18877TIP3    H178046   0.723   3.001   2.430 -0.1435  0.1396 -0.8563
18877TIP3    H278047   0.758   3.142   2.472  1.2189 -0.4116 -0.0751
18878TIP3   OH278048   0.398   6.004   6.125 -0.4508  0.1098 -0.4803
18878TIP3    H178049   0.343   5.938   6.168 -0.2254 -0.1369 -0.5639
18878TIP3    H278050   0.472   6.016   6.185  0.6384 -1.3405 -1.4519
18879TIP3   OH278051   0.314   0.667  14.019  0.0382 -0.2768 -0.5135
18879TIP3    H178052   0.243   0.730  14.033  1.0971  0.8205  0.0924
18879TIP3    H278053   0.271   0.591  13.980 -1.3273  0.6815 -0.9456
18880TIP3   OH278054   1.641   4.741   5.689  0.9934  0.1576  0.2732
18880TIP3    H178055   1.712   4.748   5.753 -0.0402 -0.9911  1.6306
18880TIP3    H278056   1.618   4.648   5.690  1.0150  0.0959 -1.8930
18881TIP3   OH278057   2.318   2.395  14.221 -0.2310  0.0684 -0.1698
18881TIP3    H178058   2.298   2.488  14.232 -1.8968 -0.1741 -0.8673
18881TIP3    H278059   2.234   2.351  14.232  0.6769 -1.4691  1.0454
18882TIP3   OH278060   0.635   3.482   4.767 -0.1660 -0.1013  0.1915
18882TIP3    H178061   0.670   3.559   4.723  1.0585 -0.1115  1.0866
18882TIP3    H278062   0.579   3.517   4.836 -0.0151 -0.0079  0.2687
18883TIP3   OH278063   2.319   4.333   5.613  0.2139  0.5158 -0.3022
18883TIP3    H178064   2.252   4.313   5.548  0.7227  0.8778 -0.9616
18883TIP3    H278065   2.402   4.319   5.566  0.5823  1.2602  0.1083
18884TIP3   OH278066   4.684   3.651   1.928 -0.1741  0.0859  0.3571
18884TIP3    H178067   4.738   3.619   1.855 -1.1316  0.3801 -0.5116
18884TIP3    H278068   4.605   3.597   1.923  0.3208 -0.8783  2.0936
18885TIP3   OH278069   5.418   3.553   4.425  0.1315  0.0096  0.0542
18885TIP3    H178070   5.407   3.615   4.353 -2.5251 -1.4383 -0.9315
18885TIP3    H278071   5.334   3.554   4.471  0.0128 -2.6822  0.0824
18886TIP3   OH278072   6.065   3.121  14.310  0.2591 -0.3091 -0.1202
18886TIP3    H178073   6.103   3.033  14.316  1.1958  0.0660 -0.3735
18886TIP3    H278074   5.971   3.106  14.311  0.4011 -1.3579 -0.6924
18887TIP3   OH278075   6.130   4.523  11.447  0.1955  0.7255 -0.3411
18887TIP3    H178076   6.092   4.485  11.526  1.2870  3.8979  1.9364
18887TIP3    H278077   6.057   4.568  11.404 -0.3575 -0.8281 -1.0831
18888TIP3   OH278078   5.462   3.288   3.293 -0.1071  0.0447  0.4170
18888TIP3    H178079   5.423   3.339   3.365 -0.9595  0.5417 -0.3859
18888TIP3    H278080   5.441   3.197   3.314 -1.6626  0.2892  0.0484
18889TIP3   OH278081   3.196   4.024  16.319  0.4239  0.0487  0.3496
18889TIP3    H178082   3.242   4.078  16.383  0.0856  0.1542  0.5089
18889TIP3    H278083   3.192   4.078  16.240 -2.0197  1.2690  1.2118
18890TIP3   OH278084   3.569   1.191   0.745  0.6785  0.7160 -0.0862
18890TIP3    H178085   3.501   1.222   0.805 -0.5995 -2.2516  0.1923
18890TIP3    H278086   3.639   1.160   0.803  0.0381 -0.8564 -0.0882
18891TIP3   OH278087   1.174   2.944   1.111  0.8164  0.2238 -0.3234
18891TIP3    H178088   1.185   2.997   1.189  1.7369 -1.0778  0.4787
18891TIP3    H278089   1.094   2.894   1.126  0.7187  0.3422 -0.4451
18892TIP3   OH278090   1.349   0.131   4.398 -0.4357  0.1746  0.4579
18892TIP3    H178091   1.298   0.126   4.479  0.4388 -0.7826  0.9799
18892TIP3    H278092   1.293   0.179   4.337 -1.7917 -0.5099  1.1181
18893TIP3   OH278093   2.601   5.475   0.835 -0.4171 -0.6051 -0.0422
18893TIP3    H178094   2.592   5.440   0.746  0.3238  0.3771 -0.5249
18893TIP3    H278095   2.518   5.519   0.852 -0.3286 -0.2516 -0.5055
18894TIP3   OH278096   6.273   4.927   6.668  0.1924 -0.0262 -0.3197
18894TIP3    H178097   6.327   5.006   6.669  1.1765 -0.6846  0.3356
18894TIP3    H278098   6.183   4.959   6.670  0.4107  1.1750 -3.9935
18895TIP3   OH278099   0.898   6.782  12.918 -0.7171 -0.3746  0.1881
18895TIP3    H178100   0.827   6.797  12.981  0.4899  2.3390  1.0598
18895TIP3    H278101   0.959   6.855  12.933  1.3092 -1.5296 -1.8396
18896TIP3   OH278102   3.320   4.145  16.521 -0.2201  0.3374 -0.0043
18896TIP3    H178103   3.289   4.099  16.599 -1.2962  0.3729 -0.4012
18896TIP3    H278104   3.416   4.142  16.529 -0.3033 -0.1257  1.0385
18897TIP3   OH278105   1.240   4.876   4.840 -0.8474  0.3818 -0.0550
18897TIP3    H178106   1.321   4.927   4.850 -0.1283 -0.5304 -0.9849
18897TIP3    H278107   1.215   4.889   4.749 -1.9659  0.9471  0.3240
18898TIP3   OH278108   0.654   3.402  13.577  0.2386 -0.0442  0.3663
18898TIP3    H178109   0.652   3.435  13.487  0.1154 -0.4317  0.2248
18898TIP3    H278110   0.587   3.334  13.579  2.9965 -3.0536 -0.4339
18899TIP3   OH278111   1.458   5.530   5.012  0.1755 -0.1393 -0.1110
18899TIP3    H178112   1.473   5.532   5.107  2.5847  0.2606 -0.4460
18899TIP3    H278113   1.538   5.564   4.974 -0.2327 -1.4710 -2.3639
18900TIP3   OH278114   1.699   4.367   3.130 -0.1551 -0.2275 -0.0612
18900TIP3    H178115   1.698   4.286   3.080  0.8053  0.1894 -0.8008
18900TIP3    H278116   1.736   4.343   3.215  0.8194 -0.4393 -0.5327
18901TIP3   OH278117   3.144   6.496  16.206 -0.2214  0.4852  0.1657
18901TIP3    H178118   3.143   6.471  16.299 -1.0624  1.6701  0.5135
18901TIP3    H278119   3.233   6.528  16.190 -0.3385  1.1880  0.8464
18902TIP3   OH278120   0.647   1.256  12.436  0.0883  0.1782 -0.3019
18902TIP3    H178121   0.637   1.239  12.530 -2.6364 -0.3922 -0.6097
18902TIP3    H278122   0.586   1.328  12.419  0.7056  0.4106 -1.6197
18903TIP3   OH278123   5.136   0.855  13.782  0.0710  0.5796 -0.0188
18903TIP3    H178124   5.085   0.851  13.862 -0.8138 -1.3393 -0.6021
18903TIP3    H278125   5.082   0.903  13.720  0.4577  1.4615  0.3136
18904TIP3   OH278126   6.585   2.228  16.984  0.0443 -0.1881 -0.0536
18904TIP3    H178127   6.604   2.136  16.968 -1.7976 -0.3651 -1.5440
18904TIP3    H278128   6.603   2.241  17.077  1.9629 -1.5945 -0.1674
18905TIP3   OH278129   0.052   0.739   2.166 -0.0247  0.5455 -0.1474
18905TIP3    H178130   0.020   0.828   2.172  0.9901  1.1105 -2.1659
18905TIP3    H278131   0.144   0.748   2.143  0.4702 -1.0408  1.0036
18906TIP3   OH278132   5.691   1.057  12.566  0.1871 -0.0261  0.2438
18906TIP3    H178133   5.696   1.035  12.659  0.7742 -0.9662  0.0087
18906TIP3    H278134   5.641   0.985  12.527  0.0636  0.2891 -0.1887
18907TIP3   OH278135   6.044   6.107   5.017  0.4226  0.1614  0.4364
18907TIP3    H178136   5.964   6.054   5.015  0.9996 -0.6846 -1.1063
18907TIP3    H278137   6.107   6.054   5.066  0.8236 -0.3668 -0.6166
18908TIP3   OH278138   3.942   2.286   5.666  0.2158  1.0097  0.5206
18908TIP3    H178139   4.036   2.295   5.683 -0.0172  0.0735  2.5963
18908TIP3    H278140   3.925   2.192   5.672 -0.6279  0.9918 -1.4255
18909TIP3   OH278141   2.455   5.076  11.465  0.0898  0.6848  0.2668
18909TIP3    H178142   2.467   4.993  11.513 -2.8310 -0.9105 -1.4721
18909TIP3    H278143   2.388   5.123  11.515 -0.2689  0.7124 -0.2364
18910TIP3   OH278144   6.721   3.172   2.820 -0.1255  0.7001  0.0497
18910TIP3    H178145   6.632   3.141   2.836 -0.0752 -0.9916 -2.2826
18910TIP3    H278146   6.773   3.133   2.890 -0.6219 -2.0231 -0.9326
18911TIP3   OH278147   2.239   4.613   4.397  0.0060 -0.0963  0.3473
18911TIP3    H178148   2.315   4.671   4.399  1.6854 -2.1482 -0.6597
18911TIP3    H278149   2.246   4.561   4.476 -0.3829 -0.2732  0.2698
18912TIP3   OH278150   3.315   1.586   2.925  0.2760 -0.2789  0.6797
18912TIP3    H178151   3.232   1.539   2.914 -0.2151  0.6034  0.4958
18912TIP3    H278152   3.328   1.592   3.019  0.8648 -1.6580  0.7028
18913TIP3   OH278153   6.110   6.119   0.297 -0.2517 -0.0814  0.3706
18913TIP3    H178154   6.126   6.203   0.253  0.7141 -0.1948  0.4887
18913TIP3    H278155   6.159   6.125   0.379 -0.3213 -0.6914  0.4606
18914TIP3   OH278156   5.453   4.818   3.178  0.0291  0.2024 -0.1893
18914TIP3    H178157   5.439   4.912   3.171  0.4844  0.2666 -0.2375
18914TIP3    H278158   5.462   4.802   3.272 -0.1977  0.1820 -0.1692
18915TIP3   OH278159   1.886   6.091   1.644 -0.4658  0.2051  0.1771
18915TIP3    H178160   1.884   6.049   1.558  0.2929  0.4429  0.0300
18915TIP3    H278161   1.828   6.166   1.636 -2.6608 -1.3395  0.7473
18916TIP3   OH278162   1.260   3.891  14.364 -0.9575 -0.4477  1.1760
18916TIP3    H178163   1.165   3.885  14.355 -0.7169 -2.1733 -1.0521
18916TIP3    H278164   1.281   3.979  14.333 -1.6941 -0.7663 -0.3287
18917TIP3   OH278165   1.118   3.287   6.776 -0.0871 -0.3309  0.3751
18917TIP3    H178166   1.209   3.314   6.758 -1.2578  3.0873 -1.2464
18917TIP3    H278167   1.068   3.319   6.701 -2.8486 -0.8627  1.8632
18918TIP3   OH278168   2.863   5.169   5.324  0.3117  0.6464  0.3678
18918TIP3    H178169   2.786   5.189   5.269  1.8826 -1.4299 -2.9169
18918TIP3    H278170   2.919   5.246   5.316  0.0045  0.8347  0.0071
18919TIP3   OH278171   6.227   4.685   4.417  0.1548  0.5567 -0.4646
18919TIP3    H178172   6.180   4.761   4.383  1.1977  1.4687  0.0715
18919TIP3    H278173   6.179   4.659   4.495  0.0866  0.9838 -0.3641
18920TIP3   OH278174   5.159   0.910   6.691 -0.2687 -0.3221  0.3843
18920TIP3    H178175   5.198   0.846   6.631 -0.5787 -1.2505  1.1492
18920TIP3    H278176   5.150   0.863   6.774 -1.5496  0.3638  0.6589
18921TIP3   OH278177   4.311   6.623  10.373  0.4302  0.1572 -0.0359
18921TIP3    H178178   4.392   6.573  10.363 -0.0171 -0.3985 -0.9759
18921TIP3    H278179   4.242   6.558  10.374 -0.2335  0.7376 -2.0505
18922TIP3   OH278180   0.424   5.643   6.639  0.4021  0.4088  0.0849
18922TIP3    H178181   0.388   5.680   6.719  2.5887  1.0467  0.8576
18922TIP3    H278182   0.445   5.720   6.585 -0.1648  0.0281 -0.6814
18923TIP3   OH278183   2.836   4.262   5.709 -0.4024  0.1591 -0.4161
18923TIP3    H178184   2.826   4.356   5.726  1.6926 -0.0300  2.5563
18923TIP3    H278185   2.908   4.256   5.647 -0.3850  0.5139 -0.4306
18924TIP3   OH278186   4.778   3.669   0.520 -0.0269 -0.5865 -0.2308
18924TIP3    H178187   4.760   3.579   0.493 -0.5382 -0.4452 -0.3817
18924TIP3    H278188   4.767   3.720   0.440  1.0124 -0.4809 -0.3125
18925TIP3   OH278189   2.659   6.167  13.149 -0.1145 -0.1406 -0.1685
18925TIP3    H178190   2.733   6.150  13.208 -0.2571  0.0108  0.0553
18925TIP3    H278191   2.635   6.080  13.117 -1.3099 -0.4849  1.5464
18926TIP3   OH278192   3.175   6.114   3.721  0.7366  0.5609  0.8197
18926TIP3    H178193   3.167   6.064   3.640  1.0637 -0.3065  1.3053
18926TIP3    H278194   3.255   6.080   3.762 -0.2265 -0.0959  2.2287
18927TIP3   OH278195   4.865   2.491  15.719  0.4179 -0.4567  0.4867
18927TIP3    H178196   4.788   2.458  15.766  0.7197  0.0382  1.3497
18927TIP3    H278197   4.848   2.469  15.628 -0.2968 -1.2326  0.7866
18928TIP3   OH278198   2.551   3.158  13.440  0.3229 -1.0855 -0.1939
18928TIP3    H178199   2.606   3.200  13.373  1.0283  0.3811  1.2441
18928TIP3    H278200   2.461   3.168  13.407  0.6650 -0.5080 -0.9749
18929TIP3   OH278201   4.210   0.871   3.082 -0.6077 -0.1076  0.4669
18929TIP3    H178202   4.209   0.946   3.023  1.1234  0.5763  1.2340
18929TIP3    H278203   4.224   0.796   3.024 -2.7597  0.0540 -0.3507
18930TIP3   OH278204   6.317   2.145  11.527 -0.7573 -0.3747 -0.3341
18930TIP3    H178205   6.259   2.159  11.453 -2.1046  0.5906  0.8383
18930TIP3    H278206   6.322   2.230  11.571  1.6905 -0.3819 -0.4465
18931TIP3   OH278207   5.220   0.199   0.118  0.5373 -0.3586  0.1035
18931TIP3    H178208   5.223   0.105   0.135  0.6475 -0.4490 -0.4031
18931TIP3    H278209   5.164   0.208   0.041  1.1940 -0.0865 -0.3467
18932TIP3   OH278210   2.204   6.793  11.620 -0.1432  0.5631  0.4393
18932TIP3    H178211   2.285   6.791  11.670 -0.7793  1.4589  1.5581
18932TIP3    H278212   2.156   6.868  11.655  0.0646  2.2832 -2.6523
18933TIP3   OH278213   5.789   5.354   5.015 -0.1877  0.2309  0.4486
18933TIP3    H178214   5.775   5.330   4.923  1.7193 -1.7482  0.6049
18933TIP3    H278215   5.813   5.447   5.012  0.3210  0.0693 -1.1029
18934TIP3   OH278216   0.993   1.856   5.375  0.4112  0.1158  0.3553
18934TIP3    H178217   0.977   1.931   5.318  2.4048 -0.3031 -0.8473
18934TIP3    H278218   0.996   1.781   5.315 -0.4942 -0.7837  1.4082
18935TIP3   OH278219   5.589   0.340   3.191  0.1007  0.1582  0.5907
18935TIP3    H178220   5.623   0.428   3.176 -0.8536  0.4593  0.1252
18935TIP3    H278221   5.614   0.291   3.112 -2.7937  1.0976 -1.0581
18936TIP3   OH278222   5.564   0.903   5.048 -0.3602  0.3446  0.1827
18936TIP3    H178223   5.652   0.909   5.086  0.8759  1.5088 -2.5149
18936TIP3    H278224   5.525   0.989   5.064  0.0366  0.7226 -0.7734
18937TIP3   OH278225   3.205   5.123  15.765  0.4212  0.4319  0.3892
18937TIP3    H178226   3.204   5.056  15.834 -0.3189  0.9888  0.9329
18937TIP3    H278227   3.132   5.100  15.708 -0.4386  1.3149  1.1143
18938TIP3   OH278228   4.613   0.216  14.623 -0.1528 -0.1414  0.9217
18938TIP3    H178229   4.518   0.231  14.627 -0.1088  2.3961 -2.5974
18938TIP3    H278230   4.651   0.295  14.662  0.4217 -0.1927  0.4866
18939TIP3   OH278231   1.668   5.829  16.563 -0.1981  0.5473  0.5152
18939TIP3    H178232   1.730   5.789  16.501  0.1886 -0.8474  1.7462
18939TIP3    H278233   1.585   5.833  16.515  0.3794  0.6464 -0.5049
18940TIP3   OH278234   3.970   2.034   5.927 -0.5836 -0.1275 -0.4372
18940TIP3    H178235   3.938   1.954   5.968  1.3671  0.1616  1.9094
18940TIP3    H278236   4.013   2.004   5.846  0.7803 -1.6237  0.7611
18941TIP3   OH278237   0.707   5.025   6.463  0.2774 -0.0757 -0.1603
18941TIP3    H178238   0.706   4.987   6.375  0.8429 -1.0083  0.2189
18941TIP3    H278239   0.768   5.098   6.457  0.7837 -0.5146 -0.3988
18942TIP3   OH278240   3.597   4.052  13.277 -0.3770  0.0841 -0.2713
18942TIP3    H178241   3.554   3.997  13.342  0.9034  0.6771  1.1556
18942TIP3    H278242   3.539   4.127  13.265  0.1691  0.8752  1.6226
18943TIP3   OH278243   3.306   1.517   5.726 -0.2923 -0.1709 -0.0232
18943TIP3    H178244   3.226   1.539   5.775 -0.6684  0.4335 -0.8894
18943TIP3    H278245   3.277   1.455   5.660 -0.0649  0.1244 -0.4014
18944TIP3   OH278246   5.560   0.553  13.241 -0.6869  0.0606 -0.1324
18944TIP3    H178247   5.633   0.570  13.181 -0.1557  0.4208  0.6114
18944TIP3    H278248   5.570   0.460  13.264 -0.0960  0.2634  0.4484
18945TIP3   OH278249   3.130   4.046   2.518  0.8095 -0.5767 -0.3431
18945TIP3    H178250   3.202   4.096   2.480 -0.5865 -0.9599 -3.8730
18945TIP3    H278251   3.149   3.955   2.494 -0.6998 -0.6962 -1.2536
18946TIP3   OH278252   5.650   4.337   3.611  0.4762 -0.1569  0.1229
18946TIP3    H178253   5.623   4.372   3.526 -1.8624 -1.0281  0.4354
18946TIP3    H278254   5.619   4.401   3.675  0.3704 -0.5224  0.4418
18947TIP3   OH278255   3.272   1.787   6.312 -0.1121 -0.7769 -0.1096
18947TIP3    H178256   3.336   1.848   6.275 -0.4200  0.3619  1.1645
18947TIP3    H278257   3.323   1.710   6.337  0.9623  0.4576  1.7069
18948TIP3   OH278258   3.397   4.213  14.514  0.5905 -0.0510  0.5592
18948TIP3    H178259   3.304   4.235  14.523  0.5208  0.0840 -0.3799
18948TIP3    H278260   3.397   4.128  14.469  0.9231 -0.1116  0.6670
18949TIP3   OH278261   1.078   3.836  15.315 -0.3319 -0.3345  0.3138
18949TIP3    H178262   1.124   3.846  15.232  0.8123 -0.1417  0.9488
18949TIP3    H278263   0.987   3.822  15.290 -0.1323  0.4462 -0.9462
18950TIP3   OH278264   1.833   0.669  16.351  0.2747  0.0820 -0.1172
18950TIP3    H178265   1.833   0.643  16.443 -1.8657 -0.9285 -0.3476
18950TIP3    H278266   1.868   0.758  16.351 -1.0312  0.6602  1.8514
18951TIP3   OH278267   4.450   4.309  15.272  0.1453  0.7791  0.2889
18951TIP3    H178268   4.515   4.240  15.262 -2.0804 -1.7168  1.8157
18951TIP3    H278269   4.484   4.381  15.218  1.2581 -2.4109 -3.8244
18952TIP3   OH278270   1.645   1.767  13.760  1.0019 -0.0982  0.0427
18952TIP3    H178271   1.702   1.692  13.780  0.8514  0.4043  2.8996
18952TIP3    H278272   1.585   1.734  13.693  1.2465 -2.3984  0.8432
18953TIP3   OH278273   0.006   5.456  14.086 -0.0839 -0.1313 -0.5134
18953TIP3    H178274  -0.005   5.551  14.076 -0.5804 -0.0961  0.2914
18953TIP3    H278275   0.028   5.426  13.998  0.0611  0.7266 -0.7857
18954TIP3   OH278276   3.413   3.407   3.750 -0.0634 -0.7524 -0.0643
18954TIP3    H178277   3.421   3.334   3.812  1.2198  0.8734  1.8287
18954TIP3    H278278   3.420   3.485   3.805 -0.3955  0.8053 -2.1345
18955TIP3   OH278279   0.802   3.451  16.234  0.0393  0.1528 -0.0378
18955TIP3    H178280   0.800   3.402  16.152 -2.2504  3.2285 -2.0366
18955TIP3    H278281   0.876   3.511  16.225 -0.0220  0.2821  0.2877
18956TIP3   OH278282   4.303   1.000  11.825 -0.1789  0.2936  0.2493
18956TIP3    H178283   4.311   0.955  11.741  3.3051 -0.8121  1.0173
18956TIP3    H278284   4.295   0.929  11.890  2.0095  0.8376  1.1909
18957TIP3   OH278285   4.047   2.739  16.799 -0.0463  0.2333  0.0812
18957TIP3    H178286   4.091   2.767  16.880 -1.2639 -2.6217  1.8716
18957TIP3    H278287   3.956   2.767  16.811 -0.2128 -0.1054 -0.3814
18958TIP3   OH278288   3.775   4.745   0.694 -0.5961 -0.1867 -0.1071
18958TIP3    H178289   3.828   4.721   0.769  0.1547 -0.2256 -0.6361
18958TIP3    H278290   3.831   4.728   0.618 -2.0290 -2.0797 -0.8094
18959TIP3   OH278291   5.432   4.368  11.466  0.0190 -0.1590  0.4974
18959TIP3    H178292   5.374   4.378  11.391 -0.0298  2.7764  0.8060
18959TIP3    H278293   5.516   4.341  11.427 -0.3302  0.1048 -0.4790
18960TIP3   OH278294   1.996   6.637  15.444 -0.0257  0.0501 -0.1622
18960TIP3    H178295   1.960   6.593  15.367  1.0914 -1.0386 -0.0916
18960TIP3    H278296   2.091   6.626  15.435  0.1810  1.0776  0.6863
18961TIP3   OH278297   5.208   3.179  15.031  0.1269 -0.4189 -0.0342
18961TIP3    H178298   5.203   3.090  14.996 -0.1566 -0.2297 -0.4851
18961TIP3    H278299   5.123   3.193  15.074 -0.0094 -0.2015 -0.3719
18962TIP3   OH278300   5.923   1.773   5.868 -0.1506  0.9759  0.3164
18962TIP3    H178301   5.927   1.704   5.935  2.1000  0.4030 -0.3344
18962TIP3    H278302   5.860   1.837   5.904  0.8008  0.5923  2.8876
18963TIP3   OH278303   3.947   6.622   4.081  0.3791  0.6409  0.6226
18963TIP3    H178304   4.043   6.630   4.081  0.8015 -2.6237 -0.4524
18963TIP3    H278305   3.921   6.645   3.992  0.3865  0.1488  0.4864
18964TIP3   OH278306   3.022   3.810   3.000 -0.3035 -0.0597 -0.6762
18964TIP3    H178307   2.934   3.820   2.966 -0.5297 -1.0008 -0.3958
18964TIP3    H278308   3.063   3.896   2.987 -0.6720 -0.1256 -2.4456
18965TIP3   OH278309   6.302   1.119   3.665  0.3460  0.0935  0.1226
18965TIP3    H178310   6.250   1.195   3.690  0.0158  0.0513 -0.4159
18965TIP3    H278311   6.267   1.048   3.718 -0.6046 -0.0783 -0.6881
18966TIP3   OH278312   4.086   3.172  13.748  0.4219 -0.2751  0.0028
18966TIP3    H178313   4.046   3.130  13.823 -0.9019  3.4101  1.5894
18966TIP3    H278314   4.095   3.102  13.683 -3.2833 -2.5382  1.6357
18967TIP3   OH278315   6.033   2.404   3.527 -0.2509  0.6395  0.5044
18967TIP3    H178316   6.038   2.348   3.605  0.2729 -0.0787 -0.0344
18967TIP3    H278317   6.117   2.391   3.483 -1.1274 -0.1899 -1.0083
18968TIP3   OH278318   6.386   0.111   3.824 -0.5408 -0.5340 -0.0112
18968TIP3    H178319   6.367   0.203   3.845  1.6694 -0.5696  2.6828
18968TIP3    H278320   6.452   0.116   3.754 -1.2507 -0.1275 -0.6675
18969TIP3   OH278321   3.912   3.304  13.517 -0.2979  0.4006 -1.3737
18969TIP3    H178322   3.979   3.323  13.452  0.8450  0.7425 -0.1354
18969TIP3    H278323   3.863   3.385  13.526 -0.5103  0.3276 -1.8536
18970TIP3   OH278324   2.351   1.897  12.902  0.2033 -0.1867  0.4043
18970TIP3    H178325   2.402   1.818  12.922  2.5405  1.0442 -0.3299
18970TIP3    H278326   2.391   1.965  12.956 -0.6940  0.8446 -0.1961
18971TIP3   OH278327   1.800   5.275   1.079 -0.0424 -0.2574  0.5268
18971TIP3    H178328   1.743   5.352   1.085  0.8270  0.4563  0.0122
18971TIP3    H278329   1.773   5.231   0.998  1.0610  0.8862 -0.5073
18972TIP3   OH278330   5.191   5.796   3.426  0.2413 -0.1385  0.5867
18972TIP3    H178331   5.166   5.824   3.514 -0.4143 -0.1969  0.4233
18972TIP3    H278332   5.243   5.868   3.392  1.4780 -0.5945  1.4450
18973TIP3   OH278333   3.549   0.027  14.677  0.2212 -0.4300  0.3792
18973TIP3    H178334   3.593  -0.032  14.616 -2.3110 -2.6377  0.5153
18973TIP3    H278335   3.498   0.086  14.622 -2.8262 -3.0270  0.1103
18974TIP3   OH278336   6.021   5.796   4.759  0.0441  0.3144 -0.0662
18974TIP3    H178337   6.026   5.794   4.663  0.5341 -0.1199 -0.0373
18974TIP3    H278338   6.051   5.709   4.786 -0.0528  0.4508  0.4856
18975TIP3   OH278339   0.557   0.517  12.542 -0.4668 -0.3085  0.4856
18975TIP3    H178340   0.611   0.449  12.581 -1.3424 -0.7506  0.9438
18975TIP3    H278341   0.579   0.596  12.591  0.3969 -0.2878  0.0890
18976TIP3   OH278342   1.686   3.466  12.531 -0.3438 -0.7930 -0.0811
18976TIP3    H178343   1.657   3.375  12.530 -2.8632 -0.0559  0.2728
18976TIP3    H278344   1.612   3.515  12.568  0.9668  1.4019 -0.1758
18977TIP3   OH278345   5.122   4.707  12.891 -0.1223 -0.0858 -0.1045
18977TIP3    H178346   5.058   4.654  12.844 -0.6591  0.5978 -0.1517
18977TIP3    H278347   5.075   4.738  12.969  1.2431 -2.6877  1.9491
18978TIP3   OH278348   4.827   2.733  16.037 -0.1389 -0.2689  1.1832
18978TIP3    H178349   4.863   2.765  16.121  1.0282  1.9287 -0.0566
18978TIP3    H278350   4.904   2.719  15.982 -0.9369 -0.7004  0.1554
18979TIP3   OH278351   1.767   1.005   6.060  0.4025 -0.6744  0.0055
18979TIP3    H178352   1.781   1.075   5.997  0.7805 -0.9701 -0.2435
18979TIP3    H278353   1.853   0.965   6.071 -0.0451 -1.9259 -0.8365
18980TIP3   OH278354   0.085   4.662   5.303 -0.4945  0.7449 -0.5159
18980TIP3    H178355   0.081   4.618   5.218  1.1709  2.5531 -1.6018
18980TIP3    H278356   0.172   4.702   5.306 -0.2099  0.1622  2.3711
18981TIP3   OH278357   2.716   5.394  15.242  0.0425 -0.4555 -0.0280
18981TIP3    H178358   2.727   5.372  15.150  0.3327  0.0662 -0.1247
18981TIP3    H278359   2.787   5.456  15.260 -0.9380  0.6475  0.1398
18982TIP3   OH278360   1.589   0.382  13.802  0.2071 -0.1018 -0.2586
18982TIP3    H178361   1.549   0.461  13.765  0.0630  0.4706  1.0318
18982TIP3    H278362   1.681   0.404  13.814  0.4441 -0.5994 -1.0736
18983TIP3   OH278363   0.514   1.670   6.148 -0.4929  0.4025 -0.0661
18983TIP3    H178364   0.539   1.763   6.155  1.9210 -0.2766  4.2408
18983TIP3    H278365   0.422   1.668   6.171 -0.3883  1.6921  0.5453
18984TIP3   OH278366   6.569   1.107  16.809  0.2836 -0.3520  0.0882
18984TIP3    H178367   6.500   1.074  16.865 -1.0495  0.0418 -1.2656
18984TIP3    H278368   6.552   1.200  16.801  0.5345 -0.3741 -0.8415
18985TIP3   OH278369   1.962   5.695  13.981 -0.1622 -0.2618 -0.5230
18985TIP3    H178370   1.959   5.603  14.009 -0.1161 -0.4360 -1.0788
18985TIP3    H278371   1.894   5.738  14.033  0.8951 -0.2725  0.9137
18986TIP3   OH278372   1.931   1.425  12.488 -0.2224  0.2088  0.4559
18986TIP3    H178373   1.912   1.331  12.492  1.8080 -0.2612 -0.1498
18986TIP3    H278374   1.927   1.446  12.394  0.5651  0.4420  0.4682
18987TIP3   OH278375   1.694   0.207  16.949  0.4823  0.0816 -0.1993
18987TIP3    H178376   1.788   0.208  16.967  0.1684  0.3390  1.5948
18987TIP3    H278377   1.674   0.298  16.926  0.6860  0.0007 -0.7122
18988TIP3   OH278378   1.505   1.199  12.011 -0.0078 -0.5922 -0.6814
18988TIP3    H178379   1.472   1.251  11.938  0.0812 -0.9153 -0.9544
18988TIP3    H278380   1.449   1.121  12.012 -1.8344  0.6454  1.3214
18989TIP3   OH278381   3.337   5.763  16.186 -0.0765  0.2257 -0.4821
18989TIP3    H178382   3.269   5.701  16.163 -0.3878  0.5610 -0.4843
18989TIP3    H278383   3.375   5.729  16.267  0.0102 -0.1635 -0.6888
18990TIP3   OH278384   3.745   0.130  13.384  0.0105  0.5429 -0.3120
18990TIP3    H178385   3.827   0.174  13.360  0.4109 -0.5135 -1.0158
18990TIP3    H278386   3.747   0.049  13.332 -1.2281  0.2507  0.0784
18991TIP3   OH278387   5.391   2.269   3.232  0.2689  0.3119  0.7333
18991TIP3    H178388   5.460   2.325   3.197  1.3460 -0.8737  0.8821
18991TIP3    H278389   5.328   2.261   3.160  1.4567 -0.4794 -0.2560
18992TIP3   OH278390   2.175   6.397   2.188  0.0756 -0.1542 -0.6859
18992TIP3    H178391   2.184   6.422   2.096 -1.3202  2.7206 -0.1376
18992TIP3    H278392   2.211   6.471   2.237 -2.0505 -0.2096  1.1047
18993TIP3   OH278393   0.567   5.079  16.207  0.6561 -0.2268 -0.7770
18993TIP3    H178394   0.636   5.092  16.273 -0.9648  1.7525  0.6608
18993TIP3    H278395   0.591   5.137  16.135  0.8146 -0.0082 -0.5488
18994TIP3   OH278396   0.972   0.486  15.459 -0.4098  0.2591  0.1153
18994TIP3    H178397   1.051   0.521  15.418 -0.9062 -0.4529 -1.5597
18994TIP3    H278398   0.992   0.394  15.475 -0.8364  0.1053 -0.2072
18995TIP3   OH278399   2.600   2.779  12.554 -0.0037  0.1350  0.7806
18995TIP3    H178400   2.644   2.757  12.471  0.0050 -0.1774  0.8681
18995TIP3    H278401   2.587   2.695  12.597 -0.8600  0.2093  0.6775
18996TIP3   OH278402   3.174   0.286  15.894  0.0869  0.8813  0.1627
18996TIP3    H178403   3.102   0.271  15.832 -0.4778  0.8923  0.8068
18996TIP3    H278404   3.242   0.223  15.868 -0.4583  0.3416  0.0256
18997TIP3   OH278405   0.819   2.051  10.751  0.0450  0.2932 -0.0085
18997TIP3    H178406   0.739   1.999  10.742 -0.3093  0.7341  0.4679
18997TIP3    H278407   0.890   1.989  10.740 -0.3690 -0.2370  0.2537
18998TIP3   OH278408   5.087   0.036   1.157 -0.4527  0.1342  0.5522
18998TIP3    H178409   5.063  -0.034   1.217 -0.6480 -0.2270  0.0584
18998TIP3    H278410   5.006   0.086   1.143 -1.0890 -1.3087 -1.4099
18999TIP3   OH278411   0.093   6.698   2.857  0.7249  0.3305  0.3399
18999TIP3    H178412   0.084   6.750   2.937  1.9053  2.3235 -0.7255
18999TIP3    H278413   0.010   6.652   2.848  0.0569  1.1369  1.9535
19000TIP3   OH278414   3.219   0.823  12.133 -0.5657  0.4186 -0.1255
19000TIP3    H178415   3.196   0.907  12.173 -1.0266  1.4623 -2.4039
19000TIP3    H278416   3.216   0.840  12.039  0.6476 -1.8293 -0.6394
19001TIP3   OH278417   6.606   3.381  10.999 -0.1997  0.2250  0.6266
19001TIP3    H178418   6.564   3.317  10.941  0.1409 -0.1356  0.7680
19001TIP3    H278419   6.637   3.329  11.074  0.2615  0.5190  0.6480
19002TIP3   OH278420   4.514   3.866  14.968 -0.1321  0.4402  0.0257
19002TIP3    H178421   4.607   3.869  14.945 -0.0157  1.6246  0.5598
19002TIP3    H278422   4.477   3.944  14.926 -0.8494  0.0982  0.0009
19003TIP3   OH278423   2.245   4.306   1.153  0.3299 -0.1304  0.3754
19003TIP3    H178424   2.335   4.339   1.150  0.6879 -1.1915 -1.6749
19003TIP3    H278425   2.254   4.211   1.156 -0.7223 -0.2509  0.1250
19004TIP3   OH278426   2.419   0.539   1.334 -0.1994 -0.0800 -0.7247
19004TIP3    H178427   2.394   0.621   1.291 -0.0070  0.7007  0.6129
19004TIP3    H278428   2.349   0.477   1.310 -0.0304  0.2752 -2.2455
19005TIP3   OH278429   1.197   6.061  11.219 -0.1382 -0.6236  0.0537
19005TIP3    H178430   1.282   6.081  11.181 -0.6840 -0.1834 -0.9594
19005TIP3    H278431   1.145   6.140  11.207 -1.0569 -1.2687 -0.4017
19006TIP3   OH278432   5.779   3.775  17.090  0.8673 -0.2829 -0.0991
19006TIP3    H178433   5.714   3.728  17.142 -0.6869  0.8529 -0.9086
19006TIP3    H278434   5.864   3.744  17.122 -0.0679 -1.5951  1.2060
19007TIP3   OH278435   4.490   5.239   0.003 -0.4610 -0.0809  0.0232
19007TIP3    H178436   4.517   5.329   0.020 -1.1248  0.2220 -0.4863
19007TIP3    H278437   4.544   5.186   0.062 -0.6819  0.7062  0.9589
19008TIP3   OH278438   4.240   5.755  12.886 -0.4144  0.2352 -0.3519
19008TIP3    H178439   4.314   5.711  12.929 -1.0194  0.2237  0.7132
19008TIP3    H278440   4.162   5.714  12.925 -0.9861  0.8244 -0.8568
19009TIP3   OH278441   3.172   3.911  12.710  1.0456  1.0186 -0.0587
19009TIP3    H178442   3.231   3.920  12.635  1.2434  1.1680  0.1139
19009TIP3    H278443   3.210   3.840  12.762  0.4479  0.3465 -0.5238
19010TIP3   OH278444   5.882   1.007   6.008  0.0086  0.0059 -0.0251
19010TIP3    H178445   5.790   1.000   6.033 -0.1616  0.0361 -0.6466
19010TIP3    H278446   5.915   1.078   6.063  0.3287 -1.6797  2.0948
19011TIP3   OH278447   3.195   1.740  14.898  0.6062 -0.6301 -0.1380
19011TIP3    H178448   3.240   1.786  14.828  0.7484 -0.7934 -0.1523
19011TIP3    H278449   3.144   1.809  14.943 -2.4150 -1.0301 -2.6165
19012TIP3   OH278450   1.130   2.696  16.640  0.2099 -0.1123  0.0121
19012TIP3    H178451   1.199   2.641  16.677  0.6348  0.6373  0.3674
19012TIP3    H278452   1.049   2.648  16.658  0.4857 -0.1742  1.1947
19013TIP3   OH278453   3.400   3.823  11.558 -0.1996  0.7810 -0.2427
19013TIP3    H178454   3.491   3.842  11.579 -0.1150 -0.4731  0.6087
19013TIP3    H278455   3.356   3.909  11.560  0.8795  1.3492 -0.3358
19014TIP3   OH278456   2.398   6.228   2.208 -0.6728 -0.1598  0.2631
19014TIP3    H178457   2.354   6.175   2.275 -2.0395 -0.5558 -0.9131
19014TIP3    H278458   2.331   6.290   2.179 -1.1437 -1.9048 -2.8270
19015TIP3   OH278459   2.954   5.610   1.487 -0.0632 -0.3071  0.7985
19015TIP3    H178460   3.040   5.653   1.486 -0.1461 -0.0512 -1.7247
19015TIP3    H278461   2.892   5.681   1.498 -0.1129  0.1578 -1.7960
19016TIP3   OH278462   3.915   2.274  12.077 -0.2485  0.1472  0.1081
19016TIP3    H178463   3.915   2.360  12.119  1.2777  0.3163 -0.2009
19016TIP3    H278464   3.933   2.212  12.148 -2.1825 -0.0526  0.4944
19017TIP3   OH278465   3.364   0.449   6.154  0.2521 -0.2791  0.1758
19017TIP3    H178466   3.268   0.455   6.160  0.2550 -0.4262  0.3762
19017TIP3    H278467   3.390   0.531   6.112  0.0416 -0.2208  0.1550
19018TIP3   OH278468   4.829   3.940   2.963  0.4801 -0.0333 -0.1482
19018TIP3    H178469   4.861   4.025   2.935 -1.1063  1.1581  1.4632
19018TIP3    H278470   4.754   3.923   2.905  1.4248 -0.9015 -1.1823
19019TIP3   OH278471   2.067   4.433   3.155 -0.0867 -0.3014  0.0430
19019TIP3    H178472   2.065   4.518   3.200  0.3056  1.5498 -3.1745
19019TIP3    H278473   2.109   4.375   3.218  0.3188  2.0163  2.1142
19020TIP3   OH278474   4.130   0.018   2.272 -0.1938 -0.2343 -0.3164
19020TIP3    H178475   4.199   0.020   2.339 -0.3738 -3.5662  0.1821
19020TIP3    H278476   4.050  -0.001   2.321 -0.9150  0.5012 -1.1843
19021TIP3   OH278477   2.971   1.720   4.727 -0.1773  0.2456 -0.3875
19021TIP3    H178478   2.917   1.790   4.764  0.1704  0.8619 -1.0244
19021TIP3    H278479   2.915   1.643   4.730 -0.7629  0.6702 -0.1767
19022TIP3   OH278480   3.342   2.950   0.513 -0.0258  0.2927  0.2726
19022TIP3    H178481   3.382   3.030   0.547 -0.0874  0.6942 -0.5727
19022TIP3    H278482   3.385   2.936   0.429 -0.8808  0.1153 -0.1412
19023TIP3   OH278483   4.088   3.004   2.129  0.4705  0.5205 -0.3276
19023TIP3    H178484   4.016   3.062   2.107  1.0744  1.9508  1.2399
19023TIP3    H278485   4.054   2.916   2.115 -1.0454  1.2079 -1.1020
19024TIP3   OH278486   4.167   2.798   1.855 -0.2799 -0.2202 -0.7301
19024TIP3    H178487   4.258   2.800   1.883 -0.7218  1.4434  0.8343
19024TIP3    H278488   4.149   2.706   1.836  1.4404 -0.7262 -0.0761
19025TIP3   OH278489   4.515   5.522   1.639 -1.2972  0.0645 -0.1809
19025TIP3    H178490   4.588   5.522   1.577 -0.6159  0.0882  0.6070
19025TIP3    H278491   4.444   5.477   1.593 -0.2815 -1.3765 -0.3946
19026TIP3   OH278492   2.913   5.550  12.586  0.6867  0.3039  0.1555
19026TIP3    H178493   2.968   5.476  12.559  0.6089 -0.4482  1.8769
19026TIP3    H278494   2.869   5.518  12.666  0.1984  2.0151  0.5999
19027TIP3   OH278495   5.523   1.898   6.340 -0.3247 -0.0081 -0.1991
19027TIP3    H178496   5.485   1.983   6.320  0.1062  0.1885 -0.1814
19027TIP3    H278497   5.525   1.895   6.436  0.3398  0.2692 -0.1999
19028TIP3   OH278498   3.056   0.292  15.323 -0.7096  0.1778 -0.2592
19028TIP3    H178499   3.072   0.198  15.322 -0.8145  0.1609 -0.3324
19028TIP3    H278500   2.979   0.303  15.379  0.1916  0.3577  0.9827
19029TIP3   OH278501   1.283   4.180   5.389 -0.8555 -0.7832  0.8026
19029TIP3    H178502   1.206   4.123   5.395 -1.3932  0.0231  1.7427
19029TIP3    H278503   1.337   4.154   5.463 -0.7908 -0.5170  0.8482
19030TIP3   OH278504   2.919   6.260  16.820 -0.0490 -0.3331  0.3664
19030TIP3    H178505   2.867   6.230  16.894  2.0429 -1.6804  1.3621
19030TIP3    H278506   2.897   6.200  16.749  0.0267 -0.8015  0.7369
19031TIP3   OH278507   1.912   2.086   0.963  0.2760  0.0122  0.2894
19031TIP3    H178508   1.890   2.169   1.006 -1.8850 -0.6765  0.6167
19031TIP3    H278509   1.829   2.040   0.956  1.1873 -1.5092 -1.2672
19032TIP3   OH278510   1.330   0.531   5.798 -0.2167  0.5819  0.4263
19032TIP3    H178511   1.370   0.485   5.873 -1.0672  2.8453  2.3840
19032TIP3    H278512   1.261   0.472   5.768  2.2174 -1.8866 -0.8665
19033TIP3   OH278513   2.387   6.450  14.107  0.1515 -0.0153  0.4909
19033TIP3    H178514   2.417   6.466  14.018  0.4337  0.9630  0.7479
19033TIP3    H278515   2.370   6.538  14.142  0.7934 -0.3386  1.6541
19034TIP3   OH278516   4.618   0.981   1.693 -0.0121 -0.1453  0.5635
19034TIP3    H178517   4.698   1.024   1.662 -1.5948  1.0397 -2.1912
19034TIP3    H278518   4.583   1.039   1.761 -0.0305  0.8551 -0.2894
19035TIP3   OH278519   0.013   1.728   0.648 -0.1557 -0.0186 -0.4136
19035TIP3    H178520   0.073   1.679   0.704  1.6070  0.5066 -1.7465
19035TIP3    H278521  -0.037   1.661   0.602  0.6000 -0.5155 -0.5241
19036TIP3   OH278522   3.488   3.880  13.874 -0.2199 -0.3944  0.8893
19036TIP3    H178523   3.546   3.812  13.839  1.7892  2.0841 -0.9570
19036TIP3    H278524   3.541   3.926  13.939 -0.2250  1.5293 -0.3804
19037TIP3   OH278525   1.994   3.364  17.160 -0.2615  0.1377  0.7337
19037TIP3    H178526   2.061   3.353  17.092  0.2618  0.0688  1.2583
19037TIP3    H278527   2.043   3.363  17.242 -1.1504 -3.1177  1.3725
19038TIP3   OH278528   3.415   3.900   5.088 -0.5579 -0.0512 -0.0439
19038TIP3    H178529   3.380   3.813   5.107 -0.0780 -0.1854  0.2352
19038TIP3    H278530   3.429   3.940   5.174 -3.3431  1.3717 -0.1323
19039TIP3   OH278531   4.409   4.820  12.658 -0.7691  0.3269  0.1744
19039TIP3    H178532   4.410   4.913  12.634 -0.9461 -0.0720 -1.5025
19039TIP3    H278533   4.412   4.774  12.574 -0.3965 -1.1904  0.9911
19040TIP3   OH278534   3.265   0.590  16.377  0.0302 -0.0575 -0.0306
19040TIP3    H178535   3.188   0.621  16.425  1.7565 -0.2882  3.1463
19040TIP3    H278536   3.277   0.500  16.407  1.2654 -0.1935 -0.8729
19041TIP3   OH278537   4.461   4.896  11.106 -0.1520 -0.8422  0.2274
19041TIP3    H178538   4.453   4.902  11.201  1.1874  0.2332  0.3018
19041TIP3    H278539   4.555   4.904  11.090 -0.4285 -0.3138 -1.2386
19042TIP3   OH278540   5.609   2.163   2.209  1.0615 -0.3116 -0.1830
19042TIP3    H178541   5.703   2.178   2.207  0.7410  2.2367  0.6927
19042TIP3    H278542   5.572   2.229   2.150 -0.1464 -2.1007 -1.5421
19043TIP3   OH278543   5.222   1.376   4.323 -0.7003  0.3039  0.0682
19043TIP3    H178544   5.190   1.461   4.353 -1.4893 -0.5826  1.9029
19043TIP3    H278545   5.144   1.332   4.290 -0.3831  0.0973 -0.4125
19044TIP3   OH278546   5.422   4.091   5.636 -0.2993  0.2899 -0.2159
19044TIP3    H178547   5.513   4.119   5.624  0.1221 -1.1151 -0.5830
19044TIP3    H278548   5.429   4.012   5.691 -1.2451 -0.1110 -0.6503
19045TIP3   OH278549   2.850   5.191  13.092 -0.5511  0.0473  0.2834
19045TIP3    H178550   2.787   5.124  13.065 -1.2544  0.8135 -0.0011
19045TIP3    H278551   2.859   5.179  13.186 -0.1491 -0.8786  0.1414
19046TIP3   OH278552   2.019   0.509   1.737  0.4169  0.1105 -0.4425
19046TIP3    H178553   2.028   0.562   1.816  0.9899  1.9308 -1.6904
19046TIP3    H278554   1.961   0.437   1.764  0.6482  0.6356  1.6350
19047TIP3   OH278555   5.158   4.244   3.510 -0.2503  0.0030 -0.0655
19047TIP3    H178556   5.159   4.339   3.511  0.4830  0.0336 -1.4253
19047TIP3    H278557   5.233   4.219   3.564 -1.3586  0.1203  1.6344
19048TIP3   OH278558   1.341   5.550  13.770  0.3389 -0.2037 -0.1044
19048TIP3    H178559   1.407   5.583  13.710  0.2613 -1.0867 -0.7010
19048TIP3    H278560   1.308   5.627  13.816 -0.2981  0.6256 -1.8911
19049TIP3   OH278561   0.121   1.995  15.567 -0.0559  0.6184 -0.3325
19049TIP3    H178562   0.132   2.086  15.593 -0.8466  1.0089 -1.2992
19049TIP3    H278563   0.026   1.981  15.566  0.0462 -0.1450 -0.4377
19050TIP3   OH278564   3.524   2.745  11.660 -0.4369  0.7640 -0.0143
19050TIP3    H178565   3.603   2.716  11.616 -1.7093 -1.0577 -1.2002
19050TIP3    H278566   3.556   2.795  11.736  1.8723 -1.7046  0.7752
19051TIP3   OH278567   0.720   0.375  15.821 -0.1178  0.3668  0.6990
19051TIP3    H178568   0.702   0.453  15.769 -1.2348  0.3886  1.1055
19051TIP3    H278569   0.710   0.302  15.760 -1.2755  0.4027  0.8342
19052TIP3   OH278570   0.398   5.122  16.459 -0.1194  0.0635  0.2283
19052TIP3    H178571   0.388   5.131  16.364  0.9803  0.3690  0.1280
19052TIP3    H278572   0.341   5.048  16.482  1.5609 -1.7348 -1.0677
19053TIP3   OH278573   0.529   4.239  10.463  0.3612 -0.3222 -0.0755
19053TIP3    H178574   0.623   4.229  10.477  0.3519 -1.0786 -0.4986
19053TIP3    H278575   0.498   4.151  10.441 -0.3008  0.0559 -0.7258
19054TIP3   OH278576   5.306   1.360   3.165 -0.1903  0.3418 -0.3192
19054TIP3    H178577   5.328   1.343   3.073  0.7578  0.5646 -0.1516
19054TIP3    H278578   5.267   1.279   3.196 -1.0170  0.4405 -1.0601
19055TIP3   OH278579   4.295   0.303   1.517  0.1790  0.1838  0.4306
19055TIP3    H178580   4.218   0.359   1.522 -1.4302 -1.4800 -2.6525
19055TIP3    H278581   4.264   0.216   1.544  0.7422 -0.6176 -1.3059
19056TIP3   OH278582   1.032   0.102   5.891  0.1937  0.1386  0.2703
19056TIP3    H178583   1.075   0.174   5.845  0.1489 -0.9344 -1.5603
19056TIP3    H278584   1.099   0.033   5.896  0.2245  0.2532  1.9458
19057TIP3   OH278585   2.062   4.889  13.330  0.4604 -0.1683  0.0654
19057TIP3    H178586   1.970   4.908  13.350  0.1397 -0.5629 -0.9356
19057TIP3    H278587   2.058   4.835  13.251  1.4473 -2.0437  1.2119
19058TIP3   OH278588   5.264   2.328   1.058  0.0631  0.6755 -0.7585
19058TIP3    H178589   5.277   2.398   1.123 -1.0461  0.2192 -0.0054
19058TIP3    H278590   5.176   2.296   1.075  1.0478 -1.9485 -0.0323
19059TIP3   OH278591   3.296   3.957  11.179  0.0055 -0.1693  0.2481
19059TIP3    H178592   3.390   3.972  11.186  0.0608 -0.6483  0.5785
19059TIP3    H278593   3.287   3.861  11.177 -0.3738 -0.1244 -1.2077
19060TIP3   OH278594   3.527   5.718  15.744  0.2672 -0.2207  0.1874
19060TIP3    H178595   3.556   5.788  15.686  1.1175  0.4955  1.4277
19060TIP3    H278596   3.472   5.761  15.810 -1.4743 -1.1621 -0.5737
19061TIP3   OH278597   4.039   2.752   5.567 -0.0019 -0.5625 -0.9734
19061TIP3    H178598   4.001   2.763   5.480  1.2569 -2.3081 -1.7966
19061TIP3    H278599   4.115   2.811   5.568  0.6435 -1.3683 -1.4976
19062TIP3   OH278600   4.579   0.952  11.090 -0.6105  0.5146 -0.0345
19062TIP3    H178601   4.633   1.007  11.147 -0.4985  0.8561 -0.4685
19062TIP3    H278602   4.536   1.013  11.031 -4.2057  0.6542  2.4567
19063TIP3   OH278603   4.527   6.749  13.157 -0.2606  0.3022 -0.7744
19063TIP3    H178604   4.476   6.712  13.085 -1.0241 -1.6038  0.6696
19063TIP3    H278605   4.463   6.790  13.215  0.2338  0.8891 -0.6212
19064TIP3   OH278606   1.844   0.920   4.885  0.1560  0.0553  0.3867
19064TIP3    H178607   1.751   0.941   4.876  0.1385 -0.1584  0.0465
19064TIP3    H278608   1.845   0.837   4.933  0.1882  0.2728  0.7672
19065TIP3   OH278609   5.382   3.228   3.018  0.1069  0.1284  0.4087
19065TIP3    H178610   5.448   3.251   2.954 -0.9911  3.4362  0.2988
19065TIP3    H278611   5.421   3.250   3.102  0.0457 -0.2951  0.5503
19066TIP3   OH278612   5.719   1.180   5.089  0.4940  0.4559  0.2785
19066TIP3    H178613   5.760   1.180   5.003  0.0565 -2.8832 -0.0611
19066TIP3    H278614   5.792   1.185   5.151  0.8179  2.7166 -0.2134
19067TIP3   OH278615   3.361   5.827  11.946  0.8806  0.2541  0.2601
19067TIP3    H178616   3.279   5.795  11.907  0.0944  0.2707  1.8231
19067TIP3    H278617   3.392   5.754  12.000  1.5363  0.4967  0.2234
19068TIP3   OH278618   5.671   3.495  11.603 -0.3257  0.3040 -0.4204
19068TIP3    H178619   5.694   3.408  11.636 -1.0591  0.2918  0.0870
19068TIP3    H278620   5.585   3.513  11.641 -0.6973  0.7661 -1.4459
19069TIP3   OH278621   2.907   5.548  16.550 -0.4265  0.1512  0.1305
19069TIP3    H178622   2.839   5.606  16.517 -1.5591 -0.8759  0.5568
19069TIP3    H278623   2.946   5.595  16.623 -0.8799  0.6420  0.0585
19070TIP3   OH278624   3.041   1.233   0.202  0.0906  0.6038 -0.3628
19070TIP3    H178625   3.064   1.260   0.113 -0.7760  1.3399 -0.3774
19070TIP3    H278626   2.978   1.299   0.231  1.7917  1.4976  1.5249
19071TIP3   OH278627   6.066   1.614   1.343 -0.3913 -0.3662 -0.5159
19071TIP3    H178628   6.081   1.520   1.337 -0.2543 -0.2957 -1.5424
19071TIP3    H278629   6.120   1.651   1.273  0.7620  0.6223  0.8260
19072TIP3   OH278630   6.358   2.667   4.043 -0.3906  0.2709  0.0824
19072TIP3    H178631   6.349   2.576   4.071 -1.5698  0.9307  2.0350
19072TIP3    H278632   6.290   2.678   3.976 -1.2586  0.0638  0.8952
19073TIP3   OH278633   5.165   5.441   2.094  0.2858 -0.1014  0.0425
19073TIP3    H178634   5.142   5.518   2.041 -0.0431 -0.7724 -0.8179
19073TIP3    H278635   5.184   5.477   2.180  0.3229  0.9733 -0.3862
19074TIP3   OH278636   5.560   4.063  16.754  0.3609  0.5157 -0.6113
19074TIP3    H178637   5.634   4.006  16.733  0.4428  1.5384 -3.6851
19074TIP3    H278638   5.598   4.135  16.804  0.5606 -1.1333  1.7510
19075TIP3   OH278639   3.802   4.862   5.883  0.3881 -0.2572 -0.2616
19075TIP3    H178640   3.838   4.784   5.841  0.2861 -0.5684  0.2157
19075TIP3    H278641   3.870   4.889   5.945  0.3190 -0.1153 -0.2471
19076TIP3   OH278642   0.294   6.269  16.232  0.5350  0.1818  0.1836
19076TIP3    H178643   0.330   6.296  16.148 -1.0820  3.8247  0.4925
19076TIP3    H278644   0.336   6.325  16.296  0.1687 -1.0567  1.5721
19077TIP3   OH278645   5.821   6.344   6.863 -0.0325  0.1266 -0.0622
19077TIP3    H178646   5.906   6.389   6.865  1.0577 -1.7268 -1.1709
19077TIP3    H278647   5.757   6.415   6.858  1.4874  1.5786 -0.0952
19078TIP3   OH278648   3.109   0.346   0.939  0.0034  0.2506 -0.4727
19078TIP3    H178649   3.186   0.397   0.961 -0.8744  1.0725  0.7856
19078TIP3    H278650   3.133   0.300   0.858  1.5373  1.0300 -0.4886
19079TIP3   OH278651   3.951   4.805  12.859  0.0886  0.1470  0.7206
19079TIP3    H178652   3.907   4.766  12.783  0.9143  0.3028  0.1526
19079TIP3    H278653   4.029   4.846  12.823  1.1806 -0.8719  1.8227
19080TIP3   OH278654   6.482   1.481  11.580  0.5078 -0.2928 -0.0035
19080TIP3    H178655   6.412   1.416  11.573  1.3045 -1.0497 -1.6608
19080TIP3    H278656   6.436   1.564  11.594 -0.7855 -0.6816 -1.5646
19081TIP3   OH278657   2.247   0.283   0.844  0.0373 -0.4657  0.2972
19081TIP3    H178658   2.250   0.196   0.804  0.9969 -0.1143 -0.4334
19081TIP3    H278659   2.262   0.343   0.771 -0.7350  0.3306  0.7743
19082TIP3   OH278660   2.259   6.277  12.646  0.0280  0.3047  0.2341
19082TIP3    H178661   2.187   6.296  12.707 -0.8898 -0.2396 -0.6418
19082TIP3    H278662   2.243   6.188  12.617  0.2642  0.6530 -1.0338
19083TIP3   OH278663   6.657   5.285   3.696  0.2996 -0.3115 -0.0146
19083TIP3    H178664   6.573   5.332   3.705  0.3218 -0.0738 -0.9547
19083TIP3    H278665   6.645   5.230   3.618  0.1776 -2.1113  1.2126
19084TIP3   OH278666   4.943   1.055  14.786 -0.5571  0.2282 -0.6407
19084TIP3    H178667   4.925   0.989  14.854  1.4517 -0.0350 -0.2950
19084TIP3    H278668   5.028   1.091  14.810 -0.1287  0.6502 -2.6547
19085TIP3   OH278669   0.900   5.231  12.741  0.1017 -0.0703  0.0283
19085TIP3    H178670   0.888   5.311  12.691  0.9484 -1.0789 -1.8817
19085TIP3    H278671   0.993   5.211  12.732 -0.1893 -1.5291  0.0378
19086TIP3   OH278672   0.064   0.797  13.691  0.2907  0.0526  0.6088
19086TIP3    H178673   0.154   0.817  13.717 -0.7307  0.6873  4.1108
19086TIP3    H278674   0.011   0.814  13.769 -2.7735 -1.3725 -0.9562
19087TIP3   OH278675   4.282   4.783  13.957  0.2085 -0.3062  0.5595
19087TIP3    H178676   4.355   4.843  13.943  0.7265 -1.0504 -0.0332
19087TIP3    H278677   4.323   4.700  13.982 -0.4940 -0.4314  1.3567
19088TIP3   OH278678   0.684   1.705   2.840 -0.3653  0.3244  0.1449
19088TIP3    H178679   0.695   1.771   2.908  0.5769  0.1403  0.1870
19088TIP3    H278680   0.752   1.640   2.859 -0.7726 -0.2584 -0.3569
19089TIP3   OH278681   0.623   5.071   0.319  0.2066  0.9843  0.0320
19089TIP3    H178682   0.657   4.985   0.345 -1.5515 -0.6346 -2.6347
19089TIP3    H278683   0.626   5.122   0.400  3.0182 -0.9464  1.3229
19090TIP3   OH278684   3.819   6.716   0.914 -0.2076  0.1937  0.3428
19090TIP3    H178685   3.880   6.727   0.987  0.1691  2.2032 -0.2154
19090TIP3    H278686   3.872   6.731   0.836 -1.1833  1.0448 -0.1955
19091TIP3   OH278687   6.703   4.301  12.570 -0.0564  0.4912  0.1349
19091TIP3    H178688   6.649   4.361  12.621  0.2859  0.7338  0.2140
19091TIP3    H278689   6.783   4.291  12.622 -1.5108 -2.9691  2.0684
19092TIP3   OH278690   0.030   1.409  14.919  0.1769  0.1287 -0.0883
19092TIP3    H178691   0.033   1.498  14.883 -0.3315  0.1230 -0.1531
19092TIP3    H278692   0.001   1.421  15.009 -0.3261 -0.0044 -0.2292
19093TIP3   OH278693   0.913   5.477  16.497 -0.3157  0.2335 -0.1632
19093TIP3    H178694   0.958   5.560  16.481 -1.9091  0.9885 -0.9872
19093TIP3    H278695   0.847   5.472  16.428 -1.1728 -1.0456  0.7073
19094TIP3   OH278696   6.163   1.490   3.376 -0.2745 -0.0311 -0.6039
19094TIP3    H178697   6.073   1.482   3.345 -0.2114 -0.9904 -0.5696
19094TIP3    H278698   6.212   1.426   3.324  0.1866 -0.2699  0.1049
19095TIP3   OH278699   6.438   2.123  15.240 -0.2269  0.2387  0.2790
19095TIP3    H178700   6.458   2.034  15.210  2.6076 -0.0684  2.6421
19095TIP3    H278701   6.434   2.116  15.335 -2.4850  2.2553  0.4213
19096TIP3   OH278702   5.018   0.119   5.858  0.4074  0.6624  0.5149
19096TIP3    H178703   5.013   0.054   5.929 -2.4028  0.6936  0.4560
19096TIP3    H278704   5.052   0.069   5.784 -0.3968 -0.4325  0.8431
19097TIP3   OH278705   2.075   3.064   4.847  0.2063  0.1855  0.1884
19097TIP3    H178706   2.105   2.981   4.810 -1.9125 -1.0627  1.0567
19097TIP3    H278707   2.103   3.060   4.939 -0.7554 -0.0534  0.4802
19098TIP3   OH278708   5.665   0.450  14.695  0.1135  0.0611  0.0458
19098TIP3    H178709   5.601   0.502  14.648 -1.4622 -2.7980 -1.2477
19098TIP3    H278710   5.641   0.459  14.787  1.4189  3.3933  0.1855
19099TIP3   OH278711   4.056   1.239  13.097 -0.5294 -0.3237 -0.0797
19099TIP3    H178712   4.036   1.277  13.011 -1.9329 -1.4719 -0.3014
19099TIP3    H278713   3.982   1.180  13.115  0.1217 -0.6919  1.5724
19100TIP3   OH278714   6.072   4.678  16.367 -0.2350  0.2542 -0.1259
19100TIP3    H178715   6.030   4.746  16.315 -1.1992  0.6192  1.0700
19100TIP3    H278716   6.066   4.711  16.457  0.8482 -0.6188  0.2813
19101TIP3   OH278717   2.644   4.541   1.976 -0.0673  0.8258  0.3552
19101TIP3    H178718   2.600   4.559   1.893  2.3171  2.3089 -0.6895
19101TIP3    H278719   2.662   4.627   2.013  2.1387  0.3492  0.5642
19102TIP3   OH278720   2.095   3.236  12.108 -0.3368  0.6613  0.3179
19102TIP3    H178721   2.184   3.269  12.114 -0.0076 -0.2810  0.8829
19102TIP3    H278722   2.064   3.266  12.023  0.1576  1.8465  0.5297
19103TIP3   OH278723   0.608   6.115  16.218 -0.2749 -0.1730  0.0125
19103TIP3    H178724   0.599   6.176  16.145 -0.6845  0.9241  0.9481
19103TIP3    H278725   0.532   6.132  16.273  0.1492 -0.8070  0.8202
19104TIP3   OH278726   6.217   1.449   0.857 -0.3581 -0.0738 -0.4728
19104TIP3    H178727   6.205   1.481   0.768 -0.6299  0.1714 -0.3463
19104TIP3    H278728   6.293   1.391   0.851 -1.0451 -0.9380 -1.0896
19105TIP3   OH278729   0.449   3.474   2.379 -0.1571  0.0013 -0.3920
19105TIP3    H178730   0.491   3.529   2.445  1.7671 -1.5203 -0.2513
19105TIP3    H278731   0.423   3.395   2.426  1.1816 -1.0775 -1.3531
19106TIP3   OH278732   1.776   4.858  12.467  0.1566  0.0672  0.5079
19106TIP3    H178733   1.726   4.797  12.412 -0.8065 -0.1003  1.5322
19106TIP3    H278734   1.839   4.802  12.513  1.3654  0.2865 -0.8273
19107TIP3   OH278735   4.431   2.550   5.652  0.0068  0.2387 -0.6598
19107TIP3    H178736   4.364   2.482   5.644  0.3520 -0.0380 -1.3171
19107TIP3    H278737   4.421   2.584   5.741 -1.8215  1.0628 -1.1360
19108TIP3   OH278738   5.816   3.924   3.916 -0.0286 -0.7628 -0.0050
19108TIP3    H178739   5.897   3.959   3.878 -0.6437  1.9409  0.9296
19108TIP3    H278740   5.756   3.916   3.842  0.3069 -0.3207 -0.3312
19109TIP3   OH278741   2.982   4.056   4.680 -0.4175  0.0445  0.4585
19109TIP3    H178742   2.927   4.086   4.752 -1.5466 -2.7046  0.8748
19109TIP3    H278743   2.958   3.964   4.668  0.5722  0.0731 -2.6779
19110TIP3   OH278744   3.839   3.385   2.555  0.2482 -0.0109 -0.0960
19110TIP3    H178745   3.888   3.334   2.619  0.1607  0.7461  0.5755
19110TIP3    H278746   3.778   3.437   2.607 -0.9739 -0.5944 -0.8767
19111TIP3   OH278747   3.131   4.200  15.976 -0.6027 -0.4825  0.3537
19111TIP3    H178748   3.127   4.273  16.038  1.5931  1.1158 -1.2634
19111TIP3    H278749   3.221   4.167  15.984 -1.2759 -2.4714  0.3669
19112TIP3   OH278750   3.194   6.430   1.497  0.0327  0.5644  0.6513
19112TIP3    H178751   3.191   6.484   1.576 -0.6001 -2.1201  2.5973
19112TIP3    H278752   3.253   6.358   1.519  0.1131 -0.0929 -1.4736
19113TIP3   OH278753   1.673   3.971   1.429  0.1853 -0.0367 -0.5373
19113TIP3    H178754   1.714   3.903   1.482 -1.3346 -0.5163  0.0730
19113TIP3    H278755   1.625   4.025   1.492 -1.2030 -0.2853 -1.3369
19114TIP3   OH278756   4.065   5.030  10.358  0.1651 -0.1382  0.0773
19114TIP3    H178757   4.102   5.046  10.445 -0.2193 -0.2690  0.2658
19114TIP3    H278758   3.973   5.013  10.374 -0.0199  0.3713 -0.4083
19115TIP3   OH278759   6.368   5.687  17.150 -0.1991  0.0463  0.1048
19115TIP3    H178760   6.282   5.678  17.108 -0.0976  0.6034 -0.2294
19115TIP3    H278761   6.351   5.742  17.227 -0.0775  0.4537 -0.1593
19116TIP3   OH278762   4.098   1.787  13.814 -0.4923 -0.3132  0.5560
19116TIP3    H178763   4.167   1.747  13.867 -1.0658  0.5046  2.0026
19116TIP3    H278764   4.145   1.838  13.748  0.2380 -2.2916 -0.5390
19117TIP3   OH278765   6.195   1.423  12.656 -0.8114  0.1679 -0.8615
19117TIP3    H178766   6.130   1.356  12.637 -1.5527  1.0193 -1.4317
19117TIP3    H278767   6.242   1.391  12.733 -2.6668  0.0570  0.2596
19118TIP3   OH278768   2.569   0.950  15.482  0.7463 -0.4146 -0.0472
19118TIP3    H178769   2.528   0.921  15.563  1.5777 -1.5044  0.0130
19118TIP3    H278770   2.507   0.925  15.413  0.8480 -1.1434  0.1170
19119TIP3   OH278771   0.853   3.137  12.414 -0.3536 -0.2707 -0.1344
19119TIP3    H178772   0.947   3.121  12.406 -0.8127 -2.9172 -1.4041
19119TIP3    H278773   0.822   3.067  12.471 -1.6074  0.3449 -0.0469
19120TIP3   OH278774   5.615   0.931   5.822  0.6057  0.5022  0.0470
19120TIP3    H178775   5.680   0.884   5.770 -0.2926  0.0957 -0.7360
19120TIP3    H278776   5.589   1.005   5.766  0.9738  1.1146  0.6811
19121TIP3   OH278777   1.581   3.219   0.801 -0.1858  0.0320 -0.2012
19121TIP3    H178778   1.667   3.185   0.823 -1.3212 -2.2621  1.0201
19121TIP3    H278779   1.561   3.282   0.871  0.0270 -0.2753  0.1338
19122TIP3   OH278780   1.425   5.049   1.017 -0.3222 -0.5433  0.1970
19122TIP3    H178781   1.405   5.093   1.099 -0.1094 -2.1590  1.1522
19122TIP3    H278782   1.421   4.955   1.037 -0.4955 -0.9983 -1.6862
19123TIP3   OH278783   3.301   0.076   2.051 -0.2191 -0.1609 -0.5935
19123TIP3    H178784   3.250   0.001   2.083 -0.6490  0.5972  0.5987
19123TIP3    H278785   3.370   0.087   2.117  0.1680  0.1490 -1.0506
19124TIP3   OH278786   1.475   0.340   1.205 -0.5158 -0.9408 -0.1914
19124TIP3    H178787   1.508   0.296   1.127  1.8797  2.7913 -1.5571
19124TIP3    H278788   1.449   0.428   1.175  2.2519  1.3795  3.3028
19125TIP3   OH278789   3.419   1.317  11.816 -0.4808  0.0519 -0.3581
19125TIP3    H178790   3.492   1.378  11.806 -0.6671  0.6290  1.4470
19125TIP3    H278791   3.459   1.235  11.843 -0.3097 -0.4138 -1.9222
19126TIP3   OH278792   6.421   5.583  13.060 -0.2323 -0.2690 -0.2186
19126TIP3    H178793   6.375   5.615  12.982 -1.9888 -1.3330  0.3227
19126TIP3    H278794   6.414   5.656  13.123 -1.6225 -0.5633  0.0023
19127TIP3   OH278795   2.843   6.226  14.582 -0.0602 -0.2617 -0.1207
19127TIP3    H178796   2.918   6.231  14.641 -0.8777 -1.6088  1.1147
19127TIP3    H278797   2.856   6.298  14.520  2.0797 -0.2882  0.2213
19128TIP3   OH278798   2.270   0.022   0.700 -0.1357  0.8896 -0.0678
19128TIP3    H178799   2.230  -0.028   0.629  1.4906 -0.4779 -0.0636
19128TIP3    H278800   2.258  -0.032   0.778  0.9522  0.8496  0.0866
19129TIP3   OH278801   1.460   5.927   2.092  0.3901 -0.4578  0.1092
19129TIP3    H178802   1.507   5.948   2.173  0.2007  0.8091 -0.0831
19129TIP3    H278803   1.375   5.894   2.122  0.5172 -0.4940  0.4399
19130TIP3   OH278804   2.125   4.316   0.415  0.3836 -0.4266  0.0447
19130TIP3    H178805   2.034   4.290   0.400  0.0096  2.3460 -4.2756
19130TIP3    H278806   2.176   4.238   0.392 -0.8350 -1.3529  0.3631
19131TIP3   OH278807   6.448   6.543  16.192  0.2597  0.3352 -0.1146
19131TIP3    H178808   6.484   6.491  16.263 -0.1933  0.8922  0.5353
19131TIP3    H278809   6.524   6.586  16.153  0.4406  0.5625  0.4757
19132TIP3   OH278810   2.445   3.741  14.238 -0.7650 -0.3648 -0.4857
19132TIP3    H178811   2.462   3.651  14.263  0.9069 -0.1688 -0.8392
19132TIP3    H278812   2.350   3.751  14.249 -0.8125 -1.7821  0.7367
19133TIP3   OH278813   5.500   5.968   1.137  0.5511 -0.4929 -0.4409
19133TIP3    H178814   5.454   5.963   1.053 -0.0644 -0.9539 -0.0823
19133TIP3    H278815   5.577   5.911   1.125  0.8690  0.0312 -0.9347
19134TIP3   OH278816   6.392   6.499   1.847  0.5576  0.0507  0.1325
19134TIP3    H178817   6.409   6.439   1.920 -0.0057  0.8255  0.9179
19134TIP3    H278818   6.470   6.556   1.844  0.7187 -0.1786 -0.0751
19135TIP3   OH278819   0.252   3.129  14.908  0.0041 -0.2172  0.0276
19135TIP3    H178820   0.307   3.065  14.863  2.1791  0.0492  2.0824
19135TIP3    H278821   0.306   3.208  14.913 -0.8463  0.3218  1.4244
19136TIP3   OH278822   1.025   2.092   3.237  0.3185  0.1262  0.9596
19136TIP3    H178823   0.954   2.059   3.292  0.4699 -1.4889  0.2620
19136TIP3    H278824   1.084   2.017   3.228  0.1061  0.2060 -1.7113
19137TIP3   OH278825   3.310   3.060  14.224 -0.2070 -0.0684 -0.1171
19137TIP3    H178826   3.271   2.996  14.164  0.1996 -0.5150  0.0864
19137TIP3    H278827   3.319   3.012  14.306 -0.2967  0.3878  0.1572
19138TIP3   OH278828   6.580   5.467  15.654  0.1106 -0.0643 -0.0878
19138TIP3    H178829   6.569   5.416  15.574  0.5233 -2.3028  1.1864
19138TIP3    H278830   6.497   5.459  15.700  0.3716 -0.1287  0.3890
19139TIP3   OH278831   2.107   1.372   4.445 -0.1666 -0.2795 -0.0786
19139TIP3    H178832   2.156   1.451   4.423 -1.4692  0.7995  0.7463
19139TIP3    H278833   2.091   1.329   4.361 -0.2713  0.8445 -0.6515
19140TIP3   OH278834   0.071   0.191  16.414  0.7047 -0.2838 -0.0590
19140TIP3    H178835  -0.024   0.191  16.416  0.6117  1.5967 -1.5509
19140TIP3    H278836   0.093   0.191  16.321  2.2212 -1.8757  0.2392
19141TIP3   OH278837   4.775   0.873   3.691 -0.3199  0.5156  0.7999
19141TIP3    H178838   4.798   0.784   3.716 -0.4083  0.4294  0.5809
19141TIP3    H278839   4.844   0.900   3.630 -1.3431 -0.1497 -0.7438
19142TIP3   OH278840   6.129   1.194   5.925  0.3314 -0.4872 -0.0491
19142TIP3    H178841   6.222   1.211   5.939  0.6055  0.2918 -2.4754
19142TIP3    H278842   6.123   1.098   5.924  1.0614 -0.5492  0.3148
19143TIP3   OH278843   3.182   4.192   4.846  0.3020 -0.2504  0.1323
19143TIP3    H178844   3.131   4.194   4.765 -1.2493 -0.1181  1.0801
19143TIP3    H278845   3.179   4.101   4.874 -1.5919  0.1720  1.4849
19144TIP3   OH278846   3.107   4.098   2.791  0.0408 -0.4672 -0.2696
19144TIP3    H178847   3.107   4.065   2.701 -2.7685  0.0283 -0.5394
19144TIP3    H278848   3.073   4.187   2.785  0.8989  0.0052  1.1927
19145TIP3   OH278849   0.458   3.278  14.337 -0.3074  0.1733  0.5384
19145TIP3    H178850   0.362   3.276  14.343 -0.3909  0.5780 -0.4814
19145TIP3    H278851   0.486   3.306  14.424 -1.1311  0.2988  0.7770
19146TIP3   OH278852   4.754   4.485  17.168  0.1477 -0.4848 -0.6494
19146TIP3    H178853   4.801   4.412  17.129 -0.0200 -1.2728  0.5954
19146TIP3    H278854   4.680   4.445  17.214 -0.2121  0.5036 -0.3354
19147TIP3   OH278855   4.243   3.772  14.941 -0.2512 -0.5111  0.3049
19147TIP3    H178856   4.320   3.746  14.991 -0.1408 -2.5775 -0.8096
19147TIP3    H278857   4.272   3.846  14.889  1.4200 -1.9695 -0.9612
19148TIP3   OH278858   6.009   5.360   1.608 -0.6317  0.1138 -0.4605
19148TIP3    H178859   6.100   5.390   1.604 -0.8677  0.7786 -1.0288
19148TIP3    H278860   6.014   5.265   1.600 -0.1606  0.3248 -3.5349
19149TIP3   OH278861   4.066   6.759  16.110  1.0046 -0.1587 -0.5976
19149TIP3    H178862   4.147   6.786  16.154  1.1869  0.1909 -1.1516
19149TIP3    H278863   4.082   6.773  16.017  0.3180 -0.1230 -0.7182
19150TIP3   OH278864   3.567   1.510   2.829 -0.3327 -0.3661 -0.2238
19150TIP3    H178865   3.550   1.490   2.736  0.3846  0.8635 -0.6420
19150TIP3    H278866   3.480   1.526   2.866 -0.7050 -1.7700 -0.4526
19151TIP3   OH278867   3.069   3.699  16.123  0.2466 -0.3890 -0.7924
19151TIP3    H178868   3.115   3.717  16.205 -0.0323 -2.5545 -0.0897
19151TIP3    H278869   3.135   3.710  16.055  0.4056  1.7612 -0.3444
19152TIP3   OH278870   0.386   6.790   2.827  0.3093 -0.3984  0.5952
19152TIP3    H178871   0.435   6.861   2.868  1.8362  0.6963 -2.7198
19152TIP3    H278872   0.295   6.807   2.850  0.7651  1.9115  0.9777
19153TIP3   OH278873   5.516   1.748  15.610 -0.2899  0.3222  0.0472
19153TIP3    H178874   5.476   1.764  15.524 -0.6253  0.5965  0.2493
19153TIP3    H278875   5.547   1.834  15.639  0.5675  0.0870 -0.1598
19154TIP3   OH278876   0.795   2.341  11.999 -0.2695  0.0241  0.0079
19154TIP3    H178877   0.817   2.251  11.974  0.3411 -0.1232  1.0451
19154TIP3    H278878   0.875   2.391  11.979 -0.5836  0.3326 -0.4993
19155TIP3   OH278879   4.488   0.655   3.722 -0.2719 -0.0583  0.1020
19155TIP3    H178880   4.482   0.561   3.738 -0.5903 -0.0828 -0.1643
19155TIP3    H278881   4.476   0.664   3.628  0.3842  0.1933  0.0363
19156TIP3   OH278882   6.001   6.359   6.128  0.4607  0.3415 -0.1746
19156TIP3    H178883   6.038   6.364   6.216  0.0256  4.8346 -0.0220
19156TIP3    H278884   6.075   6.374   6.070  0.3980 -0.5160 -0.4928
19157TIP3   OH278885   2.450   6.603  10.990  0.0033  0.1705 -0.2877
19157TIP3    H178886   2.386   6.559  11.046 -0.4980  0.1987 -0.8362
19157TIP3    H278887   2.495   6.531  10.944 -0.0364  0.1822 -0.3437
19158TIP3   OH278888   0.393   4.677   0.631  0.5252 -0.1391 -0.2307
19158TIP3    H178889   0.383   4.667   0.536 -0.9250  1.7968 -0.3614
19158TIP3    H278890   0.429   4.594   0.661  0.7268 -0.9095 -2.4364
19159TIP3   OH278891   4.322   4.514   1.716 -0.8336 -0.4677 -0.0674
19159TIP3    H178892   4.395   4.469   1.674  0.4935  1.6864 -0.1697
19159TIP3    H278893   4.264   4.538   1.644 -1.0030 -1.0168 -0.1214
19160TIP3   OH278894   5.185   6.493  17.002 -0.1014 -0.2610  0.3124
19160TIP3    H178895   5.250   6.558  17.028  0.2475 -0.4316 -0.1241
19160TIP3    H278896   5.175   6.506  16.908 -1.4471  0.4409  0.5332
19161TIP3   OH278897   5.631   4.788  16.471 -0.3102  0.2002  0.1149
19161TIP3    H178898   5.709   4.740  16.443 -0.2907  1.6476 -2.5895
19161TIP3    H278899   5.647   4.878  16.444 -1.5244  1.2446  2.5907
19162TIP3   OH278900   2.574   5.499  10.696  0.0996 -0.0606 -0.7305
19162TIP3    H178901   2.517   5.453  10.758  0.5837 -1.8976 -1.6114
19162TIP3    H278902   2.514   5.555  10.646 -0.6732 -0.6408 -0.4656
19163TIP3   OH278903   4.715   2.495   5.139 -0.6540  0.0054  0.8350
19163TIP3    H178904   4.728   2.452   5.224 -1.8639  0.7175  1.3917
19163TIP3    H278905   4.795   2.546   5.127 -0.5290  0.0118  1.6101
19164TIP3   OH278906   0.634   0.297   0.648  0.8284 -0.4605 -0.0617
19164TIP3    H178907   0.609   0.376   0.600 -2.0302 -1.8634 -1.1328
19164TIP3    H278908   0.661   0.235   0.579  0.5391 -1.2348  0.5089
19165TIP3   OH278909   3.973   3.182   2.755 -0.1267  0.4706 -0.0380
19165TIP3    H178910   4.050   3.217   2.798  0.4294 -0.8660  0.1111
19165TIP3    H278911   3.985   3.087   2.758 -0.1975  0.2799 -2.8393
19166TIP3   OH278912   6.700   0.135   5.015  0.3172  0.7863  0.2778
19166TIP3    H178913   6.645   0.186   4.955  0.7441  2.8633  1.5265
19166TIP3    H278914   6.638   0.077   5.060 -0.1521 -0.0497 -1.3885
19167TIP3   OH278915   5.893   1.015   2.267 -0.4754  0.2003  0.3358
19167TIP3    H178916   5.941   1.026   2.184  0.5078 -0.3094  0.8235
19167TIP3    H278917   5.910   0.925   2.293 -0.5258  0.4426  1.2510
19168TIP3   OH278918   4.478   3.501  16.894 -0.7090  0.5123  0.2967
19168TIP3    H178919   4.480   3.596  16.879  0.2495  0.0934 -3.3629
19168TIP3    H278920   4.568   3.478  16.915 -1.1192  0.4396  2.1680
19169TIP3   OH278921   2.876   3.428   0.597  0.6907 -0.0477  0.6268
19169TIP3    H178922   2.917   3.430   0.684  0.9448 -0.0988  0.5078
19169TIP3    H278923   2.883   3.518   0.565  2.2849 -0.4033 -0.1241
19170TIP3   OH278924   4.638   6.516   6.449 -0.4322  0.2032  0.6828
19170TIP3    H178925   4.688   6.595   6.470 -0.0634 -0.0670  0.8321
19170TIP3    H278926   4.581   6.542   6.378  1.3485 -0.0023 -0.9095
19171TIP3   OH278927   4.973   6.621  17.131 -0.7564 -0.1743  0.2160
19171TIP3    H178928   4.964   6.581  17.218  2.7391  0.8199  1.1980
19171TIP3    H278929   5.042   6.571  17.089  0.4468  1.8620 -0.3536
19172TIP3   OH278930   3.086   2.765  14.766  0.6597 -0.3524  0.1808
19172TIP3    H178931   3.059   2.724  14.684  0.1794  0.2107  0.0460
19172TIP3    H278932   3.145   2.702  14.807  2.2054  0.0449 -1.3546
19173TIP3   OH278933   1.004   6.007  15.136  0.1458 -0.1146  0.7099
19173TIP3    H178934   0.977   5.953  15.211  0.2339 -1.5929 -0.2945
19173TIP3    H278935   1.099   6.010  15.142  0.3829 -2.4515 -0.7586
19174TIP3   OH278936   6.517   4.412   0.245 -0.0569  0.5444 -0.9346
19174TIP3    H178937   6.580   4.482   0.264  1.1469 -0.0685 -2.3919
19174TIP3    H278938   6.448   4.423   0.310  1.7061  1.0573  0.9526
19175TIP3   OH278939   5.199   6.473  12.798 -0.6982  0.2188  0.2391
19175TIP3    H178940   5.286   6.456  12.835 -0.7730  2.7770  1.8475
19175TIP3    H278941   5.171   6.389  12.763  2.8339 -0.4995 -1.2672
19176TIP3   OH278942   3.670   6.121  15.938 -0.0879 -0.4586  0.5241
19176TIP3    H178943   3.764   6.109  15.924 -0.3518 -0.1691 -1.9274
19176TIP3    H278944   3.656   6.097  16.030  2.7354  1.6589  1.6753
19177TIP3   OH278945   1.377   1.355   0.291  0.1908  0.3430  0.6102
19177TIP3    H178946   1.336   1.338   0.206 -0.7478  1.7550  0.7469
19177TIP3    H278947   1.427   1.276   0.309 -2.4629 -1.5328  0.4126
19178TIP3   OH278948   3.647   5.450  12.748  0.3264  0.1078  0.6256
19178TIP3    H178949   3.681   5.363  12.724  1.8348 -0.0164  2.9365
19178TIP3    H278950   3.705   5.480  12.817 -0.9722  2.4306  0.7937
19179TIP3   OH278951   3.896   5.640   4.739  0.3703  0.4724 -0.3707
19179TIP3    H178952   3.931   5.646   4.828  0.8463  2.0561 -0.6300
19179TIP3    H278953   3.855   5.726   4.724  0.3229  0.2374 -1.6938
19180TIP3   OH278954   1.712   3.538  12.270  0.3781  0.7536 -0.2202
19180TIP3    H178955   1.715   3.518  12.364 -0.1980  0.9523 -0.1576
19180TIP3    H278956   1.640   3.485  12.237  1.6944 -0.7171 -0.9011
19181TIP3   OH278957   1.025   5.556   4.836 -0.2644 -0.3523  0.1605
19181TIP3    H178958   1.061   5.494   4.772 -0.9621  0.2346 -0.8281
19181TIP3    H278959   1.083   5.632   4.831  0.2694 -0.6836  0.9793
19182TIP3   OH278960   2.622   4.780  10.612  0.2677 -0.4899 -0.2203
19182TIP3    H178961   2.635   4.791  10.518  0.5867 -0.3621 -0.1610
19182TIP3    H278962   2.610   4.685  10.623 -0.5518 -0.4226 -0.4830
19183TIP3   OH278963   5.314   2.679   2.600 -0.0846  0.2700  0.0695
19183TIP3    H178964   5.291   2.758   2.551  2.6304  0.9219 -0.3283
19183TIP3    H278965   5.345   2.711   2.685 -0.2630 -0.4735  0.4265
19184TIP3   OH278966   2.994   0.691  15.136 -0.5767  0.0891  0.2223
19184TIP3    H178967   3.044   0.662  15.059 -0.7653  2.1683 -0.7424
19184TIP3    H278968   3.057   0.687  15.208  0.0180 -0.5085 -0.3147
19185TIP3   OH278969   1.409   2.719   3.208 -1.0427 -0.1502 -0.0844
19185TIP3    H178970   1.380   2.748   3.121 -0.4059  1.4236  0.2041
19185TIP3    H278971   1.328   2.690   3.251 -1.5931  0.4128 -0.7002
19186TIP3   OH278972   4.893   1.870   1.382  0.0178  0.1140  0.0954
19186TIP3    H178973   4.886   1.882   1.287  1.2911  0.8769  0.0804
19186TIP3    H278974   4.946   1.791   1.392 -0.7411 -0.3993  0.1951
19187TIP3   OH278975   6.206   3.003  13.313  0.0592 -0.0317 -0.7620
19187TIP3    H178976   6.255   3.070  13.362  0.8530 -0.8950 -0.3366
19187TIP3    H278977   6.194   2.932  13.377  0.4026 -0.8416 -1.5808
19188TIP3   OH278978   1.327   0.302  12.005  0.2662 -0.2751  0.2661
19188TIP3    H178979   1.282   0.347  12.077 -0.0313  0.9397 -0.6518
19188TIP3    H278980   1.407   0.353  11.992 -0.6126  0.7458 -1.5441
19189TIP3   OH278981   2.595   2.864   3.309  0.4610  0.4453 -0.0405
19189TIP3    H178982   2.606   2.818   3.393  0.1304 -0.8939 -0.6905
19189TIP3    H278983   2.500   2.872   3.299  0.4451 -0.4525 -0.7963
19190TIP3   OH278984   4.982   5.948   3.953 -0.4444  0.1091  0.0982
19190TIP3    H178985   4.924   5.953   4.028 -0.3124  0.4438  0.1782
19190TIP3    H278986   4.926   5.917   3.881 -0.7143  0.4195  0.1775
19191TIP3   OH278987   5.155   3.689  16.472  0.2161 -0.4477 -0.4961
19191TIP3    H178988   5.154   3.778  16.506  0.3614 -0.4921 -0.3747
19191TIP3    H278989   5.210   3.641  16.533  0.9766 -0.3956 -1.1259
19192TIP3   OH278990   2.790   4.880  10.372  0.0305  0.2665 -0.1956
19192TIP3    H178991   2.775   4.974  10.368 -0.2467  0.1862 -3.0917
19192TIP3    H278992   2.885   4.871  10.370  0.0574  0.4681  0.0782
19193TIP3   OH278993   1.305   4.837   2.147 -0.1348 -0.0010 -0.2628
19193TIP3    H178994   1.370   4.777   2.111 -1.0219 -0.5131 -1.0542
19193TIP3    H278995   1.223   4.813   2.104 -1.1923 -0.4208  1.8394
19194TIP3   OH278996   1.363   0.804  14.670  0.3186  0.0770  0.6155
19194TIP3    H178997   1.420   0.805  14.747  0.2348 -2.2180  0.7754
19194TIP3    H278998   1.423   0.817  14.596  1.1376 -2.1198  0.7922
19195TIP3   OH278999   2.095   1.292  15.872 -0.1232  0.2595 -0.1175
19195TIP3    H179000   2.014   1.248  15.846  0.5693 -2.5089  2.0409
19195TIP3    H279001   2.160   1.263  15.807 -0.5006  1.3288 -1.0014
19196TIP3   OH279002   2.935   0.322   4.078 -0.0246 -0.4750  0.4094
19196TIP3    H179003   2.877   0.286   4.011 -0.4698 -0.7458  0.9388
19196TIP3    H279004   3.008   0.259   4.083 -0.3390 -0.8227  0.6727
19197TIP3   OH279005   4.898   1.439   5.076 -0.1633  0.0928  0.7338
19197TIP3    H179006   4.826   1.410   5.131 -0.1661  0.2573  0.8172
19197TIP3    H279007   4.919   1.363   5.022 -1.5650  0.5776 -0.5604
19198TIP3   OH279008   5.916   1.186   6.866 -0.2109  0.2336 -0.8873
19198TIP3    H179009   5.957   1.173   6.781 -1.5182  1.2777 -1.7122
19198TIP3    H279010   5.887   1.277   6.866  1.2551  0.8105  1.3700
19199TIP3   OH279011   2.176   5.114   3.539 -0.4487  0.1749  0.4482
19199TIP3    H179012   2.193   5.073   3.455 -1.5102  1.3124 -0.3550
19199TIP3    H279013   2.186   5.207   3.523 -4.9357  0.8891  0.3433
19200TIP3   OH279014   0.560   0.767   6.249  0.1202 -0.9307 -0.5090
19200TIP3    H179015   0.570   0.774   6.344 -0.5310  0.0939 -0.5014
19200TIP3    H279016   0.477   0.720   6.237  0.3766 -1.3744 -0.5810
19201TIP3   OH279017   1.442   0.126  16.614 -0.2166 -0.0240 -0.2897
19201TIP3    H179018   1.458   0.220  16.602  0.2264 -0.2309 -1.3391
19201TIP3    H279019   1.522   0.093  16.654 -0.3600  0.0265  0.0487
19202TIP3   OH279020   3.705   4.121   2.977 -0.0978 -0.1171  0.5954
19202TIP3    H179021   3.666   4.209   2.973 -0.4041 -0.2763 -0.0315
19202TIP3    H279022   3.637   4.066   3.015 -0.6718 -0.4820 -0.9005
19203TIP3   OH279023   2.129   3.599  13.515 -0.5288  0.1326 -0.4458
19203TIP3    H179024   2.047   3.599  13.466 -1.4498  2.3369  0.9556
19203TIP3    H279025   2.124   3.677  13.570  1.2885 -1.1729  1.7292
19204TIP3   OH279026   1.968   4.872  14.754  0.1402  0.3312  0.2914
19204TIP3    H179027   2.034   4.929  14.715  0.2918  1.0203  1.5162
19204TIP3    H279028   1.940   4.815  14.682 -0.8648  2.6980 -1.3183
19205TIP3   OH279029   1.422   6.250   1.016  0.3823  0.3155 -0.3253
19205TIP3    H179030   1.515   6.268   1.027  0.4852 -0.6349  0.5045
19205TIP3    H279031   1.416   6.154   1.013 -0.7917  0.2075  2.2179
19206TIP3   OH279032   0.486   1.582   2.133 -0.3861 -0.7045  0.1469
19206TIP3    H179033   0.411   1.570   2.074 -0.4901 -1.1430  0.3636
19206TIP3    H279034   0.562   1.559   2.079 -0.1039  2.3197 -0.9279
19207TIP3   OH279035   6.771   1.094   0.787  0.0632 -0.5077 -0.1627
19207TIP3    H179036   6.734   1.155   0.850 -1.6630 -3.4820  1.9584
19207TIP3    H279037   6.707   1.092   0.715 -0.8734 -1.1372  0.6558
19208TIP3   OH279038   0.623   5.258   5.717  0.1240 -0.2098  0.1197
19208TIP3    H179039   0.616   5.248   5.812  1.4600  0.3288  0.2922
19208TIP3    H279040   0.538   5.294   5.691 -0.0912  0.0809  1.1742
19209TIP3   OH279041   2.955   3.822   1.553  0.2923 -0.1990 -0.0156
19209TIP3    H179042   2.997   3.908   1.553  0.2710 -0.1892 -0.6073
19209TIP3    H279043   3.000   3.773   1.484 -0.2093 -0.4128 -0.1963
19210TIP3   OH279044   5.010   2.639   4.180  0.4563  0.4543 -0.1423
19210TIP3    H179045   5.012   2.730   4.151  0.4908  0.5117  0.0393
19210TIP3    H279046   5.102   2.616   4.194  0.5768 -0.0824 -1.6541
19211TIP3   OH279047   2.522   0.135  15.480 -0.2417 -0.2358 -0.2194
19211TIP3    H179048   2.493   0.224  15.461 -0.4659  0.2406  2.0470
19211TIP3    H279049   2.610   0.147  15.518 -0.5056 -0.9131  0.6278
19212TIP3   OH279050   0.235   1.367  11.464  0.1292 -0.9457  0.7680
19212TIP3    H179051   0.202   1.442  11.514  0.5385 -0.4086  0.2462
19212TIP3    H279052   0.199   1.379  11.376 -2.9415 -3.3764  1.5172
19213TIP3   OH279053   5.826   0.068   2.701 -0.6432  0.4550  0.2449
19213TIP3    H179054   5.826   0.024   2.786  0.4526  2.9564  1.6624
19213TIP3    H279055   5.770   0.014   2.646 -1.0590 -1.5015  2.4143
19214TIP3   OH279056   4.141   1.724   4.559  0.4575 -0.5324  0.6435
19214TIP3    H179057   4.178   1.786   4.623  3.6785 -2.5863  1.0329
19214TIP3    H279058   4.134   1.642   4.608 -0.7281 -1.2444 -0.6694
19215TIP3   OH279059   5.611   4.569  14.435  0.3110 -0.1630 -0.3858
19215TIP3    H179060   5.632   4.660  14.413  1.4012 -0.3325 -0.1231
19215TIP3    H279061   5.578   4.574  14.525  0.5067 -0.0442 -0.3198
19216TIP3   OH279062   0.088   4.183  14.154  0.2023 -0.0990 -0.2408
19216TIP3    H179063   0.135   4.185  14.237 -1.3959 -1.0512  0.7250
19216TIP3    H279064   0.105   4.269  14.115  0.3630  0.6589  1.4171
19217TIP3   OH279065   4.381   0.887   0.359  0.0753  0.4406 -0.2700
19217TIP3    H179066   4.442   0.961   0.364  1.3396 -0.4296 -1.7878
19217TIP3    H279067   4.344   0.892   0.271 -1.6556  0.5994  0.4200
19218TIP3   OH279068   3.288   1.377   2.172 -0.3026 -0.3474  0.0157
19218TIP3    H179069   3.300   1.468   2.197 -0.7169  0.0041 -0.9911
19218TIP3    H279070   3.375   1.348   2.143  0.2235 -0.8147  1.9138
19219TIP3   OH279071   6.279   1.221   4.563  0.2773  0.1571  0.2035
19219TIP3    H179072   6.200   1.169   4.551 -0.5350  1.9042 -3.0715
19219TIP3    H279073   6.347   1.171   4.518  0.0243  0.7162 -0.8287
19220TIP3   OH279074   4.915   6.056  11.036  0.0042 -0.3776 -0.1439
19220TIP3    H179075   4.864   6.103  10.970  0.1300 -0.4180 -0.2721
19220TIP3    H279076   4.948   5.979  10.990 -0.0607 -0.5032  0.0199
19221TIP3   OH279077   2.371   1.998   5.119  0.3395  0.2629  0.2271
19221TIP3    H179078   2.383   2.067   5.053  0.5350  0.9738  0.9784
19221TIP3    H279079   2.401   2.038   5.200  0.2085 -0.6365  0.7307
19222TIP3   OH279080   2.725   0.723   0.361 -0.3656 -0.6581 -0.3057
19222TIP3    H179081   2.684   0.703   0.445  1.2137  0.8338  0.9001
19222TIP3    H279082   2.700   0.814   0.343 -0.4079 -0.8544 -1.2837
19223TIP3   OH279083   6.587   0.238  16.236 -0.0854  0.2062 -0.7625
19223TIP3    H179084   6.532   0.188  16.296 -0.1584  0.3469 -0.7106
19223TIP3    H279085   6.536   0.317  16.218  0.2977  0.5513 -0.3466
19224TIP3   OH279086   2.350   4.788  11.482  0.1134 -0.0258  0.1679
19224TIP3    H179087   2.432   4.742  11.503 -0.0173  0.0484  0.8617
19224TIP3    H279088   2.325   4.753  11.396  1.3652  0.6478 -0.5090
19225TIP3   OH279089   2.806   6.439   3.917 -0.3672 -0.6468 -0.1204
19225TIP3    H179090   2.802   6.528   3.881  0.4618 -0.1139  1.0379
19225TIP3    H279091   2.736   6.436   3.982  1.0683 -0.0051  1.5402
19226TIP3   OH279092   1.064   4.923   6.314  0.1381 -0.9877  0.0623
19226TIP3    H179093   1.041   4.923   6.406  1.1094  0.9893  0.3661
19226TIP3    H279094   1.152   4.961   6.311 -0.4463  0.4040 -1.7494
19227TIP3   OH279095   3.619   0.938  10.780  0.5348 -0.6064  0.2222
19227TIP3    H179096   3.583   0.853  10.756 -0.7016 -0.1651  0.3842
19227TIP3    H279097   3.676   0.962  10.708 -2.6694  0.4555 -2.2222
19228TIP3   OH279098   3.238   3.646   4.766 -0.1964 -0.1166 -0.4375
19228TIP3    H179099   3.317   3.602   4.799  1.1474  1.8531 -0.8255
19228TIP3    H279100   3.168   3.617   4.824  0.8602 -1.6681  0.1390
19229TIP3   OH279101   3.710   5.240   5.063 -0.0034 -0.4746  0.0572
19229TIP3    H179102   3.665   5.169   5.109 -0.9732  1.2862  2.0181
19229TIP3    H279103   3.781   5.264   5.122 -1.0009  1.5398  0.5280
19230TIP3   OH279104   3.798   2.091  13.915  0.1631 -0.2550  0.0527
19230TIP3    H179105   3.815   2.029  13.986  2.2007  0.4082  0.2193
19230TIP3    H279106   3.717   2.136  13.941 -0.3407 -1.5636  0.8143
19231TIP3   OH279107   5.005   1.399   4.599  0.2570 -0.1539  0.5144
19231TIP3    H179108   5.096   1.401   4.628  0.1553  2.1746  0.8756
19231TIP3    H279109   4.986   1.489   4.574 -1.8527 -0.6603  0.0880
19232TIP3   OH279110   1.257   1.606   0.884 -0.2379 -0.1699 -0.1769
19232TIP3    H179111   1.203   1.622   0.807 -0.1025 -1.9574 -0.6879
19232TIP3    H279112   1.200   1.626   0.958 -0.2585  1.9289 -0.6945
19233TIP3   OH279113   3.044   3.834  13.613 -0.3139  0.8930 -0.0463
19233TIP3    H179114   2.970   3.821  13.673 -1.1394  0.9224 -1.0348
19233TIP3    H279115   3.097   3.754  13.623 -1.2112  0.2414 -0.3243
19234TIP3   OH279116   3.622   3.985  15.105 -0.0117  0.2529  0.4287
19234TIP3    H179117   3.631   3.893  15.132  0.0677 -0.9177 -3.0131
19234TIP3    H279118   3.610   4.033  15.186 -1.1379 -2.9259  2.3370
19235TIP3   OH279119   6.604   2.639   3.623 -0.2856 -0.2207  0.7394
19235TIP3    H179120   6.677   2.578   3.615 -0.2119 -0.0745  0.2839
19235TIP3    H279121   6.635   2.706   3.682  0.7040  0.9305 -0.9979
19236TIP3   OH279122   6.308   0.169  13.672 -0.1923 -0.0318 -0.4445
19236TIP3    H179123   6.370   0.130  13.612 -2.2604 -0.9456 -2.1207
19236TIP3    H279124   6.348   0.253  13.697  1.0748  0.0486 -2.5240
19237TIP3   OH279125   1.926   1.855  15.022 -0.4760  0.0375  0.3061
19237TIP3    H179126   1.882   1.777  15.056  1.2303 -1.1558 -0.0736
19237TIP3    H279127   2.015   1.849  15.059 -0.4835  2.1567  0.7804
19238TIP3   OH279128   1.792   5.749  15.829  0.1855  0.3651 -0.6938
19238TIP3    H179129   1.791   5.778  15.738 -0.3585 -2.3044 -1.6218
19238TIP3    H279130   1.767   5.657  15.825 -0.8690  0.4309  2.2761
19239TIP3   OH279131   1.327   5.886  16.839 -0.5853 -0.4192 -0.0068
19239TIP3    H179132   1.355   5.937  16.763 -0.6441  0.1332  0.3355
19239TIP3    H279133   1.408   5.868  16.887 -0.5244 -0.9400 -0.3056
19240TIP3   OH279134   5.160   6.329  14.365 -0.1987 -0.3667 -0.4099
19240TIP3    H179135   5.103   6.402  14.341  1.5766  1.0820 -0.4299
19240TIP3    H279136   5.141   6.314  14.458 -1.8161 -1.0953 -0.8172
19241TIP3   OH279137   2.512   0.154   4.032  0.0316 -0.0723  0.1422
19241TIP3    H179138   2.482   0.227   4.086  0.1585  1.8386 -2.1843
19241TIP3    H279139   2.432   0.111   4.003 -0.1090 -0.0090  0.4328
19242TIP3   OH279140   5.416   5.008   1.058  0.0384  0.2114 -0.3693
19242TIP3    H179141   5.395   5.087   1.009 -2.3574  0.0396  0.2541
19242TIP3    H279142   5.388   4.936   1.002  3.8097 -0.4310 -1.7184
19243TIP3   OH279143   0.236   2.554   4.245  0.2283  0.1745 -0.5813
19243TIP3    H179144   0.197   2.470   4.219 -0.8904  1.0853 -2.0084
19243TIP3    H279145   0.312   2.530   4.298  1.3351 -1.8361 -2.8643
19244TIP3   OH279146   2.168   0.711  14.962 -0.0767  0.2075 -0.1327
19244TIP3    H179147   2.098   0.719  15.027 -0.4772 -2.1783 -0.1739
19244TIP3    H279148   2.138   0.642  14.903  1.6445  0.1897 -1.0499
19245TIP3   OH279149   5.385   0.966   4.591  0.1069 -0.3220  0.1543
19245TIP3    H179150   5.369   1.016   4.511 -0.7242  1.2184  1.2201
19245TIP3    H279151   5.301   0.925   4.611  0.7160 -2.0263 -0.5726
19246TIP3   OH279152   5.435   1.315  15.173 -0.1464  0.1223 -0.0026
19246TIP3    H179153   5.343   1.320  15.198 -0.1288 -1.0231  0.3327
19246TIP3    H279154   5.480   1.366  15.241 -0.5652  1.1372 -0.4644
19247TIP3   OH279155   4.931   5.969   1.960  0.4368  0.1315 -0.4143
19247TIP3    H179156   4.926   5.948   2.053 -0.2438 -0.1857 -0.5229
19247TIP3    H279157   5.007   5.919   1.928  1.9414  1.8036  0.3736
19248TIP3   OH279158   1.267   6.708   2.662  0.0647  0.0322 -0.1355
19248TIP3    H179159   1.308   6.703   2.748  1.1014 -0.5807 -0.6370
19248TIP3    H279160   1.315   6.778   2.617 -0.3603  0.2404 -0.2710
19249TIP3   OH279161   1.533   3.719  15.495  0.0141  0.7672  0.5476
19249TIP3    H179162   1.580   3.661  15.436  0.6934  0.8839  0.9712
19249TIP3    H279163   1.442   3.713  15.466  0.4216  1.3381 -0.9519
19250TIP3   OH279164   1.591   5.787   3.201 -0.2672 -0.6000 -0.0818
19250TIP3    H179165   1.605   5.702   3.161  2.3727  0.0533 -0.7381
19250TIP3    H279166   1.577   5.847   3.127 -0.6745 -0.2318  0.2869
19251TIP3   OH279167   3.019   3.704  11.871 -0.8959 -0.1376 -0.3031
19251TIP3    H179168   3.067   3.780  11.841  0.6717 -0.9921 -0.0442
19251TIP3    H279169   2.929   3.719  11.841 -0.4734  1.4595 -0.8486
19252TIP3   OH279170   4.426   5.786  14.438  0.4647  0.3314 -0.2352
19252TIP3    H179171   4.513   5.752  14.458  0.9053  1.6590  0.2550
19252TIP3    H279172   4.374   5.769  14.516  0.6192  0.5732 -0.0788
19253TIP3   OH279173   5.096   2.002  16.493 -0.1105  0.0024 -0.4292
19253TIP3    H179174   5.186   1.970  16.501  0.0414  0.3966 -0.5286
19253TIP3    H279175   5.096   2.052  16.411 -0.6945 -0.8816 -0.9782
19254TIP3   OH279176   5.472   3.976  12.107 -0.0671  0.4535  0.1417
19254TIP3    H179177   5.392   3.984  12.158  0.9861  0.4293  1.8536
19254TIP3    H279178   5.525   4.052  12.133  0.7377  0.1201 -0.4671
19255TIP3   OH279179   5.322   5.773  11.660 -0.0199  0.0314  0.5164
19255TIP3    H179180   5.288   5.701  11.714 -1.3703  0.0750 -0.2173
19255TIP3    H279181   5.259   5.781  11.588  0.4583  1.5258  0.2199
19256TIP3   OH279182   4.376   4.323   1.032 -0.2782  0.0048  0.4488
19256TIP3    H179183   4.407   4.356   1.116  0.5609 -0.2683  0.2554
19256TIP3    H279184   4.425   4.375   0.967 -1.3925  0.6748  0.1106
19257TIP3   OH279185   2.784   6.677   5.979 -0.4691 -0.2002 -0.0177
19257TIP3    H179186   2.796   6.616   6.051 -0.1768  1.6179  1.5494
19257TIP3    H279187   2.768   6.621   5.903  0.8918 -2.2414  1.0971
19258TIP3   OH279188   1.199   1.047  16.844 -0.1919  0.4427  0.1020
19258TIP3    H179189   1.182   0.973  16.785 -1.2838  1.6530 -1.1880
19258TIP3    H279190   1.159   1.021  16.927 -0.6731 -0.3607 -0.3617
19259TIP3   OH279191   5.855   0.519   0.078 -0.0599 -0.0314  0.0671
19259TIP3    H179192   5.891   0.489   0.161 -0.0024  1.6620  0.6981
19259TIP3    H279193   5.781   0.575   0.103 -1.0539 -0.7645 -1.0895
19260TIP3   OH279194   5.355   6.202   1.755  0.0732  0.0930 -0.1269
19260TIP3    H179195   5.351   6.133   1.822  0.5281  0.2852  0.0994
19260TIP3    H279196   5.418   6.169   1.691 -1.2671 -0.6468 -1.1020
19261TIP3   OH279197   0.175   2.206  10.732 -0.2898 -0.2821 -0.4237
19261TIP3    H179198   0.269   2.189  10.737 -0.2849 -0.2897 -0.5390
19261TIP3    H279199   0.138   2.157  10.804 -0.1463  0.1258 -0.0643
19262TIP3   OH279200   1.585   4.964  15.073  0.6578 -0.0630 -0.4630
19262TIP3    H179201   1.566   4.916  14.993 -0.7901 -0.0491 -0.1612
19262TIP3    H279202   1.650   4.911  15.119  0.5862 -0.6943 -1.0775
19263TIP3   OH279203   5.430   1.856  11.559 -0.6630 -0.4513 -0.0295
19263TIP3    H179204   5.340   1.856  11.525 -0.9856  1.3954  0.6797
19263TIP3    H279205   5.420   1.837  11.653 -0.1150 -1.9915 -0.2573
19264TIP3   OH279206   2.486   1.725   2.959  0.4377  0.1818  0.1588
19264TIP3    H179207   2.560   1.744   3.016  0.1124 -0.4468  0.8081
19264TIP3    H279208   2.467   1.632   2.973 -0.1524  0.2082 -0.3768
19265TIP3   OH279209   5.640   2.129  16.103 -0.0144 -0.0077  0.2347
19265TIP3    H179210   5.547   2.113  16.089  0.2638 -1.1940 -0.4507
19265TIP3    H279211   5.649   2.224  16.099 -1.4454  0.2657  2.0838
19266TIP3   OH279212   1.319   5.014   6.262 -0.5705 -0.2667 -0.1176
19266TIP3    H179213   1.397   4.958   6.267 -0.9089 -0.7059  0.3227
19266TIP3    H279214   1.353   5.103   6.269 -0.1282 -0.4631  0.2869
19267TIP3   OH279215   4.061   0.503  14.573 -0.0079 -0.4975  0.3675
19267TIP3    H179216   4.079   0.597  14.575  0.2700 -0.5298 -0.2752
19267TIP3    H279217   4.118   0.466  14.640 -1.4837 -0.0014  1.9637
19268TIP3   OH279218   6.362   1.747  12.663  0.8174  0.5260  0.4963
19268TIP3    H179219   6.275   1.784  12.679  1.0461  0.7753  1.1830
19268TIP3    H279220   6.358   1.659  12.702  0.6018  0.2018 -0.2369
19269TIP3   OH279221   4.775   1.636   5.467  0.3821 -0.1567 -0.2378
19269TIP3    H179222   4.826   1.630   5.386 -1.7969  0.1846 -1.7013
19269TIP3    H279223   4.841   1.655   5.534  2.3483 -1.0749 -1.7878
19270TIP3   OH279224   6.364   3.266   5.733  0.0670  0.2998 -0.0962
19270TIP3    H179225   6.358   3.249   5.639  0.7565 -0.4102 -0.0315
19270TIP3    H279226   6.285   3.314   5.755 -0.5157 -0.2740 -0.8910
19271TIP3   OH279227   4.368   3.006  16.793 -0.2903 -0.0533  0.3968
19271TIP3    H179228   4.333   2.948  16.727  1.0119 -0.4138  0.0018
19271TIP3    H279229   4.427   3.065  16.745 -2.3700  2.3547  0.5865
19272TIP3   OH279230   5.556   0.194   4.663  0.6465  0.1667 -0.0912
19272TIP3    H179231   5.494   0.240   4.607  0.5801 -0.4662 -0.5525
19272TIP3    H279232   5.536   0.101   4.649  2.0674 -0.0679 -0.6983
19273TIP3   OH279233   6.123   4.934  14.193  0.1083 -0.3084  0.2833
19273TIP3    H179234   6.133   4.997  14.122 -0.0823  0.1450  0.6527
19273TIP3    H279235   6.173   4.972  14.266 -1.0023  0.0268  0.8937
19274TIP3   OH279236   5.019   0.299  16.728 -0.3989  0.1307  0.3430
19274TIP3    H179237   5.097   0.279  16.779 -0.2410  1.1755  0.5317
19274TIP3    H279238   5.001   0.391  16.745 -0.3245  0.5361 -1.4829
19275TIP3   OH279239   5.222   3.884  11.048  0.1830 -0.0586 -0.3021
19275TIP3    H179240   5.275   3.805  11.052  1.5132  0.8703  1.9432
19275TIP3    H279241   5.147   3.866  11.105 -0.2718 -0.1910 -0.9266
19276TIP3   OH279242   5.485   5.039  11.502  0.0081 -0.1592 -0.3088
19276TIP3    H179243   5.547   5.080  11.440 -0.8468  1.3457 -0.2248
19276TIP3    H279244   5.468   4.952  11.465  0.2373  0.3585 -1.7116
19277TIP3   OH279245   1.970   5.187   1.282  0.0436 -0.5345  0.2075
19277TIP3    H179246   1.922   5.199   1.200  1.3783  1.3620 -0.3765
19277TIP3    H279247   1.940   5.259   1.338  0.4843 -0.7199  0.6924
19278TIP3   OH279248   0.259   6.277  17.085  0.0040  0.1327 -0.4343
19278TIP3    H179249   0.193   6.315  17.142  0.1209 -1.3597  0.7583
19278TIP3    H279250   0.252   6.183  17.099  0.7486 -0.2190 -2.1244
19279TIP3   OH279251   5.788   0.769  14.024 -0.4255  0.1618  0.3047
19279TIP3    H179252   5.843   0.807  13.955 -0.4578  1.9924  1.2122
19279TIP3    H279253   5.699   0.777  13.990 -0.3326 -0.4840 -0.1153
19280TIP3   OH279254   6.328   2.983   4.963 -0.1886  0.9381  0.3035
19280TIP3    H179255   6.313   2.890   4.981  1.4626  0.7931  1.1856
19280TIP3    H279256   6.248   3.013   4.919 -0.6826 -0.9314 -0.1580
19281TIP3   OH279257   0.456   3.713   5.375  0.0400  0.4128  0.4150
19281TIP3    H179258   0.540   3.760   5.371  0.2148  0.1268  0.7429
19281TIP3    H279259   0.479   3.621   5.369 -0.3547  0.3786 -0.9224
19282TIP3   OH279260   0.699   4.459  14.692 -0.2161 -0.6860 -0.4874
19282TIP3    H179261   0.735   4.388  14.744  1.0032 -0.8086 -1.4429
19282TIP3    H279262   0.614   4.477  14.731 -0.0742 -1.9216  0.4496
19283TIP3   OH279263   2.141   4.259   0.706  0.0219  0.2487  0.0466
19283TIP3    H179264   2.177   4.315   0.775  1.1834  0.2849 -0.5736
19283TIP3    H279265   2.131   4.316   0.631 -0.3184 -0.0165 -0.1150
19284TIP3   OH279266   1.207   3.991  15.056 -0.0309  0.2550  0.2059
19284TIP3    H179267   1.238   4.006  15.146  0.2427 -0.0486  0.1662
19284TIP3    H279268   1.186   4.078  15.023 -0.5205  0.3286  0.7011
19285TIP3   OH279269   2.066   4.236   2.324 -0.1065  0.1921  0.3443
19285TIP3    H179270   2.071   4.261   2.416  0.6505 -1.4689  0.7896
19285TIP3    H279271   2.146   4.272   2.286  0.0907  0.0027  0.5742
19286TIP3   OH279272   0.954   3.734   4.202  0.0898 -0.0242 -0.2991
19286TIP3    H179273   1.038   3.687   4.201  0.6382  0.8775  0.7074
19286TIP3    H279274   0.979   3.826   4.203 -0.9569  0.3057 -1.6267
19287TIP3   OH279275   1.475   5.296  12.382  0.2308 -0.7215  0.0675
19287TIP3    H179276   1.529   5.300  12.460 -0.7981  0.6701  0.7629
19287TIP3    H279277   1.506   5.369  12.327  0.9324 -1.6715 -0.8447
19288TIP3   OH279278   4.857   0.863   0.589  0.4881 -0.5035 -0.2067
19288TIP3    H179279   4.847   0.843   0.681  1.3305 -1.0789 -0.2266
19288TIP3    H279280   4.773   0.842   0.549  0.0724 -0.0986  0.4479
19289TIP3   OH279281   3.147   4.597   2.791 -0.0912 -0.4026 -0.2062
19289TIP3    H179282   3.160   4.579   2.698  1.6137  1.8894 -0.4811
19289TIP3    H279283   3.067   4.649   2.795 -1.2117 -2.0576 -0.1311
19290TIP3   OH279284   2.789   2.392  15.862  0.5470  0.0927  0.1402
19290TIP3    H179285   2.753   2.473  15.826  1.2838  0.6648  0.6588
19290TIP3    H279286   2.761   2.392  15.954 -0.3181 -0.7634 -0.1111
19291TIP3   OH279287   6.683   3.306  15.565  0.2150 -0.5831 -0.0882
19291TIP3    H179288   6.611   3.368  15.577  1.2165  0.8213 -1.1239
19291TIP3    H279289   6.639   3.221  15.554 -1.3063  0.2558 -0.8422
19292TIP3   OH279290   5.074   4.844  14.769  0.0855  0.0423 -0.4992
19292TIP3    H179291   5.083   4.856  14.864 -2.9194 -0.9101  0.0006
19292TIP3    H279292   5.160   4.812  14.741  1.3583  1.2909  1.6939
19293TIP3   OH279293   6.325   1.582  12.911  0.6429  0.0123  0.2654
19293TIP3    H179294   6.418   1.566  12.927  0.6917 -0.9017 -0.7989
19293TIP3    H279295   6.283   1.500  12.934 -0.0541  0.7381  1.7020
19294TIP3   OH279296   0.991   6.084  11.503 -0.5217 -0.1821  0.1497
19294TIP3    H179297   1.040   6.149  11.555  1.2432 -0.9319 -0.4881
19294TIP3    H279298   0.958   6.134  11.428 -0.7900  0.3587  0.6195
19295TIP3   OH279299   5.803   1.264  14.806 -0.1835  0.1937 -0.0377
19295TIP3    H179300   5.784   1.226  14.892 -1.7915 -0.8091 -0.7740
19295TIP3    H279301   5.890   1.232  14.785 -1.5437 -3.6206 -0.7441
19296TIP3   OH279302   0.988   2.955  16.474 -0.1386  0.4598  0.4317
19296TIP3    H179303   0.923   2.964  16.545 -0.2743 -0.2960  0.4102
19296TIP3    H279304   1.051   2.892  16.508 -0.5735 -0.4301 -0.3791
19297TIP3   OH279305   2.400   2.479   0.526  0.5665  0.2270 -0.1908
19297TIP3    H179306   2.389   2.573   0.510 -0.2931  0.1956  0.1676
19297TIP3    H279307   2.386   2.439   0.440  0.7221  0.4075 -0.3023
19298TIP3   OH279308   0.882   5.719   2.968 -0.0293  0.3059 -0.2402
19298TIP3    H179309   0.790   5.714   2.944  0.7614 -0.0991 -3.6979
19298TIP3    H279310   0.907   5.810   2.951  0.5045  0.0866 -0.6632
19299TIP3   OH279311   1.024   6.423  15.624  0.0094  1.2783 -0.2544
19299TIP3    H179312   0.955   6.435  15.558 -1.5164  0.1014  1.0175
19299TIP3    H279313   0.993   6.472  15.700  0.3121  0.3262  0.5038
19300TIP3   OH279314   6.541   4.222  16.543  0.4626 -0.5460  0.2029
19300TIP3    H179315   6.453   4.223  16.579 -0.0134 -0.6603 -0.9325
19300TIP3    H279316   6.598   4.235  16.619 -0.5192 -0.5473  0.9534
19301TIP3   OH279317   4.978   2.397  17.082  0.6455  0.7259  0.1336
19301TIP3    H179318   5.009   2.421  16.995 -0.6984  1.1616 -0.2487
19301TIP3    H279319   4.944   2.478  17.119 -1.5999  0.0047 -0.1634
19302TIP3   OH279320   4.184   3.337   3.241  0.4423 -0.1196 -0.4573
19302TIP3    H179321   4.223   3.289   3.314  0.3417  2.0088  1.0792
19302TIP3    H279322   4.090   3.336   3.259  0.2586 -0.7674 -1.3544
19303TIP3   OH279323   5.703   0.213  12.045  0.3859  0.1797  0.1992
19303TIP3    H179324   5.674   0.301  12.066 -0.1017  0.1667 -0.3970
19303TIP3    H279325   5.632   0.156  12.074  0.0320  0.1046 -0.7580
19304TIP3   OH279326   0.515   4.628   2.736  0.1219  0.1825 -0.4061
19304TIP3    H179327   0.498   4.666   2.650  0.6972  2.1929  0.3319
19304TIP3    H279328   0.585   4.681   2.773  1.4967 -2.0648  0.4224
19305TIP3   OH279329   6.605   5.895  13.984  0.0922  0.2702  0.8592
19305TIP3    H179330   6.511   5.907  13.992 -0.2849 -2.1581  0.7030
19305TIP3    H279331   6.622   5.901  13.890 -0.1011 -0.3738  0.7770
19306TIP3   OH279332   3.853   2.120   4.735 -0.4806 -0.2235 -0.1402
19306TIP3    H179333   3.897   2.070   4.667 -1.0480 -0.8875 -0.0416
19306TIP3    H279334   3.924   2.159   4.786 -0.0574  0.5016 -1.2555
19307TIP3   OH279335   1.730   3.113   2.355 -0.2617 -0.1310  0.2262
19307TIP3    H179336   1.688   3.027   2.365  1.1433 -0.8438  0.2261
19307TIP3    H279337   1.738   3.146   2.445  2.0374 -1.4421  0.5657
19308TIP3   OH279338   2.509   4.489   3.738  0.3535  0.0396 -0.5770
19308TIP3    H179339   2.471   4.508   3.653  1.8574  1.5785 -0.9610
19308TIP3    H279340   2.586   4.545   3.743  0.9804 -0.9039  1.3083
19309TIP3   OH279341   0.009   5.001  16.939 -0.1471 -0.0862  0.1530
19309TIP3    H179342   0.047   4.946  16.870 -0.1658  0.3278 -0.1924
19309TIP3    H279343  -0.032   4.940  16.999 -0.5167 -0.4266 -0.4406
19310TIP3   OH279344   4.232   0.883   0.136  0.5757 -0.2265 -0.4782
19310TIP3    H179345   4.187   0.844   0.062 -1.4456  1.8021 -0.4328
19310TIP3    H279346   4.233   0.977   0.117  1.0352  0.2170  1.5036
19311TIP3   OH279347   5.056   2.841   1.612  0.4529 -0.1520 -0.1259
19311TIP3    H179348   5.054   2.800   1.526 -0.5520  1.0749 -0.7137
19311TIP3    H279349   5.143   2.882   1.616  0.8446 -0.9480 -0.1732
19312TIP3   OH279350   0.743   2.120   0.624  0.1248 -1.1328 -0.6727
19312TIP3    H179351   0.677   2.155   0.684  0.0066 -0.6133 -1.0981
19312TIP3    H279352   0.704   2.039   0.591 -0.1201 -1.0424 -0.6082
19313TIP3   OH279353   6.121   2.202   0.807  0.1729 -0.6685 -0.1273
19313TIP3    H179354   6.044   2.230   0.856  0.0783 -3.0879  1.2507
19313TIP3    H279355   6.195   2.213   0.867  0.6388 -0.0856 -0.7905
19314TIP3   OH279356   3.045   1.516  16.108 -0.4802 -0.3300 -0.9821
19314TIP3    H179357   3.070   1.554  16.193  0.9972 -1.0252 -1.0780
19314TIP3    H279358   3.048   1.590  16.047 -0.5005 -0.0308 -0.6266
19315TIP3   OH279359   1.982   5.451   2.778 -0.2222  0.0282 -0.6090
19315TIP3    H179360   2.061   5.413   2.738 -0.6223 -1.6527  0.0925
19315TIP3    H279361   1.955   5.386   2.843 -2.4787  0.3031 -1.1745
19316TIP3   OH279362   5.228   1.410  12.734 -0.0847  0.0235 -0.0608
19316TIP3    H179363   5.191   1.325  12.711  1.1992 -0.1385 -1.7202
19316TIP3    H279364   5.152   1.468  12.741 -0.8117 -0.7377 -1.2887
19317TIP3   OH279365   5.234   3.143  15.900  0.1560 -0.0506  0.3410
19317TIP3    H179366   5.234   3.124  15.807  0.0158 -2.5147  0.7875
19317TIP3    H279367   5.258   3.060  15.942 -5.0216 -0.7020  2.7990
19318TIP3   OH279368   4.827   1.008   3.167 -0.2964  0.2590 -0.2522
19318TIP3    H179369   4.861   1.070   3.231  1.0412 -0.1339 -0.5389
19318TIP3    H279370   4.905   0.960   3.137 -1.4084 -2.5038  0.9440
19319TIP3   OH279371   2.136   2.776   2.791  0.2372 -0.0883  0.0850
19319TIP3    H179372   2.184   2.694   2.802  0.9948  0.4963  1.4547
19319TIP3    H279373   2.120   2.806   2.880 -2.8224 -0.2843 -0.3014
19320TIP3   OH279374   4.692   5.077   2.358 -0.2025 -0.3097 -0.5805
19320TIP3    H179375   4.625   5.059   2.292 -1.1580  1.7232 -0.2728
19320TIP3    H279376   4.676   5.014   2.428 -0.8125 -0.8438 -1.1969
19321TIP3   OH279377   0.611   1.058  13.309  0.1464  0.1215  0.6503
19321TIP3    H179378   0.571   1.126  13.255 -2.5358 -2.0747 -0.3551
19321TIP3    H279379   0.615   1.096  13.397  0.2114  2.0797 -0.1503
19322TIP3   OH279380   2.176   6.411   0.006  0.2883  0.1259  0.2850
19322TIP3    H179381   2.169   6.336  -0.054 -0.2655 -0.1313  0.6670
19322TIP3    H279382   2.213   6.481  -0.048  0.6493 -0.3730 -0.1212
19323TIP3   OH279383   1.657   2.588   2.679 -0.0494  0.2937  0.0124
19323TIP3    H179384   1.700   2.527   2.738 -0.5745  0.5456  0.6594
19323TIP3    H279385   1.728   2.646   2.650 -0.1028  1.3957  1.9340
19324TIP3   OH279386   2.058   6.021  13.264  0.6281  0.1149 -0.1205
19324TIP3    H179387   1.974   5.990  13.229  0.3817  0.7378 -0.0921
19324TIP3    H279388   2.086   5.952  13.324 -0.6029  0.5553  1.0164
19325TIP3   OH279389   3.899   0.503  15.270  0.2575 -0.6689 -0.1397
19325TIP3    H179390   3.991   0.498  15.297  0.0547  0.7755  0.8729
19325TIP3    H279391   3.904   0.515  15.175  1.1082 -0.6321 -0.1041
19326TIP3   OH279392   3.025   5.103   1.519 -0.3073  1.0952 -0.3630
19326TIP3    H179393   3.112   5.129   1.490 -0.8335  1.5119 -1.6452
19326TIP3    H279394   2.972   5.182   1.507 -1.4011  0.1741 -1.9714
19327TIP3   OH279395   0.558   5.482   3.205 -0.3175 -0.3120  0.7516
19327TIP3    H179396   0.463   5.492   3.208 -0.5264 -2.1675  1.4276
19327TIP3    H279397   0.590   5.571   3.190 -2.1990  0.1628 -1.0753
19328TIP3   OH279398   4.270   2.215  13.028  0.3493 -0.4780 -0.2477
19328TIP3    H179399   4.189   2.213  12.977  0.5209 -1.0479 -0.5079
19328TIP3    H279400   4.260   2.142  13.090  0.0577  0.3234  0.6725
19329TIP3   OH279401   1.733   2.799  14.638  0.3443  0.6327  0.2201
19329TIP3    H179402   1.819   2.831  14.611  0.8068 -0.5848  0.1614
19329TIP3    H279403   1.671   2.848  14.585  1.1233  0.0516 -1.2956
19330TIP3   OH279404   3.697   1.793  12.782 -0.7792  0.5690 -0.3271
19330TIP3    H179405   3.717   1.757  12.869  2.1208  2.9721  0.1649
19330TIP3    H279406   3.693   1.887  12.795 -0.7056  0.9684 -2.7333
19331TIP3   OH279407   3.228   6.596  13.311  0.2025 -0.4170 -0.0979
19331TIP3    H179408   3.304   6.649  13.336  0.6341 -2.0788  2.4987
19331TIP3    H279409   3.250   6.508  13.341 -2.1414 -1.2637 -0.6807
19332TIP3   OH279410   0.868   5.555   4.351 -0.2485 -0.0244  0.0807
19332TIP3    H179411   0.846   5.605   4.430  0.1648  0.6161 -0.2048
19332TIP3    H279412   0.916   5.617   4.296  0.0451 -0.6643 -0.3895
19333TIP3   OH279413   2.115   3.450   3.177 -0.5767 -0.3009  0.1371
19333TIP3    H179414   2.038   3.461   3.120  0.2900  0.4254 -0.9341
19333TIP3    H279415   2.097   3.508   3.251 -0.4796  0.9207 -0.7595
19334TIP3   OH279416   3.838   3.423   1.301 -0.4524 -0.1794 -0.2711
19334TIP3    H179417   3.904   3.364   1.264 -1.5043 -2.0250  0.6644
19334TIP3    H279418   3.765   3.420   1.239  0.1305  1.5910 -1.1270
19335TIP3   OH279419   3.009   1.919  15.015  0.0094 -0.1878  0.1567
19335TIP3    H179420   3.041   1.991  15.070 -0.3250 -0.3527  0.5730
19335TIP3    H279421   2.914   1.922  15.024 -0.1248  0.5003 -1.3403
19336TIP3   OH279422   2.787   4.233  11.985 -0.0582  0.7227  0.4456
19336TIP3    H179423   2.742   4.165  12.035 -0.1737 -0.2257 -0.8988
19336TIP3    H279424   2.761   4.218  11.895  1.4125  1.3710 -0.1199
19337TIP3   OH279425   5.140   4.886   4.535 -0.6535  0.0812 -0.3578
19337TIP3    H179426   5.091   4.889   4.618 -1.0331  0.2345 -0.5819
19337TIP3    H279427   5.179   4.972   4.527 -1.7484  0.5508 -0.9951
19338TIP3   OH279428   1.897   1.877   3.995  0.2269  0.0820 -0.1461
19338TIP3    H179429   1.947   1.830   3.929 -0.5347 -0.2753 -0.4923
19338TIP3    H279430   1.834   1.811   4.028  0.0052  0.5035  0.2853
19339TIP3   OH279431   3.833   0.064   3.244  0.0032 -0.5648  0.0459
19339TIP3    H179432   3.739   0.044   3.239  0.1401 -0.9314 -1.7248
19339TIP3    H279433   3.854   0.102   3.159  1.0817  1.3777  1.1164
19340TIP3   OH279434   2.291   3.306   5.218  0.4931 -0.4350 -0.5146
19340TIP3    H179435   2.355   3.291   5.287 -0.5786 -2.0849  0.1857
19340TIP3    H279436   2.311   3.394   5.185  0.7808  0.5998  2.1667
19341TIP3   OH279437   3.289   0.251  12.455 -0.1153  0.5473  0.0872
19341TIP3    H179438   3.324   0.163  12.445  0.1950  0.5017  1.3611
19341TIP3    H279439   3.324   0.300  12.381  2.9760  0.5822  1.4490
19342TIP3   OH279440   3.783   4.510   3.545 -0.4487 -0.1943 -0.2567
19342TIP3    H179441   3.843   4.495   3.472  0.0145 -1.7018  0.3871
19342TIP3    H279442   3.753   4.600   3.534  0.2220 -0.1403 -1.8437
19343TIP3   OH279443   6.631   0.592   1.592 -0.0388 -0.2337  0.3823
19343TIP3    H179444   6.627   0.528   1.663  1.0871 -0.6447  0.0850
19343TIP3    H279445   6.563   0.564   1.530 -0.4299 -0.3759  0.8728
19344TIP3   OH279446   3.891   4.057  11.505  0.4327 -0.2164  0.2179
19344TIP3    H179447   3.960   3.999  11.538  0.1275 -0.7337 -0.0362
19344TIP3    H279448   3.885   4.035  11.412 -0.8687 -1.0108  0.4719
19345TIP3   OH279449   5.791   2.541   4.632 -0.5272  0.1148  0.0887
19345TIP3    H179450   5.714   2.524   4.579 -0.0242  2.1327 -1.4197
19345TIP3    H279451   5.759   2.594   4.706 -0.3829  3.1657 -1.8493
19346TIP3   OH279452   0.449   3.179   1.425  0.6159  0.3335  0.2992
19346TIP3    H179453   0.527   3.177   1.481  0.6307  0.9323  0.3073
19346TIP3    H279454   0.402   3.257   1.453  0.5311  0.5372 -0.4107
19347TIP3   OH279455   3.941   0.925   0.827 -0.5239  0.0550 -0.0706
19347TIP3    H179456   3.908   0.955   0.742 -1.0684 -0.6539 -0.1238
19347TIP3    H279457   3.897   0.841   0.840 -1.4370  0.7420  1.5109
19348TIP3   OH279458   4.805   6.143  15.120  0.2784  0.0686 -0.0159
19348TIP3    H179459   4.748   6.066  15.114 -0.4888  0.6304 -0.1372
19348TIP3    H279460   4.881   6.121  15.065  0.1207 -0.6416  0.0419
19349TIP3   OH279461   5.944   0.260   0.073  0.3070  0.0143 -0.1963
19349TIP3    H179462   5.887   0.336   0.061  0.6047  0.3468  0.4468
19349TIP3    H279463   5.886   0.184   0.061  0.0072  0.3325 -0.8322
19350TIP3   OH279464   2.041   1.924   3.562 -0.1750  0.6006  0.2370
19350TIP3    H179465   1.965   1.886   3.519 -2.4060  0.3411  3.9943
19350TIP3    H279466   2.030   2.018   3.553 -0.5275  0.5471  0.1202
19351TIP3   OH279467   4.259   0.179   0.303  0.1539  0.3528 -0.3895
19351TIP3    H179468   4.327   0.244   0.285 -0.5989  0.8212 -1.6162
19351TIP3    H279469   4.216   0.211   0.382  0.8044  0.4929 -0.0802
19352TIP3   OH279470   1.636   4.725   3.609 -0.0456 -0.6838  0.0134
19352TIP3    H179471   1.666   4.712   3.520  0.6242 -0.1965  0.1667
19352TIP3    H279472   1.692   4.793   3.645 -1.6500  0.6330  0.1497
19353TIP3   OH279473   5.918   0.854  14.251 -0.5001 -0.0497 -0.2085
19353TIP3    H179474   5.856   0.842  14.180 -2.5916  0.1147  1.4900
19353TIP3    H279475   5.895   0.938  14.291  0.2901 -0.3425  0.9413
19354TIP3   OH279476   2.343   0.639  15.230 -0.5073 -0.3557  0.0839
19354TIP3    H179477   2.325   0.732  15.244 -0.9738 -0.3455 -0.5468
19354TIP3    H279478   2.415   0.619  15.290  1.3269  0.9968 -1.5350
19355TIP3   OH279479   2.671   5.129   3.221  0.1322  0.4764  0.6212
19355TIP3    H179480   2.708   5.083   3.296  1.1874 -0.9245 -0.6889
19355TIP3    H279481   2.745   5.142   3.161 -0.6474  1.6730 -0.1380
19356TIP3   OH279482   2.836   5.369  12.817 -0.1069  0.1619 -0.0669
19356TIP3    H179483   2.908   5.307  12.802  1.9807  2.0954  1.3421
19356TIP3    H279484   2.798   5.343  12.901 -0.3555 -0.2092 -0.2921
19357TIP3   OH279485   6.128   4.180  13.404  0.3492  0.3485 -0.2647
19357TIP3    H179486   6.215   4.170  13.443 -0.5010 -0.7935  1.4741
19357TIP3    H279487   6.085   4.246  13.460  0.2954  1.4147 -1.5231
19358TIP3   OH279488   2.886   2.207   3.997 -0.0125  0.3675  0.1136
19358TIP3    H179489   2.925   2.230   4.081 -0.7489  0.3849  0.4612
19358TIP3    H279490   2.816   2.271   3.984  0.9887  1.2639 -1.2071
19359TIP3   OH279491   3.239   6.482  14.247 -0.0715 -0.1762  0.2886
19359TIP3    H179492   3.205   6.472  14.336 -0.0256 -1.1992  0.2015
19359TIP3    H279493   3.198   6.562  14.214  3.0449  2.7340  2.6668
19360TIP3   OH279494   1.418   6.022  16.604 -0.3636  0.1147 -0.0784
19360TIP3    H179495   1.492   6.076  16.575  2.0365 -1.5991  2.3269
19360TIP3    H279496   1.408   5.956  16.535  1.0819 -0.2285  0.0092
19361TIP3   OH279497   3.027   2.169  16.822 -0.1500 -0.2591  0.3745
19361TIP3    H179498   3.101   2.111  16.842  0.4367  0.3656  0.0592
19361TIP3    H279499   3.067   2.255  16.808 -0.7791 -0.1698 -1.1004
19362TIP3   OH279500   6.543   4.678  14.655  0.9300 -0.6951  0.5070
19362TIP3    H179501   6.605   4.624  14.703  1.6253  1.2824  1.9370
19362TIP3    H279502   6.594   4.717  14.584  0.6803 -1.0694  0.1148
19363TIP3   OH279503   5.446   2.013   5.659  0.2029 -0.6266 -0.4943
19363TIP3    H179504   5.420   1.987   5.748  0.4023 -1.0507 -0.5574
19363TIP3    H279505   5.420   1.938   5.604  3.7668 -2.2481 -0.2437
19364TIP3   OH279506   2.539   6.357   5.219  0.2050 -0.4505 -0.2101
19364TIP3    H179507   2.554   6.428   5.156  0.6163 -0.0690  0.3035
19364TIP3    H279508   2.624   6.345   5.262 -0.1564 -0.4716  0.5106
19365TIP3   OH279509   5.023   3.856   1.572 -0.0900  0.2943 -0.1238
19365TIP3    H179510   5.026   3.934   1.628  0.8163 -1.2842  2.1654
19365TIP3    H279511   4.975   3.792   1.624  1.6605 -1.5623 -0.6893
19366TIP3   OH279512   2.330   3.860   5.655 -0.4723  0.2959 -0.3797
19366TIP3    H179513   2.250   3.909   5.638 -1.1745 -0.8513 -0.4971
19366TIP3    H279514   2.306   3.799   5.726  0.6150  0.6974  0.3591
19367TIP3   OH279515   5.446   0.203  16.089 -0.0312  0.2678 -0.1325
19367TIP3    H179516   5.465   0.297  16.090  0.2135  0.2163  0.0653
19367TIP3    H279517   5.405   0.185  16.174  0.7297  0.0317  0.1891
19368TIP3   OH279518   1.324   6.167  15.404  0.4965  0.2299 -0.0520
19368TIP3    H179519   1.403   6.136  15.448 -1.0225 -1.2437  1.8688
19368TIP3    H279520   1.253   6.116  15.444 -1.6674  2.8057 -0.2932
19369TIP3   OH279521   4.349   3.166   0.017 -0.0805 -0.0628  0.4092
19369TIP3    H179522   4.350   3.210  -0.068  0.8938 -0.2041  0.3334
19369TIP3    H279523   4.265   3.121   0.020 -0.3102  0.3062 -0.2948
19370TIP3   OH279524   0.976   5.656   1.923  0.2887 -0.1540 -0.7056
19370TIP3    H179525   1.006   5.566   1.933  2.6080  0.5738 -0.4487
19370TIP3    H279526   1.034   5.693   1.856 -2.5887  0.3710 -3.1125
19371TIP3   OH279527   1.217   3.020   2.577  0.2400  0.2157 -0.2721
19371TIP3    H179528   1.172   3.033   2.494 -0.0266 -1.2888 -0.3958
19371TIP3    H279529   1.214   2.925   2.591  3.8706 -0.0709 -0.5749
19372TIP3   OH279530   2.391   5.137  12.406  0.3711 -0.5341 -0.5590
19372TIP3    H179531   2.420   5.131  12.497  0.6478  0.8163 -0.5422
19372TIP3    H279532   2.457   5.191  12.363 -1.5429  1.8225 -0.7339
19373TIP3   OH279533   3.343   3.690  11.310  0.3747  0.4032 -0.2674
19373TIP3    H179534   3.335   3.728  11.397  1.8320 -1.4546  0.7376
19373TIP3    H279535   3.423   3.638  11.313 -1.3359 -2.5270 -1.6175
19374TIP3   OH279536   5.090   5.909  12.988 -0.2850 -0.4719 -0.0257
19374TIP3    H179537   5.135   5.991  13.012  1.7848 -1.5151 -0.1549
19374TIP3    H279538   5.079   5.864  13.072  0.5551 -0.9957 -0.1844
19375TIP3   OH279539   2.441   0.694  14.885  0.9449  0.2666  0.2245
19375TIP3    H179540   2.440   0.600  14.866  1.2738  0.0818  1.1108
19375TIP3    H279541   2.351   0.714  14.910  1.0899 -0.0083  0.9708
19376TIP3   OH279542   0.044   4.889   3.206  0.3028 -0.5565  0.2595
19376TIP3    H179543   0.028   4.819   3.269 -0.7651 -0.4201  0.1565
19376TIP3    H279544   0.002   4.859   3.125 -1.6333  0.8827  0.6620
19377TIP3   OH279545   2.738   0.785  12.903 -0.3697 -0.4562  0.3695
19377TIP3    H179546   2.674   0.767  12.972  0.0533 -0.2827  0.8148
19377TIP3    H279547   2.820   0.751  12.938  0.0836  0.6761  0.4612
19378TIP3   OH279548   6.694   4.361  15.800  0.1934 -0.1028 -0.2064
19378TIP3    H179549   6.734   4.274  15.806  0.0021 -0.2162 -0.5356
19378TIP3    H279550   6.687   4.391  15.890 -3.5327 -2.1399  0.3421
19379TIP3   OH279551   1.803   6.346   4.022  0.1475  0.3793 -0.3610
19379TIP3    H179552   1.810   6.428   3.974 -1.0623 -0.1511 -1.5240
19379TIP3    H279553   1.729   6.359   4.081 -1.0910 -0.3650 -1.6843
19380TIP3   OH279554   6.455   2.444   2.973 -0.5217  0.3299 -0.8422
19380TIP3    H179555   6.422   2.372   3.027  0.0637  0.3614 -0.4374
19380TIP3    H279556   6.492   2.401   2.896 -2.7948  0.3544 -2.0561
19381TIP3   OH279557   6.385   0.791  12.776 -0.2343  0.2546 -0.3395
19381TIP3    H179558   6.328   0.795  12.700 -0.3909  0.5967 -0.2013
19381TIP3    H279559   6.402   0.697  12.788 -0.2373  0.1988 -0.7733
19382TIP3   OH279560   1.673   1.175   4.696  0.3724  0.0957 -0.1189
19382TIP3    H179561   1.579   1.186   4.713  0.3415  0.5597 -0.5616
19382TIP3    H279562   1.712   1.257   4.727  0.6367 -0.1226  0.1180
19383TIP3   OH279563   3.740   4.350  16.203 -0.0934 -0.2826  0.1654
19383TIP3    H179564   3.801   4.385  16.138 -1.3275  1.3510 -0.2023
19383TIP3    H279565   3.711   4.266  16.166  0.6685 -0.2846 -0.4513
19384TIP3   OH279566   0.631   4.531   5.726 -0.7702 -0.0872 -0.3683
19384TIP3    H179567   0.696   4.598   5.704 -2.5414  1.9857  0.2265
19384TIP3    H279568   0.624   4.535   5.821 -0.5826 -1.5055 -0.2754
19385TIP3   OH279569   1.232   3.282   2.626  0.1846  0.1621 -0.1165
19385TIP3    H179570   1.287   3.311   2.553 -1.2506  0.3888 -1.1671
19385TIP3    H279571   1.225   3.187   2.614  0.8410  0.0446  0.3895
19386TIP3   OH279572   2.734   3.978   1.916  0.5333  0.1554 -0.2053
19386TIP3    H179573   2.673   4.047   1.893  0.0713  0.5483  1.9715
19386TIP3    H279574   2.805   4.022   1.962  1.0809 -0.6189 -0.2811
19387TIP3   OH279575   5.872   0.687  14.533  0.2428  0.0480  0.1665
19387TIP3    H179576   5.820   0.735  14.597 -1.2263  0.2688 -1.1559
19387TIP3    H279577   5.830   0.703  14.449  2.4968  0.3194 -1.0118
19388TIP3   OH279578   6.725   5.446   1.144  0.2373  0.5334 -0.0163
19388TIP3    H179579   6.663   5.487   1.084  0.2780  0.3035 -0.2175
19388TIP3    H279580   6.759   5.371   1.096  0.5434  0.5572  0.1580
19389TIP3   OH279581   6.225   4.372  15.546  0.6501  0.3464 -0.6044
19389TIP3    H179582   6.300   4.346  15.599  1.7408  0.9936 -1.7836
19389TIP3    H279583   6.260   4.386  15.459 -0.7529  1.1554 -1.0831
19390TIP3   OH279584   3.019   3.598   4.142  0.7433  0.2389 -0.0818
19390TIP3    H179585   3.041   3.673   4.087  0.7383  1.8567  1.9665
19390TIP3    H279586   3.098   3.544   4.143  1.4356  1.2334 -0.0607
19391TIP3   OH279587   4.869   5.246  13.126 -0.7589  0.3995 -0.0198
19391TIP3    H179588   4.902   5.335  13.135  1.5327 -0.5184  1.7452
19391TIP3    H279589   4.873   5.228  13.032  3.9428  0.4908 -0.0788
19392TIP3   OH279590   2.624   3.492   1.299  0.6762 -0.3516  0.0783
19392TIP3    H179591   2.629   3.430   1.373  1.6608 -1.2900 -0.7387
19392TIP3    H279592   2.574   3.566   1.333 -0.6814 -1.6544  1.0580
19393TIP3   OH279593   2.326   3.132  10.399  0.0254 -0.4656 -0.0967
19393TIP3    H179594   2.285   3.191  10.336  2.1524 -0.1295 -1.2573
19393TIP3    H279595   2.338   3.050  10.351  1.1204 -0.3985  0.0397
19394TIP3   OH279596   3.787   3.591  12.998 -0.2308  0.1754  0.4096
19394TIP3    H179597   3.828   3.622  12.917  1.4221 -1.3804  0.5935
19394TIP3    H279598   3.777   3.669  13.051 -1.0004  1.1751 -1.1241
19395TIP3   OH279599   5.642   2.335   1.402  0.5460  0.0785  0.9043
19395TIP3    H179600   5.644   2.381   1.318  0.4001  0.6124  1.1940
19395TIP3    H279601   5.549   2.324   1.422  0.5735 -0.6541  0.6714
19396TIP3   OH279602   4.553   4.055  17.136 -0.3987  0.3835 -0.2667
19396TIP3    H179603   4.623   4.081  17.196  0.6566  0.4035 -1.4607
19396TIP3    H279604   4.555   4.122  17.067 -1.1546  0.0050 -0.6652
19397TIP3   OH279605   2.194   4.917  11.007  0.0018  0.1364 -0.6476
19397TIP3    H179606   2.284   4.901  10.977  0.2275 -0.0981  0.1301
19397TIP3    H279607   2.204   4.974  11.083 -0.5556  0.6143 -0.9232
19398TIP3   OH279608   0.333   5.535   4.201  0.0344 -0.0585  0.6155
19398TIP3    H179609   0.359   5.482   4.276  1.0577 -0.4386  0.0286
19398TIP3    H279610   0.265   5.593   4.234  1.4998  0.8329  2.2145
19399TIP3   OH279611   1.867   6.550  12.829  0.1045 -0.3413 -0.4946
19399TIP3    H179612   1.781   6.550  12.786  0.4870  0.8592 -1.3353
19399TIP3    H279613   1.925   6.592  12.765  0.9116  0.6005  0.8014
19400TIP3   OH279614   5.225   6.527  16.726  0.4205  1.0540 -0.6906
19400TIP3    H179615   5.279   6.605  16.733 -2.5727  3.1796  1.0759
19400TIP3    H279616   5.160   6.549  16.659  0.0205 -0.2913 -0.7750
19401TIP3   OH279617   0.929   4.462   4.692 -0.1354  0.4460 -0.0401
19401TIP3    H179618   0.874   4.509   4.755 -0.9279 -0.7598  0.1881
19401TIP3    H279619   0.912   4.370   4.709  0.2117  0.0845 -1.5250
19402TIP3   OH279620   3.946   5.747  13.561 -0.0240 -0.6938 -0.2177
19402TIP3    H179621   4.029   5.794  13.554  0.8136 -2.2854 -2.1490
19402TIP3    H279622   3.887   5.807  13.608  1.8946  0.8895  0.2758
19403TIP3   OH279623   2.030   5.163   4.922  0.1326  1.0489  0.2457
19403TIP3    H179624   1.944   5.122   4.930  0.7567 -0.7139 -1.4359
19403TIP3    H279625   2.046   5.169   4.828  1.8349  1.3784  0.5150
19404TIP3   OH279626   2.677   0.897   1.046  0.1417 -0.6028  0.1969
19404TIP3    H179627   2.616   0.831   1.015 -1.5534  1.7061 -1.7559
19404TIP3    H279628   2.640   0.926   1.130 -0.2720 -0.6658  0.0357
19405TIP3   OH279629   2.858   2.065   5.758  0.5274 -0.0944  0.4078
19405TIP3    H179630   2.889   1.986   5.714  2.0593 -0.2963  1.7164
19405TIP3    H279631   2.918   2.075   5.833 -0.3942  1.6178  0.9713
19406TIP3   OH279632   1.855   3.342  13.823 -0.1207  0.2991  0.7001
19406TIP3    H179633   1.949   3.356  13.819 -0.2118  1.3477  1.6012
19406TIP3    H279634   1.818   3.430  13.839 -1.3718  0.1786 -1.1930
19407TIP3   OH279635   0.714   6.063  15.218  0.3599  0.6015  0.5484
19407TIP3    H179636   0.709   6.119  15.296  1.5011  0.9350  0.4013
19407TIP3    H279637   0.788   6.005  15.235  0.1324  0.1607  0.0438
19408TIP3   OH279638   6.248   4.398  13.958  0.0658  0.4632  0.0967
19408TIP3    H179639   6.334   4.439  13.972  0.7210 -0.3312 -1.3755
19408TIP3    H279640   6.266   4.304  13.964 -0.7320  0.2970 -0.0863
19409TIP3   OH279641   0.727   5.652   2.048 -0.1041  0.1541 -0.2949
19409TIP3    H179642   0.758   5.692   2.129 -1.1941 -1.0612  0.7925
19409TIP3    H279643   0.806   5.634   1.998  0.6999 -0.0859  1.0113
19410TIP3   OH279644   6.342   0.518   5.453  0.1901  0.1011 -0.4194
19410TIP3    H179645   6.324   0.587   5.516 -2.6444 -1.6781  0.9429
19410TIP3    H279646   6.309   0.551   5.370  1.2474  1.3134 -0.3891
19411TIP3   OH279647   0.456   1.452  12.874  0.1307 -0.1920  0.1108
19411TIP3    H179648   0.404   1.425  12.950 -0.0669 -1.0936 -0.3314
19411TIP3    H279649   0.395   1.496  12.816 -0.3861 -1.9890 -0.7963
19412TIP3   OH279650   6.563   5.459   1.777 -0.2940 -0.5373  0.3094
19412TIP3    H179651   6.630   5.424   1.836 -1.5492 -0.3087  1.9394
19412TIP3    H279652   6.580   5.553   1.776  0.3915 -0.6529 -0.6030
19413TIP3   OH279653   3.148   3.122   1.087  0.5090 -0.2394 -0.9784
19413TIP3    H179654   3.157   3.077   1.171 -1.6246  0.2698 -0.4040
19413TIP3    H279655   3.189   3.064   1.024 -1.1987 -2.5252 -0.1104
19414TIP3   OH279656   5.104   6.202   3.498  0.7582 -0.0263 -0.3281
19414TIP3    H179657   5.084   6.194   3.405  0.2701  0.2981 -0.2561
19414TIP3    H279658   5.025   6.241   3.537  0.1353 -2.0693  0.5839
19415TIP3   OH279659   2.888   5.913   3.788  0.1681  0.1453 -0.1214
19415TIP3    H179660   2.983   5.918   3.779  0.1465  0.7423 -0.0135
19415TIP3    H279661   2.862   5.999   3.821 -0.5350  0.4089 -1.3028
19416TIP3   OH279662   6.038   3.536  16.028  0.4388 -0.0013 -0.0979
19416TIP3    H179663   5.961   3.506  16.077 -0.5342  2.5716  0.0824
19416TIP3    H279664   6.059   3.621  16.065  0.7622  1.2709 -2.9196
19417TIP3   OH279665   0.734   3.346   6.178 -0.0536 -0.3407  0.0834
19417TIP3    H179666   0.689   3.427   6.203 -2.0529 -1.6768  1.1005
19417TIP3    H279667   0.689   3.278   6.228  0.0028 -2.3895 -2.4529
19418TIP3   OH279668   3.047   3.671  10.487 -0.2491  0.1034  0.2903
19418TIP3    H179669   3.112   3.741  10.484 -0.8433  0.7455  1.5101
19418TIP3    H279670   2.970   3.708  10.444  0.3427 -0.8603 -1.6740
19419TIP3   OH279671   1.881   0.961  16.443 -0.6919  0.3061  0.3132
19419TIP3    H179672   1.961   1.010  16.459 -1.5709  1.7268  0.5145
19419TIP3    H279673   1.830   0.970  16.524 -1.1570 -0.3930  0.1137
19420TIP3   OH279674   4.464   6.173  13.649 -0.0389 -0.1865  0.2147
19420TIP3    H179675   4.487   6.173  13.556 -0.2560  1.4780  0.1256
19420TIP3    H279676   4.493   6.259  13.681  0.5729 -0.9517  1.8367
19421TIP3   OH279677   1.056   4.002   5.414 -0.6764  0.2617  0.4473
19421TIP3    H179678   0.978   4.057   5.405 -1.9422 -1.5145  0.1263
19421TIP3    H279679   1.029   3.931   5.472  0.3802 -0.9562 -0.4921
19422TIP3   OH279680   5.516   2.522   3.046 -0.0044 -0.1552 -0.6253
19422TIP3    H179681   5.600   2.498   3.084  0.0357 -0.6477 -1.0108
19422TIP3    H279682   5.531   2.522   2.951  0.0761  1.7420 -0.6526
19423TIP3   OH279683   0.491   4.364  13.564 -0.6794 -0.3631 -0.8734
19423TIP3    H179684   0.494   4.380  13.470  0.4923 -0.9368 -0.9513
19423TIP3    H279685   0.527   4.276  13.575 -0.2266 -0.0654  0.1618
19424TIP3   OH279686   5.760   2.033   0.742  0.0043 -0.0172 -0.2835
19424TIP3    H179687   5.676   2.000   0.710 -0.0815 -0.9609  0.8334
19424TIP3    H279688   5.819   1.958   0.738  0.9732  0.7723 -1.5480
19425TIP3   OH279689   5.780   2.896  11.215  0.0106  0.0027 -0.1542
19425TIP3    H179690   5.819   2.867  11.132 -0.6980 -0.0986 -0.4625
19425TIP3    H279691   5.689   2.864  11.211 -0.3810  1.0481  0.1266
19426TIP3   OH279692   0.138   5.168  15.701  0.2349 -0.3302  0.4878
19426TIP3    H179693   0.173   5.080  15.710  1.8678  0.3262  1.0494
19426TIP3    H279694   0.195   5.211  15.637 -2.1170 -0.3988 -1.8281
19427TIP3   OH279695   4.572   2.963   1.058  0.2523 -0.1623  0.4903
19427TIP3    H179696   4.558   2.905   0.983 -0.0135 -0.5262  0.8178
19427TIP3    H279697   4.564   2.906   1.134 -2.5046  0.6962  0.9557
19428TIP3   OH279698   3.749   0.089   2.447  0.7036  0.4590 -0.1772
19428TIP3    H179699   3.757   0.023   2.516  0.5896 -0.4118 -0.9756
19428TIP3    H279700   3.816   0.065   2.383 -0.5390  0.0111 -1.3621
19429TIP3   OH279701   0.679   1.327   4.307 -0.2849  0.4034 -0.2615
19429TIP3    H179702   0.695   1.353   4.216 -1.1080  2.2191  0.0710
19429TIP3    H279703   0.597   1.276   4.303  0.4348 -0.7588 -0.6972
19430TIP3   OH279704   5.537   5.305  12.678 -0.2935 -0.4097  0.0060
19430TIP3    H179705   5.597   5.272  12.611  0.1474 -0.9532  0.6527
19430TIP3    H279706   5.533   5.399  12.663 -0.4468 -0.5597 -0.9734
19431TIP3   OH279707   4.424   4.900  16.580 -0.7548 -0.0955  0.5383
19431TIP3    H179708   4.518   4.888  16.564 -0.8955 -1.0621  0.3876
19431TIP3    H279709   4.417   4.989  16.613  0.1850  0.0876  0.2778
19432TIP3   OH279710   1.612   4.979   5.532 -0.4247 -0.2387  0.5116
19432TIP3    H179711   1.704   4.991   5.555 -0.2408  0.3744 -0.5282
19432TIP3    H279712   1.587   4.899   5.578  0.9935 -1.1552 -0.2341
19433TIP3   OH279713   2.774   3.621   6.186  0.1351  0.0598  0.2629
19433TIP3    H179714   2.687   3.598   6.219  0.3559 -0.0581  0.7695
19433TIP3    H279715   2.827   3.634   6.265  0.5907  0.0791 -0.0440
19434TIP3   OH279716   0.407   5.818  15.983  0.4143 -0.1874 -0.8345
19434TIP3    H179717   0.417   5.817  16.078  1.6831  0.1776 -0.9358
19434TIP3    H279718   0.333   5.760  15.965  1.2552 -1.6719  0.2604
19435TIP3   OH279719   5.947   6.226  11.025  0.3493 -0.3116  0.5358
19435TIP3    H179720   5.919   6.143  10.987  0.8241 -0.0438 -0.4448
19435TIP3    H279721   5.958   6.284  10.950  0.1083  0.6184  1.2009
19436TIP3   OH279722   3.413   2.868   5.316  0.3730  0.5267 -0.2218
19436TIP3    H179723   3.446   2.917   5.241  0.3963 -0.1912 -0.6872
19436TIP3    H279724   3.490   2.820   5.349  0.3316  0.7305  0.1765
19437TIP3   OH279725   4.008   2.488   2.946  0.2496 -0.0085 -0.1082
19437TIP3    H179726   4.048   2.523   3.025 -1.4352 -0.2379  0.8994
19437TIP3    H279727   4.065   2.517   2.875  2.5693 -0.8993  1.2557
19438TIP3   OH279728   5.700   5.119   2.693  0.3059  0.0231  0.6468
19438TIP3    H179729   5.760   5.065   2.743 -0.3636 -0.4988  0.9041
19438TIP3    H279730   5.624   5.063   2.679 -0.0884  0.6465  0.2700
19439TIP3   OH279731   2.044   4.091   6.225  0.4228  0.0158 -0.7215
19439TIP3    H179732   1.949   4.098   6.230  0.3226 -1.4036  0.0557
19439TIP3    H279733   2.066   4.024   6.291  1.7674 -1.0094 -2.1458
19440TIP3   OH279734   2.173   5.137   5.680  0.1966 -0.1634 -0.1726
19440TIP3    H179735   2.078   5.134   5.688  0.0515 -0.9371 -1.7021
19440TIP3    H279736   2.205   5.092   5.757 -0.5905  1.4713  1.1767
19441TIP3   OH279737   2.139   3.344   2.704 -0.2759  0.1123  0.1627
19441TIP3    H179738   2.177   3.294   2.777  0.5258  0.4561 -0.0087
19441TIP3    H279739   2.102   3.422   2.746 -1.0641 -0.3569  0.3652
19442TIP3   OH279740   1.692   4.271  11.831 -0.2940 -0.2179 -0.0843
19442TIP3    H179741   1.745   4.301  11.757 -0.9034 -1.2825 -0.9991
19442TIP3    H279742   1.625   4.339  11.841  1.0360  1.0026  0.9121
19443TIP3   OH279743   4.640   1.431   3.681  0.0901  0.2402 -0.5184
19443TIP3    H179744   4.648   1.441   3.586 -2.4293 -2.2210 -1.1455
19443TIP3    H279745   4.571   1.493   3.706 -1.1678 -0.9680 -0.8479
19444TIP3   OH279746   4.617   5.092  16.022  0.0616  0.0309  0.2523
19444TIP3    H179747   4.559   5.034  16.073  1.0735 -1.4988 -0.2850
19444TIP3    H279748   4.557   5.143  15.968 -1.0006  1.0936  2.2861
19445TIP3   OH279749   3.399   0.830  15.901 -0.1733 -0.2425 -0.5790
19445TIP3    H179750   3.351   0.746  15.901 -0.8778  0.1323 -1.9168
19445TIP3    H279751   3.347   0.886  15.959 -0.0019 -0.5494 -0.1147
19446TIP3   OH279752   5.167   3.177   0.160  0.0158  0.2466 -0.2780
19446TIP3    H179753   5.259   3.201   0.149 -0.2073  1.3468  0.1255
19446TIP3    H279754   5.138   3.155   0.071  0.4622  0.6598 -0.5322
19447TIP3   OH279755   1.077   6.413  13.422  0.1891 -0.1603 -0.4031
19447TIP3    H179756   1.081   6.431  13.328  2.4315  0.8213 -0.1835
19447TIP3    H279757   1.050   6.497  13.462 -0.4698 -0.4930 -0.1216
19448TIP3   OH279758   6.152   1.260   2.600 -0.2992 -0.0108  0.7605
19448TIP3    H179759   6.178   1.222   2.684 -2.2161 -0.5651  1.1472
19448TIP3    H279760   6.077   1.208   2.572 -1.3898  1.8488  0.0307
19449TIP3   OH279761   3.632   1.055   1.462 -0.2288  0.4958  0.2548
19449TIP3    H179762   3.710   1.021   1.506  0.1744  0.2499 -0.6311
19449TIP3    H279763   3.619   1.142   1.500  1.1013  0.9845 -0.3195
19450TIP3   OH279764   0.453   5.522  14.685 -0.4821  0.0375 -0.2703
19450TIP3    H179765   0.524   5.520  14.749 -0.2377  0.9339 -0.4932
19450TIP3    H279766   0.492   5.490  14.604 -0.9536 -1.6985  0.1535
19451TIP3   OH279767   5.778   1.032   5.576  0.0649  0.0009  0.1399
19451TIP3    H179768   5.767   1.001   5.487  1.6339 -1.6927  0.4858
19451TIP3    H279769   5.871   1.056   5.582  0.0802 -0.3279  1.4383
19452TIP3   OH279770   4.631   2.180   4.176 -0.4099  0.1940  0.3506
19452TIP3    H179771   4.699   2.149   4.236 -0.4193  0.8316  0.6963
19452TIP3    H279772   4.614   2.270   4.204 -3.2158 -0.7105  1.9194
19453TIP3   OH279773   5.347   0.937  14.415 -0.4070 -0.2868  0.4056
19453TIP3    H179774   5.346   0.927  14.510 -2.1642  2.3800  0.7748
19453TIP3    H279775   5.437   0.960  14.394 -0.4371  1.2834  1.7734
19454TIP3   OH279776   4.301   5.507   3.719  0.3899  0.0064 -0.0828
19454TIP3    H179777   4.265   5.453   3.789  0.5759  0.0922  0.0790
19454TIP3    H279778   4.237   5.500   3.648 -1.1613  1.9720  1.0032
19455TIP3   OH279779   2.595   1.033   2.793 -0.3202  0.3370 -0.4106
19455TIP3    H179780   2.673   1.089   2.801 -1.2923  1.7340 -0.3877
19455TIP3    H279781   2.529   1.076   2.848 -0.9711 -1.0959 -0.0381
19456TIP3   OH279782   4.404   1.621   4.097  0.1394 -0.1465 -0.2725
19456TIP3    H179783   4.393   1.715   4.087  0.8236 -0.0283  0.0457
19456TIP3    H279784   4.354   1.598   4.175  1.4744  0.2643  0.7352
19457TIP3   OH279785   2.666   1.525  11.450  0.3691  0.0359 -0.4021
19457TIP3    H179786   2.607   1.492  11.382 -1.8825 -0.3489  1.6121
19457TIP3    H279787   2.695   1.447  11.497  1.3973  0.3416 -0.5060
19458TIP3   OH279788   4.307   3.328  12.991 -0.4541 -0.5546 -0.2024
19458TIP3    H179789   4.271   3.348  12.905 -2.0398  1.2204  0.8108
19458TIP3    H279790   4.370   3.398  13.008  1.0832 -1.7949 -0.5463
19459TIP3   OH279791   0.501   0.478  16.950  0.2828 -0.1412  0.3467
19459TIP3    H179792   0.491   0.527  16.868 -0.0755 -0.4357  0.2079
19459TIP3    H279793   0.444   0.402  16.939 -0.7935  0.4742  1.3810
19460TIP3   OH279794   4.833   6.780  12.174 -0.6838 -0.0953 -0.4639
19460TIP3    H179795   4.896   6.836  12.128  1.0952 -1.4435  0.2206
19460TIP3    H279796   4.845   6.694  12.134  0.4972 -1.1847  2.0039
19461TIP3   OH279797   1.449   1.455   0.663 -0.6514 -0.2380  0.6922
19461TIP3    H179798   1.474   1.418   0.578 -1.8258  1.0641 -0.2726
19461TIP3    H279799   1.445   1.550   0.648 -0.3485  0.0764  2.3590
19462TIP3   OH279800   6.658   2.258   6.037  0.5504  0.1634  0.0806
19462TIP3    H179801   6.573   2.282   6.075 -0.1875 -0.4001 -1.1469
19462TIP3    H279802   6.722   2.304   6.091 -0.5894  1.4106  0.4243
19463TIP3   OH279803   1.592   0.866  14.521  0.2436 -0.5856  0.3885
19463TIP3    H179804   1.598   0.959  14.500  0.9886  0.2034  3.5860
19463TIP3    H279805   1.636   0.822  14.448 -1.2706  1.3844 -1.8783
19464TIP3   OH279806   5.381   3.660  10.933 -0.2725 -0.1362 -0.3662
19464TIP3    H179807   5.390   3.581  10.986 -1.6103  0.8117  1.3771
19464TIP3    H279808   5.471   3.681  10.907 -0.0012 -2.9707 -2.1459
19465TIP3   OH279809   6.733   2.819  13.751 -0.0255  0.0279  0.4370
19465TIP3    H179810   6.793   2.830  13.825  0.7061  0.3497 -0.1872
19465TIP3    H279811   6.786   2.839  13.674 -1.2131  1.4109 -0.0777
19466TIP3   OH279812   4.417   4.790   5.592  0.3862 -0.4362  0.3525
19466TIP3    H179813   4.440   4.698   5.581  0.7447 -0.1811 -1.2921
19466TIP3    H279814   4.397   4.821   5.503 -1.0381  0.7404  1.0339
19467TIP3   OH279815   1.874   3.706   5.900  0.2240  0.3477  0.2493
19467TIP3    H179816   1.905   3.685   5.988 -1.5001 -1.7803  0.4255
19467TIP3    H279817   1.945   3.677   5.842  0.2277 -0.9059  0.8346
19468TIP3   OH279818   3.427   3.781  16.537  0.0273 -0.1696 -0.1640
19468TIP3    H179819   3.418   3.687  16.521  0.6215 -0.2943  0.2034
19468TIP3    H279820   3.351   3.804  16.590 -0.1017 -0.4478 -0.2265
19469TIP3   OH279821   5.953   3.696   5.401  0.1152  0.4755 -0.1444
19469TIP3    H179822   6.027   3.640   5.424 -0.3014  0.4757  1.2997
19469TIP3    H279823   5.980   3.739   5.321  1.7703  0.6127  0.4399
19470TIP3   OH279824   1.216   6.184   2.952  0.0521 -0.1317  0.4471
19470TIP3    H179825   1.248   6.239   2.880  0.7357  0.2690  1.0425
19470TIP3    H279826   1.121   6.187   2.944  0.1092 -1.4748 -1.4706
19471TIP3   OH279827   1.070   1.913  16.891 -0.0876 -0.7066 -0.1172
19471TIP3    H179828   1.118   1.994  16.872  0.1237 -0.0209  2.8562
19471TIP3    H279829   0.979   1.934  16.871  0.2757 -0.6705 -1.9012
19472TIP3   OH279830   4.839   1.618  13.327  0.0425  0.1487  0.1316
19472TIP3    H179831   4.814   1.527  13.311  2.1882 -0.2895 -1.1880
19472TIP3    H279832   4.833   1.629  13.422 -0.0734 -1.4186  0.3227
19473TIP3   OH279833   6.133   0.861  11.387  0.2026  0.5322 -0.3279
19473TIP3    H179834   6.130   0.814  11.470 -1.8708 -1.1919 -1.2819
19473TIP3    H279835   6.116   0.795  11.320 -0.4343  2.2192 -1.9451
19474TIP3   OH279836   1.667   0.270  15.505  0.1011 -0.6208 -0.4809
19474TIP3    H179837   1.736   0.210  15.478  0.6484  0.0358 -0.5804
19474TIP3    H279838   1.705   0.357  15.493  0.1401 -0.2737  1.7713
19475TIP3   OH279839   0.030   1.213  15.365 -0.6185  0.4672  0.0400
19475TIP3    H179840  -0.055   1.214  15.409  0.1594 -1.6852  1.8131
19475TIP3    H279841   0.021   1.145  15.298 -0.9616  1.8697 -1.3920
19476TIP3   OH279842   0.720   4.595  13.269 -0.0261  0.6427  0.4335
19476TIP3    H179843   0.749   4.673  13.222 -2.1593  1.8208  0.9568
19476TIP3    H279844   0.699   4.532  13.199  1.0756  0.7390 -0.0095
19477TIP3   OH279845   5.708   4.139  13.833  0.1566  0.8602  0.0290
19477TIP3    H179846   5.734   4.222  13.873 -0.1485  0.1691  1.7572
19477TIP3    H279847   5.781   4.115  13.778  0.5476  1.9346  0.0503
19478TIP3   OH279848   5.786   5.308  16.041 -0.2143 -0.1015  0.1208
19478TIP3    H179849   5.868   5.344  16.076  0.0366 -0.6772  0.1360
19478TIP3    H279850   5.813   5.259  15.963 -0.6237  0.2133 -0.2222
19479TIP3   OH279851   5.125   1.319  15.133 -0.6645  0.2328 -0.7193
19479TIP3    H179852   5.109   1.391  15.072 -2.0593  1.5555  1.0867
19479TIP3    H279853   5.067   1.337  15.207  1.3919 -0.9288  1.3124
19480TIP3   OH279854   3.900   2.793   3.751 -0.1494 -0.2529 -0.7019
19480TIP3    H179855   3.842   2.786   3.675 -0.1345  1.1361 -0.8676
19480TIP3    H279856   3.846   2.832   3.819  0.4208  0.5791 -0.7020
19481TIP3   OH279857   3.640   5.996  15.109  0.1570  0.1168  0.5849
19481TIP3    H179858   3.592   5.946  15.175  0.1698  0.1188  0.5956
19481TIP3    H279859   3.592   5.980  15.028 -2.2144  3.1668  1.1830
19482TIP3   OH279860   1.037   4.100   6.151 -0.1567  1.0402 -0.7248
19482TIP3    H179861   1.004   4.189   6.161 -0.2608  0.9170  0.0316
19482TIP3    H279862   1.127   4.103   6.183 -0.1626  0.8694 -0.6871
19483TIP3   OH279863   0.831   3.530   5.112  0.1537 -0.0621 -0.2405
19483TIP3    H179864   0.907   3.551   5.166 -0.8120  2.5371  0.2520
19483TIP3    H279865   0.756   3.541   5.170 -0.6991 -0.8566 -1.1653
19484TIP3   OH279866   0.093   4.876   6.133  0.7922 -0.3292 -0.2131
19484TIP3    H179867   0.129   4.948   6.186 -0.4872 -0.3903  0.7971
19484TIP3    H279868   0.014   4.849   6.180  0.6790 -1.7131 -1.1345
19485TIP3   OH279869   4.198   3.063   1.131  0.1468  0.4307 -0.1812
19485TIP3    H179870   4.256   3.013   1.189  0.1479  0.0396 -0.5094
19485TIP3    H279871   4.241   3.060   1.046  0.8212  2.1430  0.0724
19486TIP3   OH279872   5.668   1.629   1.649  0.3224  0.3377 -0.2422
19486TIP3    H179873   5.741   1.633   1.711 -0.2185 -1.7938  0.6268
19486TIP3    H279874   5.665   1.716   1.610  1.4718  1.3982  1.8394
19487TIP3   OH279875   0.233   3.297   2.807 -0.3015  0.1730 -0.3936
19487TIP3    H179876   0.164   3.233   2.828 -0.2541 -0.4031 -1.8993
19487TIP3    H279877   0.314   3.253   2.831 -0.2104 -0.6865 -2.1527
19488TIP3   OH279878   2.934   4.218  13.656 -0.1100  0.0209  0.3919
19488TIP3    H179879   2.842   4.241  13.645  0.0183  0.7973  0.8725
19488TIP3    H279880   2.977   4.251  13.577 -0.1216  0.3754  0.5316
19489TIP3   OH279881   5.139   4.248  12.195 -0.0135  0.1489  0.0214
19489TIP3    H179882   5.165   4.177  12.254  0.2783 -1.1289 -1.5815
19489TIP3    H279883   5.222   4.280  12.160 -0.0137  2.3069  1.7643
19490TIP3   OH279884   0.236   4.629  14.280 -0.4130  0.1569  0.1630
19490TIP3    H179885   0.193   4.546  14.303 -0.7649  0.2677 -0.0909
19490TIP3    H279886   0.251   4.672  14.364 -2.0443  0.7329  0.1985
19491TIP3   OH279887   0.557   5.678   4.460  0.0479  0.5674  0.3703
19491TIP3    H179888   0.488   5.642   4.515  0.1826 -0.7068 -0.2675
19491TIP3    H279889   0.510   5.722   4.389 -0.1127  1.3459  0.9495
19492TIP3   OH279890   4.848   6.100   0.130  0.5736 -0.0620  0.0115
19492TIP3    H179891   4.796   6.151   0.192  2.0521 -0.1060  1.3607
19492TIP3    H279892   4.801   6.108   0.047 -0.5072  1.5184  0.7234
19493TIP3   OH279893   3.959   2.731   2.061  0.6514 -0.3209  0.5211
19493TIP3    H179894   3.983   2.736   1.968 -0.6011 -1.9348  0.0525
19493TIP3    H279895   3.867   2.702   2.060 -0.8077  3.5243  2.2208
19494TIP3   OH279896   5.599   2.211   5.198  0.2969  0.5349 -0.5167
19494TIP3    H179897   5.659   2.216   5.272 -1.4429  0.2701  0.9979
19494TIP3    H279898   5.602   2.298   5.158 -0.7793  1.6257  1.6058
19495TIP3   OH279899   4.714   5.310  15.756 -0.1260  0.2043  1.2391
19495TIP3    H179900   4.619   5.295  15.755 -0.0781 -0.3757 -1.2457
19495TIP3    H279901   4.726   5.386  15.699  1.1776 -2.4790 -2.3786
19496TIP3   OH279902   2.606   4.275   1.323 -0.4105 -0.2465  0.1971
19496TIP3    H179903   2.684   4.245   1.369 -0.0891 -1.4679 -1.0642
19496TIP3    H279904   2.635   4.288   1.233 -1.7209 -1.0586 -0.3635
19497TIP3   OH279905   5.813   0.738   5.720  0.0428 -0.2347 -0.6625
19497TIP3    H179906   5.772   0.651   5.726  0.6099 -0.5117 -0.7825
19497TIP3    H279907   5.859   0.737   5.636  0.6098 -0.0611 -0.3532
19498TIP3   OH279908   0.184   5.370   0.520  0.0623  0.1253  0.5315
19498TIP3    H179909   0.148   5.291   0.561 -0.0221 -0.5525 -0.7999
19498TIP3    H279910   0.124   5.389   0.448  1.2022  0.2119 -0.4240
19499TIP3   OH279911   1.588   0.722   5.160 -0.5115 -0.5391 -0.2337
19499TIP3    H179912   1.682   0.729   5.143 -0.3965  1.9379  1.0122
19499TIP3    H279913   1.583   0.672   5.242 -0.1977  0.2440  0.2724
19500TIP3   OH279914   4.189   4.221  16.718 -0.6878  0.0921  0.5042
19500TIP3    H179915   4.184   4.241  16.811  1.2365 -0.7609  0.8226
19500TIP3    H279916   4.248   4.287  16.682  0.6646 -1.1522  0.3960
19501TIP3   OH279917   2.013   2.666   5.303  0.2453  0.2639  0.2296
19501TIP3    H179918   1.987   2.595   5.244  0.2414  0.6793 -0.2751
19501TIP3    H279919   1.932   2.694   5.344  0.4625 -1.1040  1.6654
19502TIP3   OH279920   1.316   4.428   5.273  0.5734  0.1273 -0.0100
19502TIP3    H179921   1.409   4.418   5.295  0.2284 -0.3229  1.3200
19502TIP3    H279922   1.274   4.350   5.308 -0.1091 -0.4501 -1.9997
19503TIP3   OH279923   0.991   3.183  13.157  0.0376  0.3549 -0.1815
19503TIP3    H179924   1.011   3.168  13.065  1.2857 -5.1215  0.6126
19503TIP3    H279925   0.897   3.169  13.164  0.1328 -0.4721 -0.4980
19504TIP3   OH279926   6.706   0.350  15.949 -0.1123  0.0861 -0.0357
19504TIP3    H179927   6.708   0.423  16.010 -2.6418 -0.2063  0.4828
19504TIP3    H279928   6.781   0.365  15.892  3.0751 -0.1199  3.6244
19505TIP3   OH279929   1.039   5.635  12.222 -0.0938 -0.1644 -0.2146
19505TIP3    H179930   1.030   5.569  12.291 -2.2721  0.1735 -0.1163
19505TIP3    H279931   1.020   5.588  12.141  1.9375 -0.4347 -0.6013
19506TIP3   OH279932   6.092   6.531  17.175  0.3514 -1.0148  0.7194
19506TIP3    H179933   6.004   6.493  17.176  0.7245 -1.9125  0.2550
19506TIP3    H279934   6.144   6.470  17.123  0.8230  0.4571 -0.6357
19507TIP3   OH279935   2.869   0.868   2.196 -0.0311  0.4590  0.3102
19507TIP3    H179936   2.905   0.890   2.282  1.7866  1.5567 -0.6615
19507TIP3    H279937   2.901   0.938   2.139 -0.4165 -0.7496 -1.4433
19508TIP3   OH279938   2.610   6.790  16.266  0.1408 -0.1930  0.4053
19508TIP3    H179939   2.587   6.733  16.193 -1.3071  0.1154  0.5939
19508TIP3    H279940   2.542   6.858  16.266  2.9591  2.9253 -1.2077
19509TIP3   OH279941   0.959   3.353   0.631  0.0062  0.0326 -0.6923
19509TIP3    H179942   1.039   3.306   0.655 -0.7535 -1.1797 -0.4611
19509TIP3    H279943   0.894   3.323   0.695 -0.4526  1.6009 -0.3894
19510TIP3   OH279944   4.852   4.152   5.146  0.2046  0.3598 -0.3368
19510TIP3    H179945   4.885   4.066   5.169 -0.2738  0.2099 -0.2025
19510TIP3    H279946   4.767   4.158   5.189 -0.0290  0.6653 -0.8223
19511TIP3   OH279947   5.177   4.230   1.446  0.5182  0.0499  0.5672
19511TIP3    H179948   5.241   4.300   1.457  0.1323  0.2598  1.5793
19511TIP3    H279949   5.217   4.154   1.488  0.5967 -0.1371  0.1628
19512TIP3   OH279950   5.112   1.087   2.531 -0.1750  0.6741 -0.1170
19512TIP3    H179951   5.051   1.035   2.584  0.2241  0.0426 -0.2659
19512TIP3    H279952   5.094   1.177   2.556  0.0313  0.3874  1.1346
19513TIP3   OH279953   5.933   4.205  16.945 -0.2317 -0.2173 -0.2995
19513TIP3    H179954   5.894   4.235  16.863  1.2969  2.6974 -0.0615
19513TIP3    H279955   5.864   4.217  17.010 -0.9167 -1.0051 -0.8602
19514TIP3   OH279956   3.233   2.573   0.477 -0.2204  0.4394  0.0453
19514TIP3    H179957   3.254   2.480   0.468 -0.2491  0.5379 -1.2305
19514TIP3    H279958   3.170   2.590   0.407 -0.4266  1.3629  0.4441
19515TIP3   OH279959   3.853   6.052   3.628 -0.0754  0.2731 -0.4298
19515TIP3    H179960   3.872   6.103   3.707  0.1481  0.1420 -0.4002
19515TIP3    H279961   3.762   6.074   3.608 -0.5077 -0.5680  0.5197
19516TIP3   OH279962   6.335   6.223   4.578  0.1482 -0.0421  0.3672
19516TIP3    H179963   6.422   6.261   4.591 -0.7789  3.3266 -2.0248
19516TIP3    H279964   6.285   6.248   4.656  0.5378  0.5163  0.4406
19517TIP3   OH279965   4.687   5.861   0.396 -0.4018 -0.0463  0.3301
19517TIP3    H179966   4.603   5.901   0.376  0.1849 -0.5548 -4.2681
19517TIP3    H279967   4.678   5.770   0.370  0.8377 -0.8226  2.3552
19518TIP3   OH279968   3.706   3.732  12.289  0.6294  0.1414  0.7648
19518TIP3    H179969   3.691   3.821  12.256  1.8939  0.6519  1.4763
19518TIP3    H279970   3.730   3.745  12.381  1.5759 -0.8571  0.6810
19519TIP3   OH279971   1.566   5.847  11.447 -0.6267  0.4906 -0.2974
19519TIP3    H179972   1.573   5.841  11.352  0.4704  0.8787 -0.2589
19519TIP3    H279973   1.506   5.920  11.462 -1.0130  0.2547 -0.6907
19520TIP3   OH279974   0.188   6.614  13.243 -0.3489  0.0097 -0.7713
19520TIP3    H179975   0.103   6.624  13.287  0.2510  0.1795  0.4011
19520TIP3    H279976   0.169   6.561  13.166 -1.5868  0.3647 -0.7358
19521TIP3   OH279977   5.737   3.481  12.027 -0.0902  0.9918  0.2584
19521TIP3    H179978   5.661   3.434  12.062  0.5539  0.4714  0.9855
19521TIP3    H279979   5.701   3.564  11.995 -1.1811  0.1850 -0.6792
19522TIP3   OH279980   1.470   3.364  15.301 -0.6612  0.2148  0.0189
19522TIP3    H179981   1.427   3.446  15.276  1.3247  1.9092  1.6597
19522TIP3    H279982   1.563   3.387  15.303  0.0158 -2.2975 -0.0777
19523TIP3   OH279983   4.276   2.044  15.034 -1.0528  0.2624  0.1664
19523TIP3    H179984   4.189   2.050  14.994 -1.0394 -0.2656  0.0440
19523TIP3    H279985   4.271   1.968  15.091 -0.9579  0.7999  0.9038
19524TIP3   OH279986   4.914   2.783  14.429 -0.0430  0.0880  0.5866
19524TIP3    H179987   4.865   2.855  14.389 -2.5435 -1.3280  0.9509
19524TIP3    H279988   4.889   2.785  14.521 -0.7009 -1.6436  0.4732
19525TIP3   OH279989   4.981   3.721   2.891  0.2321 -0.2530  0.0037
19525TIP3    H179990   4.913   3.654   2.887 -1.4412  1.3533  0.0922
19525TIP3    H279991   4.934   3.803   2.908  2.0628  1.1370 -1.1527
19526TIP3   OH279992   4.370   2.946   1.317 -0.1120  0.4545 -0.1496
19526TIP3    H179993   4.304   2.936   1.386  1.4542  0.8581  1.4547
19526TIP3    H279994   4.427   3.015   1.348  0.6947  0.5958 -1.8453
19527TIP3   OH279995   2.835   0.805  13.853  0.0303  0.4452 -0.5678
19527TIP3    H179996   2.837   0.769  13.942 -0.0833  2.5097  0.3133
19527TIP3    H279997   2.747   0.841  13.844  0.5462  1.6451 -0.9288
19528TIP3   OH279998   5.296   4.867  12.739 -0.0374  0.0715  0.2151
19528TIP3    H179999   5.237   4.807  12.785 -0.4118  1.1274  1.1528
19528TIP3    H280000   5.240   4.916  12.680 -0.1975  1.3058  1.3415
19529TIP3   OH280001   6.639   3.104  14.929  0.6193 -0.4249 -0.0141
19529TIP3    H180002   6.702   3.078  14.996  0.5906  0.1724  0.2506
19529TIP3    H280003   6.686   3.169  14.877 -0.5745  1.9844  1.7356
19530TIP3   OH280004   1.471   6.049  13.668 -0.2443 -0.2376 -0.0333
19530TIP3    H180005   1.460   6.124  13.609 -3.2405  0.4541  1.1952
19530TIP3    H280006   1.422   5.978  13.626  1.6710 -1.2556 -0.6543
19531TIP3   OH280007   3.925   4.655   1.047 -0.4914 -0.7302 -0.1336
19531TIP3    H180008   3.866   4.721   1.083 -1.1487  0.0009 -2.4230
19531TIP3    H280009   3.868   4.579   1.031  0.2462 -1.9303  2.4252
19532TIP3   OH280010   4.379   4.733   0.804  0.1697 -0.1885  0.3131
19532TIP3    H180011   4.462   4.688   0.819  0.0664 -0.8295 -0.9052
19532TIP3    H280012   4.404   4.820   0.773  0.3728  0.0871  1.2291
19533TIP3   OH280013   2.053   5.985   0.369 -0.2355 -0.0673  1.5169
19533TIP3    H180014   1.958   5.997   0.379 -0.7510 -1.4824 -0.8023
19533TIP3    H280015   2.091   6.063   0.408 -2.4663  1.3583  1.0693
19534TIP3   OH280016   4.588   2.191   1.136 -0.5698 -0.3811  0.3355
19534TIP3    H180017   4.569   2.168   1.045 -0.7274 -2.9232  0.9192
19534TIP3    H280018   4.681   2.170   1.148 -0.7349 -0.8168  0.9380
19535TIP3   OH280019   3.691   1.006  11.243 -0.3154  0.7259 -0.6467
19535TIP3    H180020   3.779   0.970  11.234  0.2662  1.9807 -0.3203
19535TIP3    H280021   3.656   1.005  11.154  0.7536  1.9059 -1.1160
19536TIP3   OH280022   0.767   1.506  14.733 -0.3928 -0.6665 -0.1975
19536TIP3    H180023   0.720   1.423  14.746 -0.0833 -0.9477 -0.8496
19536TIP3    H280024   0.858   1.479  14.715 -0.3565 -0.2005 -0.7258
19537TIP3   OH280025   3.595   0.969   4.467  0.3402  0.7060  0.3679
19537TIP3    H180026   3.598   0.941   4.376  0.7662  0.6006  0.4149
19537TIP3    H280027   3.614   0.890   4.518 -1.3645  0.4189  0.6133
19538TIP3   OH280028   1.786   1.875   2.818 -0.8256  0.7672  0.5444
19538TIP3    H180029   1.762   1.820   2.744  0.9163  1.4044 -0.5415
19538TIP3    H280030   1.780   1.817   2.894 -2.7358  0.1282 -0.0466
19539TIP3   OH280031   6.211   3.396  16.838 -0.4879 -0.0255 -0.4982
19539TIP3    H180032   6.265   3.371  16.763 -1.1210  0.3608 -1.0887
19539TIP3    H280033   6.123   3.406  16.802 -1.1137 -1.3583  0.5837
19540TIP3   OH280034   5.837   0.119  15.140  0.3417  0.2818  0.0497
19540TIP3    H180035   5.832   0.035  15.185 -3.0306  1.0377  1.4344
19540TIP3    H280036   5.884   0.177  15.199  0.8652 -0.1226  0.0272
19541TIP3   OH280037   1.406   3.866  15.719 -0.0261 -0.0567 -0.2328
19541TIP3    H180038   1.464   3.834  15.650  0.2105  1.9306 -1.0022
19541TIP3    H280039   1.455   3.936  15.761 -0.4951 -0.7024  1.4635
19542TIP3   OH280040   1.640   2.711  15.928  0.4480  0.4046 -0.1816
19542TIP3    H180041   1.552   2.723  15.964  0.5774  1.0456 -0.0687
19542TIP3    H280042   1.681   2.646  15.984  0.4147  0.9014  0.4284
19543TIP3   OH280043   3.011   4.383  16.871  0.2843  0.3753  0.8431
19543TIP3    H180044   3.019   4.442  16.796 -0.3445 -0.9802 -0.3477
19543TIP3    H280045   2.922   4.394  16.902  0.0853 -0.0945  0.4608
19544TIP3   OH280046   0.122   2.912   0.144  0.1456  0.6486 -0.2736
19544TIP3    H180047   0.166   2.878   0.066 -0.2760 -1.5422  0.3739
19544TIP3    H280048   0.029   2.897   0.128  0.0534  0.2230  0.6203
19545TIP3   OH280049   6.656   3.720  13.295 -0.5572 -0.2101  0.4491
19545TIP3    H180050   6.660   3.809  13.260  1.1044 -0.8260 -1.0525
19545TIP3    H280051   6.730   3.714  13.356  0.8419 -1.2282 -1.2563
19546TIP3   OH280052   3.718   1.133  11.481  0.2626 -0.4397  0.4824
19546TIP3    H180053   3.780   1.069  11.516  1.5761  1.0923  1.0899
19546TIP3    H280054   3.709   1.110  11.389  2.6908 -0.0417  0.0776
19547TIP3   OH280055   3.795   1.293  16.951  0.2860 -0.5761  0.4943
19547TIP3    H180056   3.709   1.251  16.942 -0.0289  0.2695 -0.6319
19547TIP3    H280057   3.800   1.353  16.877  2.1595 -1.1494  0.1043
19548TIP3   OH280058   3.577   2.296  12.083 -0.5579  0.3733  0.7235
19548TIP3    H180059   3.638   2.228  12.114 -0.4934  0.0428 -0.1029
19548TIP3    H280060   3.499   2.247  12.056 -1.8100  0.8869  3.0980
19549TIP3   OH280061   1.001   3.778   3.821 -0.2629 -0.2893 -0.2215
19549TIP3    H180062   0.978   3.867   3.846  0.4536 -0.3870  0.8550
19549TIP3    H280063   0.916   3.735   3.807 -0.6393  0.3325  0.0764
19550TIP3   OH280064   5.253   5.998   3.983 -0.5881 -0.2424 -0.5007
19550TIP3    H180065   5.162   6.018   3.960  0.0967  2.0075 -1.6552
19550TIP3    H280066   5.274   6.060   4.053 -0.3458 -1.7454  0.7882
19551TIP3   OH280067   6.774   4.107  15.531  0.7924 -0.3130  0.2963
19551TIP3    H180068   6.777   4.196  15.567  0.2234  0.1066 -0.6615
19551TIP3    H280069   6.734   4.055  15.600  2.2018 -0.0774  1.3358
19552TIP3   OH280070   1.009   0.931   1.430 -0.3536 -0.4037 -0.0685
19552TIP3    H180071   1.054   0.936   1.346 -1.2111  0.0178 -0.5059
19552TIP3    H280072   1.012   1.020   1.464 -0.1238 -0.5465  0.2917
19553TIP3   OH280073   1.686   6.302   3.153  0.3919  0.2362 -0.8327
19553TIP3    H180074   1.637   6.249   3.090  2.1378  0.4603 -2.4441
19553TIP3    H280075   1.644   6.282   3.237 -0.9710 -1.3238 -1.8080
19554TIP3   OH280076   2.562   6.502  11.290 -0.5371 -0.3687  1.1230
19554TIP3    H180077   2.551   6.516  11.196  0.3223 -3.5125  0.4209
19554TIP3    H280078   2.489   6.549  11.331 -0.3256  1.9466 -0.9750
19555TIP3   OH280079   5.547   4.762   1.666  0.8542 -0.1737  0.5181
19555TIP3    H180080   5.472   4.813   1.698  0.2489 -1.1181  0.6448
19555TIP3    H280081   5.536   4.676   1.707  0.5203 -1.1689 -1.5474
19556TIP3   OH280082   2.514   2.791   6.042  0.3767 -0.0853 -0.0687
19556TIP3    H180083   2.481   2.702   6.026  0.6870 -0.5732  1.7878
19556TIP3    H280084   2.586   2.779   6.103  0.6617  1.4351 -0.0726
19557TIP3   OH280085   4.322   5.218   5.599 -0.1480 -0.1330 -0.0076
19557TIP3    H180086   4.307   5.195   5.508 -0.5607  1.6951 -0.4385
19557TIP3    H280087   4.374   5.146   5.634 -0.3866 -1.0893 -1.5478
19558TIP3   OH280088   3.880   1.103  17.151 -0.5094  0.1039  0.4508
19558TIP3    H180089   3.855   1.170  17.088  0.6324 -0.1437 -0.3162
19558TIP3    H280090   3.798   1.065  17.181 -1.1016  0.6686 -0.4197
19559TIP3   OH280091   2.229   5.622   2.864 -0.4805  0.1846  0.3337
19559TIP3    H180092   2.236   5.633   2.769  1.3591 -0.8971  0.2949
19559TIP3    H280093   2.269   5.537   2.881  0.9793  1.1935  2.2691
19560TIP3   OH280094   3.100   5.745  13.735  0.2243  0.5647  0.3716
19560TIP3    H180095   3.186   5.714  13.764 -0.5449 -0.3112  1.8292
19560TIP3    H280096   3.111   5.840  13.724  1.2600  0.5243  0.9375
19561TIP3   OH280097   5.342   4.565   5.708  0.2435 -0.0528 -0.5110
19561TIP3    H180098   5.340   4.489   5.651  0.2734 -0.1252 -0.4165
19561TIP3    H280099   5.431   4.565   5.744 -0.4859 -1.4688  1.4818
19562TIP3   OH280100   4.080   4.701  15.980 -0.0552  0.4583 -0.7447
19562TIP3    H180101   4.029   4.746  16.048 -2.2798 -1.1248 -1.2564
19562TIP3    H280102   4.057   4.747  15.899 -1.7488 -0.9797 -1.1557
19563TIP3   OH280103   2.560   6.289  14.729  0.4528 -0.0820 -0.1464
19563TIP3    H180104   2.617   6.344  14.783  0.4966 -1.2580  1.0613
19563TIP3    H280105   2.611   6.209  14.714 -0.6653 -0.9489  0.5304
19564TIP3   OH280106   5.022   4.470  10.682  0.3816 -0.1452  0.5654
19564TIP3    H180107   5.094   4.408  10.687  0.8127  0.4262  1.7981
19564TIP3    H280108   5.047   4.541  10.741 -0.3548  0.9372 -0.3829
19565TIP3   OH280109   0.416   6.640  13.949  0.1762  0.1540 -1.0009
19565TIP3    H180110   0.402   6.733  13.965  1.1284  0.5309 -2.2077
19565TIP3    H280111   0.509   6.626  13.965  0.0632 -0.5676 -0.9403
19566TIP3   OH280112   4.783   0.525   1.181 -0.2471  0.6252  0.1235
19566TIP3    H180113   4.816   0.436   1.197 -2.9692 -0.8626 -1.6555
19566TIP3    H280114   4.774   0.530   1.086 -0.8930  2.5266  0.2546
19567TIP3   OH280115   0.625   5.560  13.249 -0.0986 -0.2007 -0.1885
19567TIP3    H180116   0.579   5.640  13.223 -0.2188 -0.8156 -2.0067
19567TIP3    H280117   0.718   5.582  13.239 -0.1425 -0.4083 -1.1053
19568TIP3   OH280118   4.064   0.466   0.082 -0.3783  0.5398  0.0455
19568TIP3    H180119   4.129   0.469   0.011 -1.9470  1.8118 -1.4146
19568TIP3    H280120   4.109   0.507   0.156  0.7362  0.7240 -0.6965
19569TIP3   OH280121   1.615   5.845  16.882  0.4753 -0.0847  0.1294
19569TIP3    H180122   1.661   5.864  16.800  2.8402 -0.6955  1.2136
19569TIP3    H280123   1.612   5.749  16.886 -0.0438 -0.0540  0.5261
19570TIP3   OH280124   1.196   5.402  13.085 -0.2172 -0.0185  0.0844
19570TIP3    H180125   1.282   5.364  13.104 -0.5316 -1.6250 -1.4879
19570TIP3    H280126   1.216   5.489  13.051  0.7983 -0.3587 -0.2227
19571TIP3   OH280127   2.128   2.070   4.742 -0.6875 -0.0449 -0.4307
19571TIP3    H180128   2.034   2.062   4.761 -0.8869 -1.3833 -1.7705
19571TIP3    H280129   2.144   2.004   4.675  1.5487 -0.8977  0.8609
19572TIP3   OH280130   4.408   3.630   4.124  0.6126 -0.0268  1.0087
19572TIP3    H180131   4.352   3.694   4.167  0.1879 -0.5860  1.2948
19572TIP3    H280132   4.351   3.585   4.062  1.0015  0.1436  0.5180
19573TIP3   OH280133   3.426   5.947   3.352 -0.3727 -0.1626  0.0698
19573TIP3    H180134   3.401   5.884   3.284 -1.7432  2.1602 -1.7465
19573TIP3    H280135   3.483   6.009   3.307 -3.0157  2.6524  0.3276
19574TIP3   OH280136   3.557   4.112   6.181 -0.2677 -0.0283  0.0608
19574TIP3    H180137   3.585   4.022   6.197 -1.1559 -0.4745 -0.8461
19574TIP3    H280138   3.624   4.165   6.224  0.2483 -1.1115  0.6442
19575TIP3   OH280139   1.924   4.789  11.150 -0.6748 -0.7365 -0.2710
19575TIP3    H180140   1.955   4.771  11.061  1.3484  0.5160  0.1084
19575TIP3    H280141   1.855   4.854  11.139  1.7585  1.9167 -0.8329
19576TIP3   OH280142   6.114   3.813  13.510 -0.3853  0.3121  1.2083
19576TIP3    H180143   6.141   3.867  13.585 -0.1129  0.0873  1.2742
19576TIP3    H280144   6.036   3.767  13.540 -0.6799  0.7446  1.1183
19577TIP3   OH280145   0.926   1.244   0.901  0.4781 -0.3674 -0.4505
19577TIP3    H180146   0.918   1.149   0.902 -1.2758 -0.2698  1.2301
19577TIP3    H280147   0.858   1.273   0.840  2.2198 -0.1755 -2.4441
19578TIP3   OH280148   2.255   6.676  13.908  0.1552  0.1537 -0.0919
19578TIP3    H180149   2.193   6.685  13.836 -0.1842 -0.6286  0.0953
19578TIP3    H280150   2.284   6.766  13.926 -1.7958  0.6967  0.5884
19579TIP3   OH280151   0.485   4.323   0.124 -0.7141  0.5527 -0.3830
19579TIP3    H180152   0.521   4.412   0.120 -1.1678  0.7165 -0.7961
19579TIP3    H280153   0.423   4.318   0.052 -1.8293  0.4003  0.5524
19580TIP3   OH280154   5.084   2.379   3.215  0.2583 -0.0729 -0.4005
19580TIP3    H180155   5.123   2.317   3.153 -0.1796  1.1866 -1.9869
19580TIP3    H280156   5.039   2.443   3.160  1.4896  2.2323  1.1186
19581TIP3   OH280157   1.089   4.264  16.091 -0.0817 -0.1093 -0.3212
19581TIP3    H180158   1.125   4.338  16.042 -2.0163 -0.2440 -2.0627
19581TIP3    H280159   1.063   4.201  16.023 -0.0411 -1.6657  1.0460
19582TIP3   OH280160   4.094   6.419  15.417 -0.7143 -0.1518  0.2084
19582TIP3    H180161   4.158   6.436  15.348 -1.9849  0.4566 -0.8451
19582TIP3    H280162   4.129   6.342  15.463  0.9414  0.3672 -0.1030
19583TIP3   OH280163   0.893   2.240   4.814  0.5713  0.2122  0.3403
19583TIP3    H180164   0.812   2.263   4.860 -0.7620  1.7325 -2.5051
19583TIP3    H280165   0.956   2.306   4.843  0.7643 -0.7413  2.2686
19584TIP3   OH280166   5.649   1.068  14.217  0.2968 -0.3019 -0.3178
19584TIP3    H180167   5.621   1.022  14.296  1.3605  1.3809  1.1027
19584TIP3    H280168   5.567   1.103  14.180  0.0297  1.5683  1.8338
19585TIP3   OH280169   2.626   5.042  14.745 -0.3358 -0.0155 -0.2277
19585TIP3    H180170   2.719   5.058  14.727 -0.3406  0.5695  0.2267
19585TIP3    H280171   2.590   5.129  14.763 -0.8751 -0.2906  0.0468
19586TIP3   OH280172   2.336   6.199  15.844  0.2612  0.7873 -0.0764
19586TIP3    H180173   2.295   6.277  15.882 -0.1700  0.2449  0.5831
19586TIP3    H280174   2.418   6.189  15.893 -0.1698  0.2395  0.5352
19587TIP3   OH280175   4.629   2.591  11.431  0.4317  0.2026  0.2621
19587TIP3    H180176   4.680   2.553  11.359  2.6210  1.5263  1.0090
19587TIP3    H280177   4.586   2.667  11.392 -1.7338 -1.3300 -0.5554
19588TIP3   OH280178   1.212   2.302   3.195 -1.0717 -0.0369 -0.4220
19588TIP3    H180179   1.151   2.229   3.207 -2.3538  0.8647 -1.2142
19588TIP3    H280180   1.218   2.313   3.100  0.7455 -0.4106 -0.3967
19589TIP3   OH280181   3.833   0.374  15.517  0.3106  0.0896  0.3257
19589TIP3    H180182   3.845   0.437  15.445 -0.9401 -1.0146 -0.9045
19589TIP3    H280183   3.769   0.416  15.575 -0.7582 -0.1416 -0.6522
19590TIP3   OH280184   5.135   3.304  13.445  0.4378 -0.1992  0.0584
19590TIP3    H180185   5.118   3.210  13.445 -0.2260 -0.1159  1.6964
19590TIP3    H280186   5.143   3.327  13.538  3.0147  0.9513 -0.3466
19591TIP3   OH280187   2.114   5.851   1.191  0.8961  0.2246 -0.3049
19591TIP3    H180188   2.040   5.860   1.130  0.5967  1.6341  0.2311
19591TIP3    H280189   2.188   5.889   1.144  0.4988  2.0412  0.4476
19592TIP3   OH280190   0.039   4.356  10.779  0.1834 -0.1186 -1.2175
19592TIP3    H180191   0.032   4.320  10.691  1.8672  0.8526 -1.7925
19592TIP3    H280192   0.003   4.445  10.771  0.4346  0.0080 -0.9704
19593TIP3   OH280193   1.949   5.360  12.356  0.0400  0.1706  0.0523
19593TIP3    H180194   1.923   5.367  12.448  2.6495  2.5804  0.7720
19593TIP3    H280195   2.032   5.312  12.359 -0.0049 -0.0012 -1.0979
19594TIP3   OH280196   5.488   4.592   2.613  0.3586 -0.8386  0.0150
19594TIP3    H180197   5.567   4.572   2.563  0.5042 -0.9231  0.2776
19594TIP3    H280198   5.474   4.514   2.667 -0.8264 -1.5159 -1.1991
19595TIP3   OH280199   2.282   5.904  15.972 -0.0790  0.1550  0.3691
19595TIP3    H180200   2.363   5.871  15.934  0.1006  1.7277 -0.6735
19595TIP3    H280201   2.214   5.877  15.911 -0.2989 -0.7015  0.9725
19596TIP3   OH280202   2.132   1.995  16.889 -0.6876 -0.4854  0.3352
19596TIP3    H180203   2.151   2.081  16.852 -0.0637 -0.5974  0.3919
19596TIP3    H280204   2.039   1.982  16.871 -0.4999 -0.3465 -0.7866
19597TIP3   OH280205   0.108   1.982  11.155  0.1145 -0.4413 -0.2204
19597TIP3    H180206   0.106   2.010  11.063  0.2339  0.2437 -0.0243
19597TIP3    H280207   0.037   2.031  11.196  0.3003 -0.4649  0.1300
19598TIP3   OH280208   2.853   6.525   3.338  0.0011 -0.3868  0.4527
19598TIP3    H180209   2.786   6.570   3.288  0.3428 -0.0523  0.2849
19598TIP3    H280210   2.824   6.531   3.429 -0.1422 -0.1543  0.3916
19599TIP3   OH280211   2.249   5.791   0.434 -0.0638 -0.5513 -0.0496
19599TIP3    H180212   2.263   5.720   0.372 -0.5801 -0.8267  0.1423
19599TIP3    H280213   2.187   5.850   0.391 -2.2156 -1.8643  1.0207
19600TIP3   OH280214   5.957   5.393  15.506 -0.0617  0.0425  0.0728
19600TIP3    H180215   6.010   5.426  15.579 -0.7344  0.5514  0.3372
19600TIP3    H280216   5.903   5.325  15.545 -1.1244  0.9827  0.2741
19601TIP3   OH280217   4.959   2.476  12.573 -0.0279  0.3039  0.5454
19601TIP3    H180218   4.901   2.552  12.567 -1.0779 -0.4278  1.0401
19601TIP3    H280219   4.914   2.408  12.524  0.8887 -0.0183  0.1305
19602TIP3   OH280220   4.590   3.088   6.166 -0.0186  0.0186  0.7157
19602TIP3    H180221   4.607   2.997   6.191 -1.2103 -0.1680  0.9404
19602TIP3    H280222   4.626   3.140   6.238  0.7005 -0.2676  0.5668
19603TIP3   OH280223   1.903   1.595   2.210 -0.1539 -0.5138  0.0833
19603TIP3    H180224   1.857   1.537   2.271  3.5638 -1.2443  2.5464
19603TIP3    H280225   1.934   1.667   2.264  0.1035  0.8588 -1.7906
19604TIP3   OH280226   2.785   0.053  11.161 -0.3036 -0.5137 -0.0888
19604TIP3    H180227   2.739   0.119  11.109  1.5004 -0.5328 -1.8421
19604TIP3    H280228   2.769  -0.030  11.115  0.1174 -0.7600  0.2015
19605TIP3   OH280229   6.791   0.107  13.243 -0.0406 -0.2451 -0.6169
19605TIP3    H180230   6.795   0.150  13.328  1.0262 -1.5041  0.0069
19605TIP3    H280231   6.764   0.017  13.263 -1.7648 -0.0576 -1.8236
19606TIP3   OH280232   3.786   1.210   2.579 -0.0920 -0.2065  0.0138
19606TIP3    H180233   3.880   1.221   2.562 -0.0750 -0.3663  0.0025
19606TIP3    H280234   3.780   1.204   2.675 -0.2210  1.0156  0.0968
19607TIP3   OH280235   6.466   6.542  12.257  0.9910  0.6146 -0.0924
19607TIP3    H180236   6.469   6.638  12.255  0.7430  0.6162 -0.9903
19607TIP3    H280237   6.427   6.520  12.341 -1.0999  1.3649 -0.8190
19608TIP3   OH280238   1.010   2.813  13.534 -0.6298 -0.8276 -0.6944
19608TIP3    H180239   0.940   2.871  13.506 -0.2619 -0.4374 -0.8221
19608TIP3    H280240   0.970   2.756  13.600 -0.2273  1.8580  2.0999
19609TIP3   OH280241   4.641   0.666  11.754 -1.0206  0.1013  0.0117
19609TIP3    H180242   4.674   0.596  11.696 -1.8093 -2.4374  2.3984
19609TIP3    H280243   4.700   0.739  11.739  0.6254 -1.4703 -1.7666
19610TIP3   OH280244   0.763   5.384  12.087  0.2696  0.3939  0.5589
19610TIP3    H180245   0.843   5.405  12.038 -0.0210  0.4590  0.1031
19610TIP3    H280246   0.693   5.421  12.034  0.0448  1.7801  1.7530
19611TIP3   OH280247   5.238   5.191  12.985  0.0901 -0.6994  0.1698
19611TIP3    H180248   5.227   5.263  12.922 -0.4431  0.1718  1.2213
19611TIP3    H280249   5.163   5.133  12.968 -2.0508  1.2459  2.1309
19612TIP3   OH280250   5.450   3.907   4.731 -0.1520 -0.0557 -0.2823
19612TIP3    H180251   5.474   3.986   4.681  0.6833 -2.0336 -3.2640
19612TIP3    H280252   5.525   3.849   4.720 -1.9637 -2.4168 -0.8268
19613TIP3   OH280253   4.674   4.399  15.527  0.1453  0.2028 -0.1957
19613TIP3    H180254   4.717   4.410  15.442 -0.0538 -0.3956 -0.3769
19613TIP3    H280255   4.632   4.313  15.522 -1.5067  0.9720 -0.2202
19614TIP3   OH280256   1.383   1.594  14.044  0.0391  0.7736 -0.5079
19614TIP3    H180257   1.347   1.680  14.068  0.5689  1.0632 -0.7271
19614TIP3    H280258   1.393   1.548  14.127 -0.4625  0.8353 -0.4089
19615TIP3   OH280259   6.531   5.115  16.317  0.1035 -0.1705  0.7308
19615TIP3    H180260   6.524   5.021  16.330  1.3144 -0.5313 -0.9450
19615TIP3    H280261   6.508   5.153  16.402  0.1300 -1.9774  1.5808
19616TIP3   OH280262   2.554   2.802  14.294  0.2031 -0.0686 -0.3583
19616TIP3    H180263   2.533   2.809  14.201  0.7164  0.6918 -0.4222
19616TIP3    H280264   2.590   2.714  14.304  0.2605 -0.1071 -0.8973
19617TIP3   OH280265   0.829   0.794   1.892 -0.5466  0.6590  0.1295
19617TIP3    H180266   0.775   0.837   1.958 -0.7098 -2.4423  2.1991
19617TIP3    H280267   0.868   0.719   1.938  2.1855  0.3411 -2.3962
19618TIP3   OH280268   5.705   6.038  16.087 -0.5475  0.8466  0.1109
19618TIP3    H180269   5.699   6.095  16.163  1.3065  0.5144  0.5605
19618TIP3    H280270   5.770   6.080  16.030  0.4389 -0.4953  0.1961
19619TIP3   OH280271   5.394   5.813  13.599  0.3420 -0.1879 -0.0856
19619TIP3    H180272   5.461   5.820  13.666  1.7014  1.5425 -1.5402
19619TIP3    H280273   5.371   5.903  13.577 -0.4157 -0.7100 -1.6033
19620TIP3   OH280274   0.126   3.845  12.157  0.2583 -0.1460  0.8362
19620TIP3    H180275   0.188   3.845  12.084  1.8293  0.9396  2.1288
19620TIP3    H280276   0.156   3.775  12.214 -2.5693 -2.9144 -0.7225
19621TIP3   OH280277   4.026   1.412  11.571 -0.3835  0.2521 -0.2708
19621TIP3    H180278   4.103   1.362  11.596  1.6507  2.6801 -1.2512
19621TIP3    H280279   4.044   1.501  11.600 -1.7857  1.3507 -2.4553
19622TIP3   OH280280   3.457   4.408   2.084 -1.0648 -0.0196  0.2125
19622TIP3    H180281   3.550   4.387   2.092 -1.1181 -0.1129  0.6168
19622TIP3    H280282   3.412   4.333   2.122 -1.3095  0.0146 -0.0007
19623TIP3   OH280283   6.547   5.439  13.467  0.5923 -0.0739  0.5709
19623TIP3    H180284   6.593   5.368  13.512  0.3851 -0.3901  0.2877
19623TIP3    H280285   6.608   5.513  13.470  1.6836 -0.8655 -0.9730
19624TIP3   OH280286   4.720   5.477  14.117 -0.1968 -0.4376 -0.2861
19624TIP3    H180287   4.638   5.511  14.153 -0.1618 -0.7479  0.1002
19624TIP3    H280288   4.780   5.479  14.191  0.2519  0.1212 -0.6567
19625TIP3   OH280289   3.208   1.649  13.533  0.1098 -0.1503  0.6057
19625TIP3    H180290   3.194   1.596  13.455  0.2277  1.0501 -0.2520
19625TIP3    H280291   3.135   1.625  13.590  0.6051 -1.8305  0.6147
19626TIP3   OH280292   5.015   4.194   4.600 -0.5057 -0.0026  0.3730
19626TIP3    H180293   4.994   4.190   4.693  0.1853 -0.9028  0.5013
19626TIP3    H280294   5.111   4.201   4.597 -0.4374 -1.0551 -0.2814
19627TIP3   OH280295   4.344   2.598  16.296 -0.1508  0.2448  0.3383
19627TIP3    H180296   4.337   2.693  16.297  0.4597  0.2965  1.1273
19627TIP3    H280297   4.352   2.575  16.203  2.4156  1.2151  0.2351
19628TIP3   OH280298   4.617   6.159   3.173 -0.0045 -0.0390 -0.1947
19628TIP3    H180299   4.626   6.083   3.230  2.4099  1.3860  1.4526
19628TIP3    H280300   4.573   6.225   3.227 -0.5568  0.3233 -1.0565
19629TIP3   OH280301   3.570   2.458   2.899 -0.1123 -0.2987  0.6973
19629TIP3    H180302   3.614   2.457   2.985 -0.9893  1.6378  1.2275
19629TIP3    H280303   3.585   2.370   2.864 -2.0786 -2.2209  4.0468
19630TIP3   OH280304   3.582   6.163   4.279  0.6532  0.3899  0.1276
19630TIP3    H180305   3.527   6.240   4.268 -0.2574 -0.4254 -1.6151
19630TIP3    H280306   3.522   6.095   4.310  1.4775  0.3799  1.8244
19631TIP3   OH280307   5.439   6.239  14.694  0.3802 -0.1933 -0.1117
19631TIP3    H180308   5.368   6.175  14.692  0.3312 -0.1450  0.0330
19631TIP3    H280309   5.518   6.188  14.682  0.3011 -0.2167 -0.5286
19632TIP3   OH280310   5.576   4.791   2.051 -0.0452 -0.1152  0.4223
19632TIP3    H180311   5.491   4.806   2.008  0.2202  0.6364  0.1423
19632TIP3    H280312   5.563   4.825   2.139 -0.7967 -2.2493  1.2036
19633TIP3   OH280313   6.541   5.565   0.968 -0.7752 -0.1076 -0.5113
19633TIP3    H180314   6.546   5.660   0.958  0.4602 -0.2176 -1.1783
19633TIP3    H280315   6.454   5.549   1.003 -0.3928  1.4032  1.3260
19634TIP3   OH280316   2.265   5.629   1.564  0.1593 -0.1659  0.7404
19634TIP3    H180317   2.266   5.543   1.607 -2.0299 -1.0186 -0.7465
19634TIP3    H280318   2.343   5.629   1.509  0.5828 -0.8943  1.3251
19635TIP3   OH280319   5.202   6.091   4.562 -0.0185  0.1833 -0.5030
19635TIP3    H180320   5.150   6.167   4.535 -0.3578  0.0958 -0.1105
19635TIP3    H280321   5.147   6.046   4.626 -0.3698 -1.1295 -1.6787
19636TIP3   OH280322   2.892   6.683  16.129 -0.3127 -0.6548  0.3886
19636TIP3    H180323   2.949   6.656  16.057  1.7353  0.1865  1.6134
19636TIP3    H280324   2.835   6.608  16.144 -0.5596 -0.9863 -1.8391
19637TIP3   OH280325   5.178   6.144   5.738 -0.1950  0.6410  0.1192
19637TIP3    H180326   5.205   6.230   5.769 -0.1227  0.3972  0.7452
19637TIP3    H280327   5.245   6.119   5.674  0.8007  0.2815  1.2530
19638TIP3   OH280328   5.284   6.456  16.180  0.0661 -0.2655  0.7102
19638TIP3    H180329   5.271   6.540  16.226  1.8283  0.6254 -0.2986
19638TIP3    H280330   5.203   6.443  16.131 -0.7296  0.2076  1.8583
19639TIP3   OH280331   3.492   4.055  12.369 -0.5225 -0.4165 -0.1286
19639TIP3    H180332   3.463   3.973  12.408  0.5909 -1.3309 -1.1538
19639TIP3    H280333   3.585   4.061  12.389 -1.0196  1.8812  2.0701
19640TIP3   OH280334   4.207   2.254   0.574  0.0985 -0.2222 -0.3032
19640TIP3    H180335   4.294   2.217   0.555  0.1180  0.2139 -1.0636
19640TIP3    H280336   4.185   2.305   0.497 -0.6197  0.0900  0.1030
19641TIP3   OH280337   3.871   1.589   1.070  0.2429  0.6022 -0.3375
19641TIP3    H180338   3.916   1.562   0.990  2.5557  2.6225  0.1761
19641TIP3    H280339   3.889   1.518   1.132  0.1933 -0.0016 -1.0050
19642TIP3   OH280340   2.613   4.330  10.997 -0.5377 -0.0130 -0.7947
19642TIP3    H180341   2.555   4.260  10.969 -0.5595  0.3981 -1.8522
19642TIP3    H280342   2.633   4.311  11.088 -0.2179 -1.6253 -1.1716
19643TIP3   OH280343   0.794   2.908  16.683 -0.4706  0.3416 -0.2703
19643TIP3    H180344   0.727   2.968  16.717  0.2890  0.5399  0.9181
19643TIP3    H280345   0.768   2.822  16.716 -2.2862 -0.2841 -3.0332
19644TIP3   OH280346   1.631   0.254   3.811  0.6506  0.0710 -0.2438
19644TIP3    H180347   1.642   0.172   3.857  0.1147 -0.2405 -0.6583
19644TIP3    H280348   1.553   0.294   3.850  0.9158  0.3922 -0.0336
19645TIP3   OH280349   6.270   0.581   4.305 -0.5716 -0.3847  0.1518
19645TIP3    H180350   6.249   0.674   4.293 -0.9800 -0.4868  0.0657
19645TIP3    H280351   6.283   0.548   4.217 -0.4677 -0.4208  0.1805
19646TIP3   OH280352   0.836   3.998   2.772 -0.0569 -0.3441 -0.0927
19646TIP3    H180353   0.859   4.091   2.765  2.8171 -0.9077  0.2958
19646TIP3    H280354   0.846   3.978   2.865  0.2373 -1.2113 -0.2997
19647TIP3   OH280355   4.109   5.344   6.209  0.6584  0.3119 -0.3259
19647TIP3    H180356   4.075   5.421   6.163  1.4489  0.9910  0.1991
19647TIP3    H280357   4.199   5.368   6.233  0.5458 -0.3451  0.8143
19648TIP3   OH280358   1.110   5.107   1.053  0.2010 -0.0536 -0.2855
19648TIP3    H180359   1.166   5.140   1.124  0.7233 -0.8733 -0.3033
19648TIP3    H280360   1.030   5.079   1.097 -1.1820  3.1493 -0.4933
19649TIP3   OH280361   5.838   2.923  14.360 -0.7038  0.7033 -0.3513
19649TIP3    H180362   5.799   2.892  14.442 -2.3110  1.5703 -0.7438
19649TIP3    H280363   5.802   3.011  14.348  2.2985  2.0674 -0.1996
19650TIP3   OH280364   3.339   2.337  14.984  0.6116  0.0812 -0.9919
19650TIP3    H180365   3.338   2.299  14.896  1.0629  2.5665 -2.1841
19650TIP3    H280366   3.411   2.293  15.028  1.4455 -0.1100 -2.4540
19651TIP3   OH280367   3.412   5.487  16.344 -0.1378 -0.0098  0.0392
19651TIP3    H180368   3.464   5.565  16.360  1.1749 -0.6650 -0.8510
19651TIP3    H280369   3.419   5.436  16.425  2.0257 -0.8412 -0.6098
19652TIP3   OH280370   3.906   0.547   3.207 -0.5293  0.2322  0.1523
19652TIP3    H180371   3.878   0.639   3.213 -0.2640  0.4442 -1.4901
19652TIP3    H280372   3.899   0.515   3.297 -1.1925  1.6902  0.6641
19653TIP3   OH280373   4.063   1.244  11.164  0.1280 -0.1675 -0.0526
19653TIP3    H180374   4.148   1.211  11.134 -0.2931 -1.1812 -0.1781
19653TIP3    H280375   4.071   1.339  11.157  0.8931 -0.2791 -1.0628
19654TIP3   OH280376   4.685   3.175   3.545 -0.4092  0.0573 -0.4656
19654TIP3    H180377   4.609   3.229   3.526 -1.1386 -0.5835  0.4918
19654TIP3    H280378   4.698   3.123   3.466 -0.7925  0.3891 -0.7474
19655TIP3   OH280379   3.891   6.670   3.803  0.6717  0.1938 -0.2129
19655TIP3    H180380   3.809   6.625   3.782  0.4767  0.9840 -1.2908
19655TIP3    H280381   3.892   6.745   3.744  0.2143  2.5270  2.5097
19656TIP3   OH280382   0.716   2.823   2.313 -0.4017  0.5923 -0.1259
19656TIP3    H180383   0.684   2.751   2.259 -0.0214  1.0101 -0.9263
19656TIP3    H280384   0.768   2.877   2.254  0.5284  0.7425  0.7994
19657TIP3   OH280385   1.410   4.894  15.790  0.5619  0.4918  0.2346
19657TIP3    H180386   1.339   4.852  15.741 -2.0226  2.8117  1.7116
19657TIP3    H280387   1.479   4.908  15.725  0.3758 -3.1045 -0.9561
19658TIP3   OH280388   1.537   3.001  14.078  0.1863 -0.0841  0.3363
19658TIP3    H180389   1.497   3.019  13.992 -0.3439 -2.1739  0.0961
19658TIP3    H280390   1.630   2.991  14.060 -0.2173 -3.2186 -0.5629
19659TIP3   OH280391   5.631   4.341  13.603  0.2775  0.5862  0.0569
19659TIP3    H180392   5.653   4.426  13.565  2.4997 -0.2694 -0.7268
19659TIP3    H280393   5.623   4.358  13.696  1.3821  1.5463  0.0016
19660TIP3   OH280394   6.472   0.012   2.760 -0.0961 -0.7278 -0.0121
19660TIP3    H180395   6.394  -0.040   2.740 -1.6377  1.4270  0.0243
19660TIP3    H280396   6.444   0.102   2.747  2.8840  0.0890 -1.5713
19661TIP3   OH280397   2.915   6.246  11.626 -0.0484 -0.0185  0.2970
19661TIP3    H180398   2.965   6.179  11.672 -0.1730 -1.5349 -1.6493
19661TIP3    H280399   2.975   6.320  11.618  0.3757 -0.1725  1.7377
19662TIP3   OH280400   1.930   5.517  14.888  0.0556 -0.0042 -0.1498
19662TIP3    H180401   2.006   5.504  14.831  0.7938  0.3263  0.7225
19662TIP3    H280402   1.895   5.429  14.902  0.6298 -0.2341 -0.1127
19663TIP3   OH280403   2.425   2.839  13.068  0.1407 -0.0132  0.0597
19663TIP3    H180404   2.388   2.853  12.981  0.6800 -0.0876 -0.1863
19663TIP3    H280405   2.379   2.901  13.125 -0.2635 -0.0163 -0.2650
19664TIP3   OH280406   2.398   6.023  16.872  0.1075 -0.2640 -0.0822
19664TIP3    H180407   2.389   6.115  16.847  0.2202 -0.0537  0.6142
19664TIP3    H280408   2.375   6.022  16.965  1.4100 -0.7272  0.2440
19665TIP3   OH280409   4.078   2.115  14.612  0.5316 -0.5151 -0.7917
19665TIP3    H180410   4.097   2.207  14.631 -1.2290 -0.1949 -0.3517
19665TIP3    H280411   4.028   2.118  14.530 -1.1262 -0.8469  0.1498
19666TIP3   OH280412   3.968   4.371   3.699 -0.6066  0.4233  0.1528
19666TIP3    H180413   3.896   4.422   3.661 -1.4383  0.2783  1.4543
19666TIP3    H280414   4.011   4.330   3.624 -0.5463  2.1963 -0.8445
19667TIP3   OH280415   0.768   2.770   4.782  0.3030  0.3807  0.0063
19667TIP3    H180416   0.695   2.830   4.769  1.0787  1.0104 -1.7654
19667TIP3    H280417   0.766   2.713   4.704  2.4431  1.2665 -0.7683
19668TIP3   OH280418   1.853   2.431  16.395  0.0225 -0.9686 -0.2018
19668TIP3    H180419   1.885   2.382  16.470 -0.0871 -0.5909  0.0951
19668TIP3    H280420   1.860   2.523  16.421  0.4281 -0.8136 -0.8293
19669TIP3   OH280421   2.898   6.422  15.619 -0.0592 -0.0867  0.5263
19669TIP3    H180422   2.815   6.406  15.665 -0.4535  1.3075  0.3663
19669TIP3    H280423   2.938   6.336  15.611 -1.0279 -0.6581  1.4992
19670TIP3   OH280424   4.209   4.118   3.503 -0.2938 -0.1537 -0.0258
19670TIP3    H180425   4.244   4.160   3.581 -2.1962  0.2077  0.6846
19670TIP3    H280426   4.151   4.184   3.464  0.4233 -0.4071 -1.6452
19671TIP3   OH280427   2.147   1.018   4.251  0.1466  0.4490 -0.1985
19671TIP3    H180428   2.229   1.048   4.211  0.5957 -0.2913  0.1606
19671TIP3    H280429   2.079   1.057   4.196  0.7296 -0.8903 -1.9855
19672TIP3   OH280430   5.109   6.704   0.150  0.6376 -0.0468  0.2145
19672TIP3    H180431   5.046   6.734   0.216  1.4651 -1.3766  1.6883
19672TIP3    H280432   5.141   6.620   0.183  0.4060 -1.2621 -2.4003
19673TIP3   OH280433   4.353   4.032  15.427 -0.1559  0.4601  0.4024
19673TIP3    H180434   4.281   4.008  15.485  0.2163 -0.7133  0.4079
19673TIP3    H280435   4.384   3.948  15.390  1.1222  0.9381  0.3138
19674TIP3   OH280436   6.717   6.664  13.366 -0.2443 -0.4521 -0.1497
19674TIP3    H180437   6.638   6.697  13.408  0.0842  0.8097 -0.5026
19674TIP3    H280438   6.703   6.569  13.361 -1.7597 -0.2435 -0.2809
19675TIP3   OH280439   2.103   0.541  14.457  0.2713  1.1440 -0.3317
19675TIP3    H180440   2.049   0.521  14.381  1.2015  1.1520 -1.0103
19675TIP3    H280441   2.078   0.630  14.481 -0.2420  1.0330 -0.4343
19676TIP3   OH280442   1.812   6.085  11.536  0.2843  0.5834  0.1593
19676TIP3    H180443   1.885   6.024  11.549 -0.3750 -0.1765  0.4246
19676TIP3    H280444   1.805   6.131  11.619 -0.2730 -0.1894  0.5604
19677TIP3   OH280445   5.822   1.561   5.019  0.1081 -0.0821 -0.4410
19677TIP3    H180446   5.773   1.579   5.099 -1.8216 -0.4403 -1.4839
19677TIP3    H280447   5.796   1.630   4.959  1.9198  0.4681 -0.6332
19678TIP3   OH280448   1.944   0.046   4.687 -0.1794 -0.1814 -0.2786
19678TIP3    H180449   1.911  -0.039   4.657 -0.4549 -0.8471  1.7678
19678TIP3    H280450   2.034   0.049   4.655 -0.4809 -0.7904 -1.2248
19679TIP3   OH280451   4.576   5.251   0.755  0.2922  0.0710  0.4276
19679TIP3    H180452   4.592   5.346   0.758  0.3934  0.2146 -2.2550
19679TIP3    H280453   4.499   5.242   0.698 -0.0058 -1.4526  1.0380
19680TIP3   OH280454   5.761   5.755  16.106  1.0370 -0.1582 -0.4384
19680TIP3    H180455   5.802   5.840  16.091  2.1267 -0.2870  1.4089
19680TIP3    H280456   5.719   5.763  16.192 -1.2029 -0.6663 -1.4087
19681TIP3   OH280457   3.550   1.430   4.942 -0.6107  0.7476 -0.7734
19681TIP3    H180458   3.461   1.397   4.950 -0.4985 -0.0743 -2.3210
19681TIP3    H280459   3.563   1.441   4.847  0.6358  1.6980 -0.5248
19682TIP3   OH280460   6.374   0.209  14.657 -0.2991 -0.5187 -0.2988
19682TIP3    H180461   6.300   0.269  14.650  0.0368  0.0448  0.7764
19682TIP3    H280462   6.432   0.234  14.585 -0.3017  0.2645 -0.0379
19683TIP3   OH280463   4.074   3.038  16.543  0.3264  0.3354  0.2030
19683TIP3    H180464   4.044   3.060  16.454 -0.2125 -2.7019 -0.4536
19683TIP3    H280465   4.107   3.121  16.577 -2.2097  2.3046 -1.6927
19684TIP3   OH280466   5.408   6.739   5.983 -0.1123  0.7832  0.1441
19684TIP3    H180467   5.471   6.787   6.039  0.5780  0.1310 -0.0611
19684TIP3    H280468   5.395   6.656   6.029  0.5299  0.2037 -0.6963
19685TIP3   OH280469   3.055   5.051  15.505  0.1381 -0.1565  0.4104
19685TIP3    H180470   2.971   5.071  15.463  1.4008  1.9998 -1.3277
19685TIP3    H280471   3.111   5.024  15.432  1.9752  2.1640  0.8493
19686TIP3   OH280472   0.950   4.797   4.897 -0.4433  0.2324 -0.6592
19686TIP3    H180473   0.984   4.884   4.880 -2.0547  0.5988 -2.3527
19686TIP3    H280474   1.004   4.739   4.844  1.6831 -0.1240  1.6716
19687TIP3   OH280475   4.453   1.246   4.000 -0.0480  0.2819  0.0081
19687TIP3    H180476   4.411   1.226   4.083  0.2930 -0.0199  0.1143
19687TIP3    H280477   4.543   1.215   4.011  0.0332  0.3570 -0.4255
19688TIP3   OH280478   4.470   3.458   1.818 -0.5059 -0.3366 -0.6720
19688TIP3    H180479   4.475   3.487   1.727  1.2851 -1.4431 -0.9776
19688TIP3    H280480   4.436   3.368   1.813 -1.1448 -0.1335 -0.1652
19689TIP3   OH280481   0.803   1.266  13.461  0.1027 -0.4300  0.0123
19689TIP3    H180482   0.853   1.309  13.531 -0.7490 -0.1367  0.4666
19689TIP3    H280483   0.716   1.306  13.466 -1.6383 -3.9110  2.2096
19690TIP3   OH280484   5.712   0.491   2.798 -0.4021  0.5197  0.0463
19690TIP3    H180485   5.670   0.547   2.733 -3.4537 -0.8733  0.6298
19690TIP3    H280486   5.715   0.405   2.757  0.7369  0.2943  0.5660
19691TIP3   OH280487   2.792   4.885   4.318  0.0351 -0.7152  0.0411
19691TIP3    H180488   2.772   4.972   4.352  2.5165 -0.6353  1.6226
19691TIP3    H280489   2.826   4.901   4.230  0.9162  0.0226  0.4903
19692TIP3   OH280490   1.729   2.492  16.121  0.3771  0.0501 -0.2983
19692TIP3    H180491   1.792   2.421  16.133  0.3682  0.0396 -0.3131
19692TIP3    H280492   1.644   2.450  16.135  0.1894 -0.5077 -2.5624
19693TIP3   OH280493   4.906   6.618   5.337 -0.7144 -0.6125 -0.1448
19693TIP3    H180494   4.819   6.584   5.358 -0.6430 -0.0109  1.2344
19693TIP3    H280495   4.959   6.539   5.322 -1.5200 -0.9797 -1.2375
19694TIP3   OH280496   6.688   5.423  12.791  0.1990 -0.2820  0.1161
19694TIP3    H180497   6.758   5.364  12.819 -0.6982 -1.2987  0.2510
19694TIP3    H280498   6.716   5.454  12.704  1.8310  1.0127  1.0479
19695TIP3   OH280499   3.280   4.294  11.997 -0.2502  0.2595 -0.6866
19695TIP3    H180500   3.307   4.386  12.003  0.0422  0.1341  0.0130
19695TIP3    H280501   3.345   4.254  11.940 -0.2146  0.4284 -0.7656
19696TIP3   OH280502   0.621   2.029   4.456  0.4055  0.1069  0.1589
19696TIP3    H180503   0.668   2.029   4.540 -0.1507 -0.3488  0.4756
19696TIP3    H280504   0.559   1.956   4.463  0.2018  0.2044 -0.5645
19697TIP3   OH280505   0.722   1.935  12.247  0.7370  0.2776  0.2324
19697TIP3    H180506   0.709   2.028  12.268  2.1510  0.8153 -1.1156
19697TIP3    H280507   0.645   1.892  12.284 -0.3736  2.0858  0.1801
19698TIP3   OH280508   5.491   5.831  16.725  0.5447  0.1312  0.2673
19698TIP3    H180509   5.415   5.856  16.778  0.8250 -0.5431  1.0054
19698TIP3    H280510   5.454   5.784  16.650  0.1907  0.4600  0.2338
19699TIP3   OH280511   5.109   0.457  12.124  0.2261 -0.0789 -0.3546
19699TIP3    H180512   5.175   0.523  12.099 -0.4104  0.7055 -0.0279
19699TIP3    H280513   5.146   0.414  12.201 -0.8337  2.3507  1.6508
19700TIP3   OH280514   4.066   1.300   0.969 -0.0981  1.0763  0.3514
19700TIP3    H180515   4.134   1.234   0.986  0.2097  2.0315  3.2555
19700TIP3    H280516   4.114   1.381   0.952 -0.5074  1.1700 -0.4157
19701TIP3   OH280517   6.093   0.240   6.170  0.4678  0.4517  0.4012
19701TIP3    H180518   6.165   0.191   6.209 -0.3102  0.0286  1.3491
19701TIP3    H280519   6.070   0.306   6.236  0.2284  0.8294 -0.0523
19702TIP3   OH280520   1.366   0.082  15.845  0.4169 -0.3640 -0.5310
19702TIP3    H180521   1.276   0.051  15.861  0.7574 -0.7197  0.8674
19702TIP3    H280522   1.405   0.015  15.789  0.4011 -1.2494  0.4912
19703TIP3   OH280523   1.655   4.933   0.606  0.1489 -0.6488 -0.5206
19703TIP3    H180524   1.604   4.909   0.529  1.4052 -2.2560 -0.9106
19703TIP3    H280525   1.697   5.016   0.581 -0.5531 -0.4284 -1.0056
19704TIP3   OH280526   1.880   6.790  16.144  0.5058 -0.2988 -0.1434
19704TIP3    H180527   1.843   6.725  16.084 -2.0418  0.6755  0.2710
19704TIP3    H280528   1.828   6.869  16.130 -0.8230 -0.2278  3.8726
19705TIP3   OH280529   3.272   2.679  15.813  0.1386  0.5671  0.2519
19705TIP3    H180530   3.204   2.728  15.860  0.6823  1.6178 -0.0281
19705TIP3    H280531   3.227   2.645  15.735  0.2125  2.4378 -0.6666
19706TIP3   OH280532   4.368   4.293  14.105  0.2247  0.1767 -0.7297
19706TIP3    H180533   4.394   4.295  14.197 -0.9865  0.8514 -0.3770
19706TIP3    H280534   4.446   4.262  14.059  0.1992 -2.3519  0.7270
19707TIP3   OH280535   3.792   0.522  15.812 -0.2414 -0.1175  0.3291
19707TIP3    H180536   3.726   0.473  15.862 -1.1885 -0.2977 -1.0510
19707TIP3    H280537   3.763   0.613  15.816  0.7173  0.1660  1.6489
19708TIP3   OH280538   1.626   3.575  11.069  0.6538  0.2924 -0.0174
19708TIP3    H180539   1.549   3.611  11.113 -0.6160 -2.5578  0.3525
19708TIP3    H280540   1.697   3.635  11.092 -1.4596  3.2969 -0.7346
19709TIP3   OH280541   1.264   0.431   4.367 -0.1041 -0.0166 -0.2909
19709TIP3    H180542   1.284   0.374   4.441  1.3529  0.9066  0.0723
19709TIP3    H280543   1.264   0.519   4.404 -0.9892  0.3404 -1.0929
19710TIP3   OH280544   3.472   5.602  11.739  0.8995  0.9800 -0.3293
19710TIP3    H180545   3.484   5.632  11.649 -2.0417  1.7119 -0.5800
19710TIP3    H280546   3.539   5.649  11.789  1.3528  2.0181 -1.8490
19711TIP3   OH280547   2.864   3.159  17.017 -0.0715  0.1742 -0.5941
19711TIP3    H180548   2.950   3.152  17.058 -0.1044 -0.7281 -0.6622
19711TIP3    H280549   2.839   3.250  17.030  0.3580  0.1505  0.4973
19712TIP3   OH280550   0.279   6.781  13.643 -0.3056 -0.1543  0.1979
19712TIP3    H180551   0.257   6.710  13.703  1.4935 -0.7384  0.2207
19712TIP3    H280552   0.342   6.834  13.691 -1.0852  1.0728 -0.0908
19713TIP3   OH280553   5.428   5.577  14.769  0.1973  0.2203 -0.4623
19713TIP3    H180554   5.428   5.665  14.732 -0.5281  1.0118  1.3100
19713TIP3    H280555   5.340   5.567  14.806  0.3251 -1.1901 -0.4938
19714TIP3   OH280556   5.121   5.985  14.345  0.2947 -0.0160  0.1786
19714TIP3    H180557   5.095   5.940  14.426 -1.1809 -2.6733 -1.6341
19714TIP3    H280558   5.041   6.025  14.314  0.2315 -1.1485 -1.1984
19715TIP3   OH280559   5.792   4.055  15.235 -0.0062  0.2288  0.1416
19715TIP3    H180560   5.715   3.997  15.230 -1.4553  1.9063  1.8333
19715TIP3    H280561   5.795   4.096  15.149 -0.8142 -0.0864 -0.0547
19716TIP3   OH280562   3.818   0.486  14.755  0.8717  0.4729 -0.4756
19716TIP3    H180563   3.815   0.575  14.721  0.3951 -0.3630 -2.7837
19716TIP3    H280564   3.857   0.434  14.685  0.4248 -1.2821  0.5013
19717TIP3   OH280565   5.570   1.530  15.290 -0.9382 -0.4057  0.2401
19717TIP3    H180566   5.612   1.574  15.216 -0.7024 -0.7740  0.1533
19717TIP3    H280567   5.516   1.598  15.330  1.3915  0.7351  1.6706
19718TIP3   OH280568   1.255   2.077  16.733  0.9083  0.4437 -0.0019
19718TIP3    H180569   1.226   2.168  16.724 -1.1024 -0.1602 -0.2154
19718TIP3    H280570   1.316   2.063  16.661 -0.1699  1.1376 -1.0837
19719TIP3   OH280571   2.575   5.752  12.823  0.2933  0.0946 -0.4098
19719TIP3    H180572   2.564   5.687  12.753 -0.8207 -0.4094  0.2098
19719TIP3    H280573   2.543   5.833  12.785 -4.7108 -0.9781  0.7675
19720TIP3   OH280574   3.776   4.245   5.070 -0.1719  0.1350 -0.1253
19720TIP3    H180575   3.835   4.287   5.007  0.1252  0.4699  0.3779
19720TIP3    H280576   3.770   4.154   5.039  1.8483 -0.3279  0.6663
19721TIP3   OH280577   4.467   1.907  14.847  0.1849 -0.1750  0.5269
19721TIP3    H180578   4.557   1.913  14.881  0.0705 -0.6406  0.9347
19721TIP3    H280579   4.413   1.951  14.913  0.0102 -0.7194  0.7580
19722TIP3   OH280580   0.805   3.270  15.495 -0.2305  0.1199  0.4861
19722TIP3    H180581   0.770   3.280  15.583 -0.2084 -1.8014  0.7545
19722TIP3    H280582   0.746   3.207  15.453  0.0958  0.5751 -0.6819
19723TIP3   OH280583   2.472   2.105   2.217  0.1423  0.0339  0.5048
19723TIP3    H180584   2.405   2.068   2.161 -1.2524  0.5194  1.8031
19723TIP3    H280585   2.469   2.052   2.296  0.7079  0.6003  0.9109
19724TIP3   OH280586   2.265   4.045  15.143 -0.5074 -0.0234 -0.3076
19724TIP3    H180587   2.235   4.102  15.072 -1.4566 -1.3619 -1.0332
19724TIP3    H280588   2.308   3.972  15.098  0.8698  0.2016  0.6067
19725TIP3   OH280589   2.446   5.796  16.703 -0.2515  0.2552 -0.1702
19725TIP3    H180590   2.415   5.857  16.769  0.8424  0.8432 -0.1799
19725TIP3    H280591   2.455   5.849  16.624 -1.7267 -0.4755 -0.8726
19726TIP3   OH280592   2.650   1.217  12.577 -0.5951  0.3123  0.2624
19726TIP3    H180593   2.653   1.240  12.670 -0.0944 -0.4784  0.4503
19726TIP3    H280594   2.638   1.301  12.533 -2.4463  0.5270  1.1052
19727TIP3   OH280595   5.615   1.039   0.161  0.0077 -0.4249 -0.9265
19727TIP3    H180596   5.665   0.999   0.233  0.9982 -1.4954 -2.1498
19727TIP3    H280597   5.577   0.964   0.114  1.1844  0.0633 -2.7718
19728TIP3   OH280598   5.436   2.018   2.775  0.0894  0.4981  0.2511
19728TIP3    H180599   5.423   2.112   2.784  0.4349  0.7763 -1.7295
19728TIP3    H280600   5.391   1.980   2.851 -1.4260  2.1424  0.2420
19729TIP3   OH280601   4.044   5.353   3.015 -0.3407 -0.2546 -0.1341
19729TIP3    H180602   3.956   5.318   3.026 -0.4828 -0.0615 -0.6367
19729TIP3    H280603   4.092   5.322   3.092 -0.7896 -0.5329  0.0360
19730TIP3   OH280604   0.349   3.873   3.244 -0.8162 -0.3715 -0.5023
19730TIP3    H180605   0.283   3.940   3.263 -0.0606  0.1044  0.5349
19730TIP3    H280606   0.398   3.863   3.326  0.0039 -1.1668 -1.0642
19731TIP3   OH280607   1.310   4.450  13.928  0.2513 -0.0911  0.6045
19731TIP3    H180608   1.357   4.378  13.885  0.1519  0.0897  0.1943
19731TIP3    H280609   1.369   4.525  13.920  0.0130  0.0666  0.3399
19732TIP3   OH280610   0.103   5.579  11.982  0.5959  0.4337  0.1640
19732TIP3    H180611   0.099   5.536  12.068  0.2779  2.4898  1.2494
19732TIP3    H280612   0.092   5.672  12.002 -3.2670  0.7538 -2.4010
19733TIP3   OH280613   0.993   5.454   2.206  0.3977 -0.1272  0.5856
19733TIP3    H180614   1.087   5.467   2.191  0.4512 -0.5472  0.5259
19733TIP3    H280615   0.990   5.385   2.273  0.1359  0.1694  0.8784
19734TIP3   OH280616   5.182   5.013   1.898 -0.1232 -0.2331  0.4199
19734TIP3    H180617   5.223   5.099   1.885 -0.7153  0.6761  3.5450
19734TIP3    H280618   5.088   5.031   1.901 -0.4929 -1.5113 -1.7124
19735TIP3   OH280619   0.600   0.442   6.010 -0.0222 -0.0285 -0.4260
19735TIP3    H180620   0.647   0.365   5.980  0.4595  0.7086 -1.6190
19735TIP3    H280621   0.578   0.423   6.102 -1.6988 -2.4191 -1.2354
19736TIP3   OH280622   1.746   6.753  14.277  0.0409  0.2657 -0.4253
19736TIP3    H180623   1.811   6.773  14.210  0.3036 -0.2671 -0.3335
19736TIP3    H280624   1.678   6.704  14.231  1.7487 -3.0454  0.2403
19737TIP3   OH280625   1.007   2.843  11.899 -0.1622  0.0341 -0.4507
19737TIP3    H180626   0.979   2.930  11.869 -0.0789  0.2681  0.1265
19737TIP3    H280627   1.093   2.830  11.859  0.2246  0.6090  0.1667
19738TIP3   OH280628   1.598   3.532   3.811 -0.0055 -0.0712 -0.2952
19738TIP3    H180629   1.562   3.569   3.892 -0.4268  0.0813 -0.5511
19738TIP3    H280630   1.547   3.572   3.741  0.0478 -0.5502 -0.6142
19739TIP3   OH280631   2.285   3.484  16.796  0.1940  0.6208 -0.5961
19739TIP3    H180632   2.215   3.549  16.802  0.2876  0.5569  2.0774
19739TIP3    H280633   2.285   3.458  16.704 -0.9367  3.1786 -1.4164
19740TIP3   OH280634   0.389   5.011  11.517 -0.3138  0.3405 -0.4143
19740TIP3    H180635   0.329   5.030  11.588 -0.4475  0.8606 -0.6623
19740TIP3    H280636   0.332   4.984  11.444 -0.1636 -0.4488 -0.2500
19741TIP3   OH280637   4.426   1.370   3.360  0.2432 -0.6687  0.2224
19741TIP3    H180638   4.383   1.292   3.396 -0.4100 -0.7533 -0.7176
19741TIP3    H280639   4.498   1.335   3.307  1.1957 -0.5438  1.3789
19742TIP3   OH280640   2.145   4.795   0.907 -0.3868  0.1121  0.0131
19742TIP3    H180641   2.178   4.799   0.997 -2.5347  0.4077  0.8483
19742TIP3    H280642   2.183   4.870   0.863 -0.2951  0.6803  1.0444
19743TIP3   OH280643   5.122   0.100   0.733 -0.2094  0.6839 -0.2951
19743TIP3    H180644   5.157   0.081   0.820  0.6289 -0.5588 -0.8878
19743TIP3    H280645   5.186   0.160   0.694 -0.6162  1.2899 -0.0500
19744TIP3   OH280646   4.965   0.123   4.049  0.1210 -0.3211  0.2811
19744TIP3    H180647   4.938   0.211   4.024  1.2093 -0.0205  0.0799
19744TIP3    H280648   5.057   0.133   4.076  0.4400 -1.4820 -0.2892
19745TIP3   OH280649   4.639   4.455  10.839  0.1526  0.0109 -0.4815
19745TIP3    H180650   4.604   4.367  10.854 -1.5063  0.5682 -0.8620
19745TIP3    H280651   4.724   4.440  10.796 -0.5176 -1.4018 -1.3980
19746TIP3   OH280652   3.285   0.498  10.805 -0.0582  0.2204  0.4456
19746TIP3    H180653   3.347   0.425  10.813  0.2854  0.5397  0.7041
19746TIP3    H280654   3.210   0.460  10.759  0.1351 -0.2866  0.5392
19747TIP3   OH280655   3.677   0.068   5.483 -0.1564  0.3356  0.6720
19747TIP3    H180656   3.701   0.127   5.555  0.0571  0.7597  0.2599
19747TIP3    H280657   3.591   0.035   5.507  0.1478  0.0342  1.3973
19748TIP3   OH280658   1.946   1.691  16.218  0.1245 -0.4026  0.0104
19748TIP3    H180659   2.031   1.691  16.263  1.0640  1.6118 -1.5980
19748TIP3    H280660   1.959   1.634  16.142 -0.2547 -0.8055  0.2472
19749TIP3   OH280661   3.493   5.040  15.824 -0.2746 -0.5047 -0.1043
19749TIP3    H180662   3.421   4.978  15.833 -0.1027 -0.4422  2.6966
19749TIP3    H280663   3.458   5.122  15.858  0.6508 -0.0669 -0.1644
19750TIP3   OH280664   6.207   5.821  13.758  0.1135  0.3716  0.8655
19750TIP3    H180665   6.289   5.812  13.709  0.6561  0.4805  1.7317
19750TIP3    H280666   6.143   5.773  13.706  0.8248 -0.0945  0.3984
19751TIP3   OH280667   5.960   2.495  12.939 -0.1119 -0.0854 -0.5914
19751TIP3    H180668   5.877   2.542  12.928 -1.2163 -1.4052  1.4895
19751TIP3    H280669   5.962   2.434  12.864 -2.3975 -1.8549  0.6492
19752TIP3   OH280670   4.693   0.996  12.791  0.6934  0.2181 -0.1276
19752TIP3    H180671   4.635   0.995  12.867 -0.7167  0.7565 -1.1473
19752TIP3    H280672   4.689   0.907  12.756 -0.2275  0.4772 -0.6980
19753TIP3   OH280673   5.042   0.836  14.469  0.2477 -0.1003  0.0304
19753TIP3    H180674   5.060   0.814  14.560  0.3477  1.2954  0.3770
19753TIP3    H280675   4.962   0.788  14.448 -0.9240  1.0979  1.5011
19754TIP3   OH280676   0.022   0.851   0.176 -0.2246  0.2086 -0.0463
19754TIP3    H180677   0.089   0.784   0.166 -1.9544 -1.2517 -3.4559
19754TIP3    H280678   0.057   0.927   0.130  0.7003  0.9005  1.7079
19755TIP3   OH280679   0.866   4.901   3.326 -0.3280 -0.0235  0.3138
19755TIP3    H180680   0.880   4.883   3.419  1.9304  0.3205  0.1007
19755TIP3    H280681   0.825   4.988   3.325  1.0515  0.6853  1.0057
19756TIP3   OH280682   2.504   3.950  14.701  0.4771  0.2405  0.4776
19756TIP3    H180683   2.444   3.877  14.689  0.0117  0.8763 -1.3646
19756TIP3    H280684   2.455   4.027  14.671  1.8557  0.9333 -0.0873
19757TIP3   OH280685   3.721   5.485  17.132 -0.1600 -0.3364  0.1082
19757TIP3    H180686   3.654   5.549  17.107  0.2185  0.0535  0.0958
19757TIP3    H280687   3.763   5.461  17.049  1.6982  1.6184  0.3900
19758TIP3   OH280688   5.333   5.107   0.035 -0.0706 -0.3831  0.4000
19758TIP3    H180689   5.331   5.011   0.033 -0.0255 -0.3974  0.9048
19758TIP3    H280690   5.403   5.128   0.097  0.5997 -0.0186 -0.4637
19759TIP3   OH280691   6.350   1.855   0.820  0.0480 -0.0044 -0.0960
19759TIP3    H180692   6.363   1.937   0.772 -1.2862 -0.2769 -0.9624
19759TIP3    H280693   6.384   1.874   0.908 -0.9361  1.7448 -0.0447
19760TIP3   OH280694   2.497   3.438  12.585 -0.2623  0.2155  0.5004
19760TIP3    H180695   2.534   3.390  12.659  0.3501 -0.1852 -0.0589
19760TIP3    H280696   2.524   3.529  12.600  2.1863 -0.2490 -0.5940
19761TIP3   OH280697   6.720   0.996   2.172 -0.2478 -0.0069  0.0835
19761TIP3    H180698   6.640   0.988   2.120 -0.9229  0.6254  0.9968
19761TIP3    H280699   6.737   1.090   2.175  0.6208 -0.1357 -0.2007
19762TIP3   OH280700   0.844   5.217   0.496 -0.0583  0.1967 -0.3435
19762TIP3    H180701   0.801   5.297   0.466 -0.1708 -0.6521 -2.6525
19762TIP3    H280702   0.928   5.216   0.450 -0.1695 -1.1249 -0.5573
19763TIP3   OH280703   4.719   1.242  15.433  0.1245  0.4929  0.3370
19763TIP3    H180704   4.640   1.206  15.473  0.2808  1.7609  1.8987
19763TIP3    H280705   4.695   1.332  15.410 -0.2643 -0.4123 -3.4613
19764TIP3   OH280706   6.480   2.836   1.532  0.4205 -0.2949  0.7625
19764TIP3    H180707   6.521   2.778   1.595 -2.0870 -0.3621  2.4886
19764TIP3    H280708   6.444   2.778   1.465 -2.1603 -0.8957  2.5262
19765TIP3   OH280709   4.880   6.309   0.504 -0.2357 -0.1254  0.7538
19765TIP3    H180710   4.940   6.254   0.455 -0.1538  0.3366  0.3227
19765TIP3    H280711   4.793   6.286   0.469 -0.1735  0.2350  0.3530
19766TIP3   OH280712   5.179   0.838   0.876 -0.1330 -0.0061  0.5252
19766TIP3    H180713   5.133   0.914   0.912  0.0765 -0.2418  1.2980
19766TIP3    H280714   5.149   0.764   0.930 -0.4507 -0.4998 -0.3121
19767TIP3   OH280715   1.659   1.534  15.288  0.3382  0.1518  0.0694
19767TIP3    H180716   1.630   1.533  15.379  0.8537  0.0392  0.2389
19767TIP3    H280717   1.600   1.475  15.242 -1.5202  2.0964 -0.1742
19768TIP3   OH280718   6.731   6.728  13.908  0.3516  0.7580  0.3750
19768TIP3    H180719   6.722   6.727  14.004  0.7895 -1.8140  0.4688
19768TIP3    H280720   6.642   6.745  13.876 -0.0029  0.5940  1.2434
19769TIP3   OH280721   4.743   1.273   4.119 -0.2459  0.2784 -0.4239
19769TIP3    H180722   4.833   1.282   4.088  0.3216  0.1968  1.0954
19769TIP3    H280723   4.699   1.352   4.088  0.8941  1.3364  0.5266
19770TIP3   OH280724   2.344   0.808   2.360 -0.0026 -0.2636  0.2189
19770TIP3    H180725   2.306   0.874   2.302 -1.3237 -1.3174 -0.1781
19770TIP3    H280726   2.381   0.858   2.433  1.6106  1.0906 -1.4475
19771TIP3   OH280727   2.512   0.377   2.182  0.0784 -0.1191 -0.0186
19771TIP3    H180728   2.578   0.399   2.248 -1.6420  0.2986  1.6711
19771TIP3    H280729   2.490   0.285   2.201 -0.2773 -0.0606 -0.1403
19772TIP3   OH280730   1.675   1.246  15.544 -0.1576 -0.0532 -0.0451
19772TIP3    H180731   1.600   1.243  15.602  0.2282  1.7355  0.6204
19772TIP3    H280732   1.649   1.194  15.468 -1.3495 -0.9486  0.9280
19773TIP3   OH280733   2.909   0.571   2.722 -0.3746 -0.0831  0.5784
19773TIP3    H180734   2.952   0.646   2.763  1.7220 -1.2462  0.6586
19773TIP3    H280735   2.887   0.513   2.795 -1.3187  0.1029  0.4551
19774TIP3   OH280736   3.404   6.289   2.568  0.5577  0.0964  0.5760
19774TIP3    H180737   3.493   6.256   2.559  0.3156 -0.3528 -0.2635
19774TIP3    H280738   3.362   6.271   2.483 -0.4467 -0.0573  1.0849
19775TIP3   OH280739   2.807   3.324   4.976  0.7099  0.3061 -0.4868
19775TIP3    H180740   2.759   3.330   4.893  0.3558  2.9556 -0.1725
19775TIP3    H280741   2.831   3.231   4.983 -3.3677 -1.0255 -1.2363
19776TIP3   OH280742   1.589   2.103  10.798  0.4846  0.1909 -0.6944
19776TIP3    H180743   1.640   2.156  10.860  0.0368  0.7787 -0.8170
19776TIP3    H280744   1.560   2.165  10.731 -1.9510  0.2948  0.3436
19777TIP3   OH280745   1.863   2.149   2.712 -0.4053 -0.3198 -0.1168
19777TIP3    H180746   1.846   2.089   2.784 -1.2519  1.5860  1.3535
19777TIP3    H280747   1.825   2.106   2.635 -0.9370 -1.6638  0.8754
19778TIP3   OH280748   5.085   5.594  12.339  0.6815 -0.2156 -0.0524
19778TIP3    H180749   5.130   5.591  12.255 -2.0378 -1.7674 -1.6022
19778TIP3    H280750   5.145   5.551  12.400  2.1757 -0.2175 -1.4503
19779TIP3   OH280751   5.390   0.783   0.728  0.1496  0.2025  0.1806
19779TIP3    H180752   5.327   0.814   0.793 -0.3082  1.1589 -0.6916
19779TIP3    H280753   5.337   0.739   0.662  0.7335 -2.0449  1.0984
19780TIP3   OH280754   0.132   0.523   3.266  0.0948 -0.0781  0.0108
19780TIP3    H180755   0.081   0.603   3.281 -0.0434 -0.5226  2.3482
19780TIP3    H280756   0.092   0.482   3.190 -0.9181  1.2133 -0.1910
19781TIP3   OH280757   6.572   1.661   5.172 -0.8360 -0.3926  0.0915
19781TIP3    H180758   6.580   1.618   5.087 -2.6251  0.2323 -0.4522
19781TIP3    H280759   6.523   1.741   5.153 -0.7728  0.0388  1.6362
19782TIP3   OH280760   0.760   4.277   4.052 -0.2612  0.5898  0.4956
19782TIP3    H180761   0.721   4.273   3.964 -1.6667 -1.5119  1.1311
19782TIP3    H280762   0.833   4.338   4.043  0.2754 -0.3122 -2.3930
19783TIP3   OH280763   5.440   2.213   4.721 -0.2143  0.6592  0.2830
19783TIP3    H180764   5.531   2.207   4.690 -0.2937  1.3431 -0.1064
19783TIP3    H280765   5.390   2.240   4.643 -0.7068  0.5508  0.5601
19784TIP3   OH280766   5.808   2.752   5.728  0.3845  0.2885  0.4898
19784TIP3    H180767   5.852   2.829   5.765  0.5849  0.0950  0.6564
19784TIP3    H280768   5.878   2.704   5.684  0.0708  0.7375 -0.5172
19785TIP3   OH280769   6.118   1.552   0.237 -0.2089 -0.4311 -0.3159
19785TIP3    H180770   6.198   1.604   0.244 -1.3605  1.1801  3.2182
19785TIP3    H280771   6.065   1.579   0.312 -3.8906 -1.8118 -2.1591
19786TIP3   OH280772   0.700   6.102  12.355  0.3959 -0.2131  0.0250
19786TIP3    H180773   0.749   6.067  12.430  0.4136  0.3118  0.2638
19786TIP3    H280774   0.637   6.162  12.394  2.7776  2.9305 -0.5465
19787TIP3   OH280775   3.417   4.873   4.106 -0.7167  0.1167  0.6204
19787TIP3    H180776   3.342   4.845   4.159 -0.3647 -0.6734  0.7085
19787TIP3    H280777   3.406   4.827   4.023 -0.5677  0.3485  0.4720
19788TIP3   OH280778   6.125   2.737  14.402  0.1959 -0.3531 -0.1361
19788TIP3    H180779   6.144   2.664  14.461 -1.1460  0.9436  2.0238
19788TIP3    H280780   6.035   2.721  14.373 -0.2909  0.6736  0.7607
19789TIP3   OH280781   4.570   1.284   5.123  0.2457 -0.4740 -0.0703
19789TIP3    H180782   4.542   1.195   5.104 -1.9725 -0.1675  1.4858
19789TIP3    H280783   4.613   1.279   5.208 -2.5967  0.3277  1.5198
19790TIP3   OH280784   0.423   6.004  11.117  0.0697 -0.5041 -0.3991
19790TIP3    H180785   0.450   5.913  11.130 -0.2648 -0.2801  2.4862
19790TIP3    H280786   0.490   6.055  11.163 -0.4907  0.6307 -0.8110
19791TIP3   OH280787   1.985   4.845  16.177 -0.3082 -0.4049  0.1015
19791TIP3    H180788   2.004   4.925  16.127 -2.1288 -0.6618 -1.0721
19791TIP3    H280789   1.912   4.869  16.235 -0.4974 -1.0606  0.1463
19792TIP3   OH280790   3.955   0.998   4.702 -0.1687  0.0666 -0.7971
19792TIP3    H180791   3.879   0.973   4.650  0.5264 -2.3998 -0.7451
19792TIP3    H280792   4.028   0.993   4.640  0.0652  2.0053 -0.7433
19793TIP3   OH280793   1.865   4.282  14.851 -0.3782 -0.1687 -0.1939
19793TIP3    H180794   1.923   4.356  14.834  0.2227 -0.5742  0.0283
19793TIP3    H280795   1.836   4.254  14.765 -0.4079  0.1720 -0.2938
19794TIP3   OH280796   6.644   4.554  14.389  0.0910 -0.0272 -0.3840
19794TIP3    H180797   6.563   4.516  14.424  0.6873  0.0153  1.0941
19794TIP3    H280798   6.626   4.567  14.296 -1.0223 -1.5756 -0.4224
19795TIP3   OH280799   1.218   4.724   4.431 -0.4103 -0.4326 -0.3815
19795TIP3    H180800   1.263   4.651   4.389 -0.6740 -0.8048 -0.0217
19795TIP3    H280801   1.157   4.756   4.364  0.5955  0.2851 -0.9902
19796TIP3   OH280802   1.571   4.843   4.924  0.3982 -0.4930  0.3642
19796TIP3    H180803   1.594   4.914   4.863  0.0871 -0.5311  0.2041
19796TIP3    H280804   1.656   4.805   4.949  0.4750 -1.1718 -0.8743
19797TIP3   OH280805   2.926   0.841  14.375 -0.5980 -0.4645 -0.4980
19797TIP3    H180806   2.893   0.756  14.406 -1.5165 -0.0757 -0.3826
19797TIP3    H280807   2.995   0.864  14.437 -1.4662 -0.3608  0.4508
19798TIP3   OH280808   5.884   4.004   2.791 -0.2859  0.2680 -0.7654
19798TIP3    H180809   5.916   3.936   2.852 -0.9923  0.7060  0.1226
19798TIP3    H280810   5.873   3.958   2.708  0.1534 -0.4856 -0.4217
19799TIP3   OH280811   2.327   1.852  13.680 -0.0971  0.0084 -0.4664
19799TIP3    H180812   2.255   1.903  13.644  0.3603 -0.4214 -2.1152
19799TIP3    H280813   2.290   1.764  13.691 -0.2936  0.1893  0.3114
19800TIP3   OH280814   5.936   3.267  11.412 -0.1259 -0.4680  0.3255
19800TIP3    H180815   5.892   3.187  11.443 -0.9531 -0.3716 -0.5410
19800TIP3    H280816   5.864   3.321  11.378  0.7173 -0.5081 -1.6017
19801TIP3   OH280817   5.052   0.394  14.787  0.2649 -0.6018 -0.5094
19801TIP3    H180818   5.099   0.393  14.870  0.6589  0.6144 -0.6920
19801TIP3    H280819   5.116   0.361  14.723  0.6147  0.3007 -0.6312
19802TIP3   OH280820   0.200   5.034  13.905  0.2034  0.4642  0.2261
19802TIP3    H180821   0.148   5.090  13.963 -0.9017 -0.6244  0.3330
19802TIP3    H280822   0.225   4.959  13.960 -1.0389 -0.6877 -0.7092
19803TIP3   OH280823   1.034   2.867  13.940  0.4807  0.2377  0.4467
19803TIP3    H180824   1.127   2.863  13.918  0.1629 -0.1644 -0.8878
19803TIP3    H280825   0.992   2.805  13.880 -0.8942  1.8027 -0.2666
19804TIP3   OH280826   0.003   2.002   3.274  0.0383 -1.2734  0.0990
19804TIP3    H180827  -0.091   1.988   3.272 -0.2517  0.4428 -2.1749
19804TIP3    H280828   0.040   1.919   3.304 -2.1502 -2.0922  0.6560
19805TIP3   OH280829   4.731   1.711  14.351  0.0894  0.1914 -0.1136
19805TIP3    H180830   4.788   1.658  14.296 -1.2239 -1.0198 -0.3446
19805TIP3    H280831   4.694   1.650  14.414  0.1108  1.2145  0.9334
19806TIP3   OH280832   5.217   1.671  11.551  0.5549  0.0644  0.2459
19806TIP3    H180833   5.203   1.703  11.462  1.0835  1.5021  0.6582
19806TIP3    H280834   5.131   1.677  11.593  0.3673 -0.3412 -0.0790
19807TIP3   OH280835   3.136   1.339  11.823 -0.3858  0.3208 -0.3082
19807TIP3    H180836   3.231   1.347  11.829 -0.3768 -0.1939  0.3111
19807TIP3    H280837   3.107   1.422  11.784  0.3180  0.4502 -0.5640
19808TIP3   OH280838   0.150   6.730  16.673 -0.1668 -0.0121  0.3393
19808TIP3    H180839   0.244   6.712  16.684  0.4786  1.8888 -1.3167
19808TIP3    H280840   0.114   6.649  16.637  0.7600 -0.8944  1.3397
19809TIP3   OH280841   5.539   0.673  16.894 -0.8370  0.0374  0.2202
19809TIP3    H180842   5.556   0.713  16.980  1.2535 -2.0179  0.8658
19809TIP3    H280843   5.549   0.579  16.909 -2.7404 -0.5742 -1.8336
19810TIP3   OH280844   5.491   5.937  11.526  0.4832  0.3706 -0.0673
19810TIP3    H180845   5.554   5.907  11.461  1.5032 -0.1472  1.1159
19810TIP3    H280846   5.442   5.858  11.551  1.5854  0.1013  1.3525
19811TIP3   OH280847   1.486   6.001   3.437 -0.6932  0.0968 -0.3632
19811TIP3    H180848   1.447   5.967   3.357  1.2072  1.1143 -1.8155
19811TIP3    H280849   1.474   6.096   3.430 -0.1429  0.2258  0.3597
19812TIP3   OH280850   4.286   5.620  16.686 -0.7867  0.2002 -0.3413
19812TIP3    H180851   4.286   5.693  16.624 -1.6767 -0.8758 -1.6459
19812TIP3    H280852   4.202   5.628  16.731  0.3040  1.6512  1.6444
19813TIP3   OH280853   5.675   1.235  11.659 -0.2161 -0.3759 -0.6885
19813TIP3    H180854   5.610   1.305  11.668  0.6709  0.3611  0.2580
19813TIP3    H280855   5.745   1.274  11.607  0.7826 -0.1652  0.7686
19814TIP3   OH280856   6.646   4.780  13.662  0.0107 -0.0738 -0.3505
19814TIP3    H180857   6.639   4.758  13.569 -0.3383 -0.9305 -0.1257
19814TIP3    H280858   6.578   4.846  13.676  0.3131  0.3374 -0.7785
19815TIP3   OH280859   2.114   2.799   4.724  0.1975  0.4635  0.5239
19815TIP3    H180860   2.122   2.704   4.712  0.6697  0.2575  2.2050
19815TIP3    H280861   2.020   2.814   4.725  0.0484 -0.3168  2.2403
19816TIP3   OH280862   2.295   5.918   4.709  0.3862  0.8634  0.4209
19816TIP3    H180863   2.376   5.968   4.697  0.3642  1.0338  0.9872
19816TIP3    H280864   2.234   5.958   4.647  1.0974 -0.1063 -0.9673
19817TIP3   OH280865   3.473   5.951   0.063  0.4159 -0.7666  0.1299
19817TIP3    H180866   3.399   5.949   0.003  2.5220 -3.9801 -2.6929
19817TIP3    H280867   3.461   5.874   0.119 -0.0261  0.6085  2.0375
19818TIP3   OH280868   3.357   0.333   0.022 -0.1585  0.4051 -0.3748
19818TIP3    H180869   3.384   0.244   0.044 -0.2942  0.9218  2.3013
19818TIP3    H280870   3.437   0.377  -0.005  0.4688  0.1511  0.9866
19819TIP3   OH280871   3.520   6.270   5.482  0.5196 -0.3959  0.3568
19819TIP3    H180872   3.577   6.319   5.542  1.3430 -1.8287  0.7813
19819TIP3    H280873   3.520   6.321   5.401  0.5009  0.8481  1.1196
19820TIP3   OH280874   4.294   1.340   0.633  0.7714  0.8842  0.2465
19820TIP3    H180875   4.279   1.407   0.700  1.9763 -0.5771  2.0632
19820TIP3    H280876   4.232   1.270   0.654 -1.3765  1.8218 -2.3939
19821TIP3   OH280877   5.619   3.159   1.191 -0.6281 -0.5034  0.2399
19821TIP3    H180878   5.642   3.216   1.117 -0.2697 -0.6939  0.2015
19821TIP3    H280879   5.688   3.175   1.255 -0.3636 -1.1117  0.1093
19822TIP3   OH280880   6.225   4.234   3.756  0.4439 -0.6174 -0.1071
19822TIP3    H180881   6.208   4.304   3.819  3.1076 -0.4354  0.5372
19822TIP3    H280882   6.233   4.279   3.672 -1.6521 -0.6855 -0.4014
19823TIP3   OH280883   4.180   5.387  15.360 -0.1319  0.0344 -0.4253
19823TIP3    H180884   4.121   5.404  15.287 -0.8151  1.4687  0.4273
19823TIP3    H280885   4.138   5.429  15.435  2.0889  1.3832  0.1594
19824TIP3   OH280886   4.535   3.757   0.210  0.1443  0.0594 -0.1986
19824TIP3    H180887   4.446   3.788   0.223 -0.4990 -2.0045  0.7719
19824TIP3    H280888   4.524   3.669   0.174  1.7372 -0.7561  1.1863
19825TIP3   OH280889   1.088   5.851   6.152  0.7254 -0.1980  0.7581
19825TIP3    H180890   1.132   5.936   6.154 -0.0113  0.2303 -0.1967
19825TIP3    H280891   1.018   5.862   6.087 -0.2439 -1.1155  1.6190
19826TIP3   OH280892   5.010   1.592   0.582 -0.2513  0.1154 -0.2480
19826TIP3    H180893   5.006   1.523   0.516  0.5987  0.0458 -0.2434
19826TIP3    H280894   4.999   1.673   0.533 -0.3435  0.0257 -0.3756
19827TIP3   OH280895   0.313   5.524  12.483  0.0577 -0.3733 -0.1544
19827TIP3    H180896   0.355   5.528  12.397 -0.7215  0.9998 -0.4936
19827TIP3    H280897   0.283   5.434  12.491 -0.1081 -0.4407 -1.4457
19828TIP3   OH280898   3.996   6.448  13.281 -0.2021 -0.0460 -0.3157
19828TIP3    H180899   3.938   6.462  13.356 -0.2075  1.1425 -0.5197
19828TIP3    H280900   3.989   6.354  13.262 -0.7435 -0.2322  0.7177
19829TIP3   OH280901   4.994   1.051   2.127 -0.2627 -0.6949  0.5081
19829TIP3    H180902   5.055   0.992   2.172  0.5084 -0.8755 -0.7396
19829TIP3    H280903   4.989   1.018   2.038  0.6224  1.4176 -0.3988
19830TIP3   OH280904   4.170   0.276  16.069  0.0398  0.1212  0.1603
19830TIP3    H180905   4.260   0.297  16.042 -0.0316 -0.6780 -0.7769
19830TIP3    H280906   4.180   0.201  16.127  0.0010  0.2381  0.3181
19831TIP3   OH280907   0.208   5.275   5.865  0.2875  0.0214  0.3581
19831TIP3    H180908   0.227   5.363   5.897 -0.5073  0.0394  0.8133
19831TIP3    H280909   0.118   5.259   5.892 -0.6487  0.2459 -2.3601
19832TIP3   OH280910   4.157   0.249   3.638  0.4810 -0.4067  0.0306
19832TIP3    H180911   4.229   0.189   3.620 -0.0382 -1.0860  0.1622
19832TIP3    H280912   4.119   0.216   3.719 -0.3081 -0.3773 -0.3223
19833TIP3   OH280913   6.072   2.471   0.676  0.5834  0.5409  0.4269
19833TIP3    H180914   6.072   2.413   0.600 -0.9504 -0.5288  1.2022
19833TIP3    H280915   6.063   2.412   0.752  2.6003  1.5312  1.5128
19834TIP3   OH280916   6.456   4.156  11.867  0.3444 -0.1350  0.5053
19834TIP3    H180917   6.512   4.080  11.846 -1.0459 -1.6097  1.8904
19834TIP3    H280918   6.475   4.175  11.959 -1.4482 -0.7499  1.0464
19835TIP3   OH280919   6.414   0.219  15.671  0.0705  0.2937  0.3025
19835TIP3    H180920   6.492   0.179  15.633 -0.0285 -0.7877  1.1527
19835TIP3    H280921   6.342   0.163  15.641  0.0604 -1.0216  2.5296
19836TIP3   OH280922   6.752   6.532   5.235 -0.1631  0.0520  0.3246
19836TIP3    H180923   6.658   6.538   5.220  0.2090  1.0768 -2.0878
19836TIP3    H280924   6.792   6.568   5.156  2.2774  0.1352  1.4731
19837TIP3   OH280925   5.173   6.287  13.311  0.1563  0.2786 -0.0260
19837TIP3    H180926   5.122   6.302  13.231 -0.3615  0.9931  0.4286
19837TIP3    H280927   5.107   6.270  13.378  0.5021  1.1694  0.5582
19838TIP3   OH280928   1.854   6.243   3.434 -0.4425 -0.1370 -0.3426
19838TIP3    H180929   1.783   6.240   3.498 -0.4881  0.0326 -0.3832
19838TIP3    H280930   1.822   6.189   3.361 -1.0593  0.9219 -0.8793
19839TIP3   OH280931   6.565   0.638  17.111  0.3288 -0.4422 -0.6827
19839TIP3    H180932   6.553   0.577  17.184  0.8490 -0.6818 -0.7928
19839TIP3    H280933   6.478   0.648  17.073  0.0687 -0.3865 -0.0871
19840TIP3   OH280934   6.569   1.647  14.328 -0.4003  0.3181  0.1242
19840TIP3    H180935   6.522   1.636  14.244 -0.2036  0.4585 -0.0043
19840TIP3    H280936   6.570   1.559  14.366 -0.1666  0.1804 -0.1945
19841TIP3   OH280937   0.087   5.419  11.203 -0.2033 -0.3020  0.0896
19841TIP3    H180938   0.009   5.368  11.182 -0.8217  0.5901  0.2156
19841TIP3    H280939   0.141   5.360  11.255 -1.1413 -0.6572  0.6687
19842TIP3   OH280940   2.096   3.386  12.814 -0.7892 -0.1988 -0.0128
19842TIP3    H180941   2.175   3.418  12.858 -0.9535 -2.6115  2.3556
19842TIP3    H280942   2.129   3.338  12.738 -0.1996  0.8434 -0.4426
19843TIP3   OH280943   6.039   0.473   1.161  0.5041  0.8855  0.8421
19843TIP3    H180944   6.017   0.441   1.074 -0.3522  1.0767  0.9791
19843TIP3    H280945   6.094   0.404   1.199  3.0300  1.9144 -0.7573
19844TIP3   OH280946   2.330   0.272   0.596 -0.2357  0.0347 -0.3119
19844TIP3    H180947   2.258   0.286   0.534  0.4016  0.9162 -0.8874
19844TIP3    H280948   2.335   0.177   0.606 -1.3924 -0.0521 -0.3501
19845TIP3   OH280949   4.474   2.126  12.731 -0.1904 -0.3228  0.3948
19845TIP3    H180950   4.551   2.120  12.674  0.1739 -0.1296  0.8675
19845TIP3    H280951   4.505   2.172  12.809 -0.7334 -0.4355  0.6791
19846TIP3   OH280952   1.259   5.940   1.071 -0.1850  0.1616  0.0292
19846TIP3    H180953   1.190   5.985   1.119 -1.7058 -0.3799 -1.5152
19846TIP3    H280954   1.340   5.963   1.116 -1.2604  1.7180  1.2529
19847TIP3   OH280955   1.163   3.624   5.765 -0.3539  0.1201 -0.5511
19847TIP3    H180956   1.155   3.634   5.670 -2.2475  1.5348 -0.3049
19847TIP3    H280957   1.208   3.541   5.777  0.4052  0.1666 -2.6869
19848TIP3   OH280958   1.528   2.936   1.778 -0.9982 -0.0352  0.0896
19848TIP3    H180959   1.577   2.910   1.856 -3.5273  1.0401  2.1780
19848TIP3    H280960   1.582   3.004   1.737  1.5402 -2.3002 -0.5968
19849TIP3   OH280961   1.935   2.872   2.418 -0.1686  0.4235  0.3966
19849TIP3    H180962   1.968   2.821   2.344 -1.9623 -0.8477  0.4189
19849TIP3    H280963   2.012   2.920   2.449  2.2665 -3.7163  1.6041
19850TIP3   OH280964   4.990   3.741  10.951 -0.0853 -0.1466 -1.0008
19850TIP3    H180965   5.066   3.788  10.917  0.0037 -1.7479 -3.3270
19850TIP3    H280966   5.020   3.703  11.034  0.8335  1.2289 -0.6786
19851TIP3   OH280967   1.133   0.758  12.776 -0.0663 -0.0619 -0.0046
19851TIP3    H180968   1.056   0.812  12.792  0.7956  1.1207  0.3295
19851TIP3    H280969   1.124   0.684  12.836 -1.6733 -0.7588 -1.0404
19852TIP3   OH280970   6.535   0.641   3.572  0.3743  0.1683 -0.4193
19852TIP3    H180971   6.579   0.561   3.600  0.7286  0.6143  0.3311
19852TIP3    H280972   6.455   0.611   3.529  0.0211 -0.5717  0.7088
19853TIP3   OH280973   6.689   5.424   0.738 -0.4008 -0.0356  0.3551
19853TIP3    H180974   6.655   5.486   0.803  1.1430  1.3262 -0.0801
19853TIP3    H280975   6.630   5.348   0.745 -1.5263  0.9073  1.8610
19854TIP3   OH280976   4.903   3.068  16.643 -0.0947  0.1333 -0.3308
19854TIP3    H180977   4.909   3.124  16.721  1.4171  2.1490 -1.7803
19854TIP3    H280978   4.957   3.113  16.578  0.4190 -2.5984 -1.9098
19855TIP3   OH280979   0.834   0.379  12.693  0.4764 -0.2771  0.1821
19855TIP3    H180980   0.929   0.378  12.689  0.5164  0.5915  0.7229
19855TIP3    H280981   0.806   0.320  12.622  1.3745  1.1032 -1.3646
19856TIP3   OH280982   0.370   2.925   1.440 -0.4886  0.3345 -0.2279
19856TIP3    H180983   0.371   3.020   1.448 -1.8567  0.5755 -2.2961
19856TIP3    H280984   0.304   2.896   1.502  0.7548  0.5640  1.2838
19857TIP3   OH280985   2.620   2.791   0.144  0.0023 -0.1546 -0.0695
19857TIP3    H180986   2.580   2.875   0.121 -2.0965 -0.9212  0.5573
19857TIP3    H280987   2.596   2.777   0.235  0.3598 -1.4247 -0.1502
19858TIP3   OH280988   4.882   0.479   2.189  0.3224 -0.2756 -0.0452
19858TIP3    H180989   4.811   0.491   2.126 -0.0379 -0.7808  0.2538
19858TIP3    H280990   4.872   0.552   2.251 -0.5833 -0.9069  0.5878
19859TIP3   OH280991   2.214   6.433   5.556 -0.2236  0.2759 -0.3498
19859TIP3    H180992   2.308   6.422   5.544  0.5298  3.2594  1.9074
19859TIP3    H280993   2.179   6.431   5.467  2.1019  0.2205 -1.3417
19860TIP3   OH280994   2.645   4.436   2.597  0.0660 -0.4285 -0.4351
19860TIP3    H180995   2.641   4.498   2.670  1.2855 -2.5958  1.5955
19860TIP3    H280996   2.734   4.443   2.564 -0.7888  1.4263 -2.7154
19861TIP3   OH280997   4.365   0.809  16.853  0.5517  0.0558 -0.1456
19861TIP3    H180998   4.362   0.868  16.929 -1.0841 -0.3863  0.1768
19861TIP3    H280999   4.451   0.767  16.858  0.4063 -0.1149  1.5898
19862TIP3   OH281000   3.881   2.154   5.034 -0.0860  0.4933  0.3754
19862TIP3    H181001   3.823   2.093   4.989 -0.3402  0.0609  1.2617
19862TIP3    H281002   3.966   2.143   4.991 -0.2231 -0.2205  0.2716
19863TIP3   OH281003   2.757   6.749   0.843  0.4787  0.7659 -0.0369
19863TIP3    H181004   2.851   6.763   0.832  0.5106  1.0137  0.5048
19863TIP3    H281005   2.748   6.723   0.935  0.2781 -1.4614 -0.6216
19864TIP3   OH281006   4.174   0.499  15.316  0.1081 -0.2596  0.3093
19864TIP3    H181007   4.241   0.527  15.379 -0.7739  1.3630  0.5887
19864TIP3    H281008   4.194   0.549  15.237 -0.0731 -0.6662  0.0048
19865TIP3   OH281009   0.953   3.957   1.858 -0.3161  0.0897 -0.1547
19865TIP3    H181010   0.865   3.937   1.825 -0.1762  0.5124 -0.7759
19865TIP3    H281011   1.008   3.886   1.825 -0.4208 -0.1930  0.2615
19866TIP3   OH281012   5.098   1.512  15.523 -0.3278  0.7869 -0.2458
19866TIP3    H181013   5.039   1.570  15.570  0.8312  1.3198  0.6193
19866TIP3    H281014   5.175   1.505  15.580 -0.5678 -1.9200 -0.1350
19867TIP3   OH281015   3.607   0.023  16.674 -0.1056  0.3531 -0.1735
19867TIP3    H181016   3.671   0.076  16.626  0.6401 -0.8896 -0.6269
19867TIP3    H281017   3.606  -0.060  16.626 -1.2900 -0.0106  0.4628
19868TIP3   OH281018   0.717   0.031  15.916 -0.0992  0.8428 -0.3049
19868TIP3    H181019   0.756   0.039  15.828  0.3721 -3.2367 -0.6849
19868TIP3    H281020   0.624   0.014  15.900 -0.0121  0.0872 -0.0876
19869TIP3   OH281021   2.326   3.603   5.261 -0.4916  0.2243 -0.4742
19869TIP3    H181022   2.267   3.603   5.185 -1.6954  2.3037  0.3736
19869TIP3    H281023   2.411   3.629   5.225 -0.7533  0.0189 -1.2744
19870TIP3   OH281024   0.747   0.443   2.461  0.0352 -0.0390 -0.3481
19870TIP3    H181025   0.773   0.375   2.398  1.8216 -0.8270  1.1399
19870TIP3    H281026   0.742   0.397   2.544 -1.1548  1.2097  0.3129
19871TIP3   OH281027   6.580   0.171   0.593 -0.4853 -0.3398 -0.3242
19871TIP3    H181028   6.561   0.240   0.529 -1.1447 -1.4894 -1.4220
19871TIP3    H281029   6.536   0.094   0.558 -2.4659 -0.5990  2.4912
19872TIP3   OH281030   1.615   2.019   0.193 -0.3551 -0.2975 -0.0586
19872TIP3    H181031   1.637   1.993   0.282 -1.3950  0.5009  0.4597
19872TIP3    H281032   1.539   1.965   0.170 -1.8160  1.3371  0.6095
19873TIP3   OH281033   6.551   4.649   2.532 -0.1446  0.0223 -0.6141
19873TIP3    H181034   6.546   4.598   2.451  1.1441  1.7615 -1.8662
19873TIP3    H281035   6.460   4.659   2.559 -0.5800 -0.8108 -1.6869
19874TIP3   OH281036   0.007   0.212   5.924 -0.4314  0.1812 -0.2588
19874TIP3    H181037   0.034   0.301   5.949  0.9347 -0.2162 -0.2706
19874TIP3    H281038   0.056   0.155   5.983 -1.3548 -0.5749 -0.2022
19875TIP3   OH281039   1.944   6.358   5.106 -0.5034 -0.2551 -0.5478
19875TIP3    H181040   1.922   6.425   5.041 -0.3638  1.7807  1.3468
19875TIP3    H281041   1.927   6.401   5.190  0.3288 -2.3868  0.7899
19876TIP3   OH281042   3.233   6.417   6.142  0.5447 -0.0015 -0.0312
19876TIP3    H181043   3.294   6.438   6.212  3.1803  0.5386 -2.2937
19876TIP3    H281044   3.230   6.321   6.140 -0.0503 -0.0239  1.1541
19877TIP3   OH281045   4.627   0.535   5.787 -0.4289  0.1624  0.1782
19877TIP3    H181046   4.538   0.555   5.818 -0.8585 -0.5997 -0.4919
19877TIP3    H281047   4.634   0.440   5.797  0.2124  0.1883 -0.0254
19878TIP3   OH281048   3.173   6.096   6.158  0.3012  0.4215  0.1572
19878TIP3    H181049   3.249   6.059   6.113 -0.9095 -1.2724 -0.5567
19878TIP3    H281050   3.149   6.031   6.224 -0.8173  0.7008  0.0524
19879TIP3   OH281051   6.236   4.754   0.688 -0.1760 -0.1232 -0.2822
19879TIP3    H181052   6.227   4.780   0.596 -0.9203 -0.3491 -0.2792
19879TIP3    H281053   6.207   4.831   0.737 -0.0262 -0.0944 -0.2394
19880TIP3   OH281054   6.028   2.898  12.250  0.6647 -0.0239  0.2422
19880TIP3    H181055   5.938   2.901  12.217  1.2472 -0.2520 -1.4984
19880TIP3    H281056   6.041   2.982  12.294 -0.1931  0.2916 -0.0973
19881TIP3   OH281057   1.600   0.949  12.163 -0.3556  0.1457  0.7209
19881TIP3    H181058   1.620   1.040  12.184  0.9353  0.1420 -0.4083
19881TIP3    H281059   1.511   0.952  12.127 -0.3338  0.9539  0.7098
19882TIP3   OH281060   4.298   6.126  15.861  0.2171 -0.0900  0.1890
19882TIP3    H181061   4.275   6.033  15.871  0.5486 -0.1794  0.1224
19882TIP3    H281062   4.354   6.145  15.937  0.4672 -0.0468 -0.0065
19883TIP3   OH281063   2.760   6.730  13.563  0.3541 -0.1679  0.3661
19883TIP3    H181064   2.743   6.791  13.635  2.2445  0.2618  0.5180
19883TIP3    H281065   2.845   6.758  13.528 -0.0328 -1.0336 -1.3538
19884TIP3   OH281066   2.469   1.449  14.918  0.1647  0.3968  0.1794
19884TIP3    H181067   2.477   1.378  14.854 -0.0828 -0.7842  1.4104
19884TIP3    H281068   2.395   1.500  14.887  0.3919  0.1783 -0.7748
19885TIP3   OH281069   0.178   0.335   5.411  0.1485  0.3721 -0.6160
19885TIP3    H181070   0.262   0.296   5.387 -0.0728 -0.4321 -0.1448
19885TIP3    H281071   0.173   0.416   5.361  1.1811  0.3993 -0.6873
19886TIP3   OH281072   4.405   1.514   4.821 -0.4974 -0.5839 -0.5855
19886TIP3    H181073   4.500   1.511   4.809 -0.6702  0.2448 -2.4103
19886TIP3    H281074   4.393   1.539   4.913  1.0645  1.2537 -0.8244
19887TIP3   OH281075   5.121   0.720   6.900  0.0575 -0.5392  0.0271
19887TIP3    H181076   5.054   0.723   6.969  0.6875  3.5624  0.6941
19887TIP3    H281077   5.174   0.643   6.922 -3.3226 -3.0503  0.3716
19888TIP3   OH281078   1.132   4.210  13.658  0.2834  0.1049 -0.3460
19888TIP3    H181079   1.078   4.268  13.711 -1.1473 -0.4362 -1.1746
19888TIP3    H281080   1.070   4.157  13.608  1.5709 -0.8076 -1.0483
19889TIP3   OH281081   2.094   6.577   2.742  0.1505 -0.6609 -0.2695
19889TIP3    H181082   2.133   6.527   2.813 -0.5932 -0.3905  0.3435
19889TIP3    H281083   2.011   6.532   2.724 -1.5533  1.4294  1.6849
19890TIP3   OH281084   5.820   2.358  12.117  0.1675 -0.1954 -0.1358
19890TIP3    H181085   5.760   2.304  12.168  0.1142  0.9450  1.0564
19890TIP3    H281086   5.833   2.436  12.170  0.5329  0.8147 -1.6367
19891TIP3   OH281087   2.514   4.440  14.742  0.2117  0.3817 -0.5319
19891TIP3    H181088   2.418   4.433  14.746  0.2755 -0.3775 -0.1336
19891TIP3    H281089   2.534   4.522  14.785 -0.2015  0.0876  0.2380
19892TIP3   OH281090   2.896   0.844   6.434  0.1721 -0.0771  0.5407
19892TIP3    H181091   2.860   0.875   6.350 -0.9714 -0.1068  0.9960
19892TIP3    H281092   2.990   0.863   6.429  0.1588 -0.3166 -0.8478
19893TIP3   OH281093   3.390   0.297   1.029  0.0854  1.0541 -0.2109
19893TIP3    H181094   3.398   0.278   1.122  0.5311 -2.0814 -0.7796
19893TIP3    H281095   3.417   0.216   0.985  1.0870  2.8015 -3.1161
19894TIP3   OH281096   3.032   4.819  12.637  0.2183  0.2870 -0.0011
19894TIP3    H181097   3.106   4.760  12.653  0.7708  0.9468 -0.0449
19894TIP3    H281098   3.018   4.814  12.542  0.6322  0.6417 -0.0855
19895TIP3   OH281099   3.572   2.662  13.256  0.0067  0.2037  0.3662
19895TIP3    H181100   3.560   2.649  13.350  0.8434 -0.3204  0.4096
19895TIP3    H281101   3.580   2.756  13.246  0.1164  0.2498  0.8508
19896TIP3   OH281102   3.041   0.188   5.073  0.3154  0.0611 -0.8813
19896TIP3    H181103   3.095   0.218   4.999  0.5423  1.0125 -0.3481
19896TIP3    H281104   2.959   0.161   5.032  1.3321 -1.9433 -1.7767
19897TIP3   OH281105   3.682   5.725  16.715 -0.2400  0.1629  0.4252
19897TIP3    H181106   3.634   5.783  16.656 -0.3595 -0.8044 -0.4574
19897TIP3    H281107   3.766   5.712  16.672 -0.5915 -1.1189  0.1017
19898TIP3   OH281108   1.186   1.425  12.087  0.2304  0.5092 -0.1325
19898TIP3    H181109   1.137   1.383  12.017  1.0997  0.2563 -0.6088
19898TIP3    H281110   1.119   1.463  12.144 -0.4858  1.0634 -1.3011
19899TIP3   OH281111   6.355   4.003  14.564  0.0102  0.8268 -0.0099
19899TIP3    H181112   6.302   3.979  14.488  1.4230  0.6544 -0.9742
19899TIP3    H281113   6.431   4.048  14.527  0.4502  1.2377  1.3492
19900TIP3   OH281114   4.224   1.303  14.379  0.3547  0.0087 -0.1415
19900TIP3    H181115   4.160   1.270  14.317 -1.1530 -0.5929  1.6296
19900TIP3    H281116   4.233   1.396  14.359  1.9544 -0.6356 -2.9024
19901TIP3   OH281117   6.252   2.895   0.118 -0.3573  0.5081  0.4823
19901TIP3    H181118   6.310   2.856   0.184  0.1273  0.6065  0.1229
19901TIP3    H281119   6.180   2.932   0.168 -1.5792 -2.0310  0.7757
19902TIP3   OH281120   4.068   2.234   0.045  0.5814  0.2069  0.2524
19902TIP3    H181121   4.140   2.295   0.062  2.2344 -2.0530  2.0001
19902TIP3    H281122   3.990   2.284   0.069  1.9027  1.4718  2.3926
19903TIP3   OH281123   5.523   3.398   3.704 -0.0854  0.2373 -0.8408
19903TIP3    H181124   5.596   3.350   3.665  0.1479  0.4482 -0.6652
19903TIP3    H281125   5.462   3.411   3.632  0.1900  0.3288 -1.0617
19904TIP3   OH281126   6.570   6.715   6.676 -0.2116  0.0211  0.0581
19904TIP3    H181127   6.661   6.717   6.704 -0.4698 -0.0846  0.9152
19904TIP3    H281128   6.520   6.745   6.752 -0.8453  0.7394 -0.6126
19905TIP3   OH281129   0.001   5.456   5.184  0.1973 -0.2733  0.3398
19905TIP3    H181130  -0.053   5.487   5.111 -0.9060 -2.2034  0.2835
19905TIP3    H281131  -0.011   5.523   5.252  0.3719  0.9885 -0.8302
19906TIP3   OH281132   1.948   5.272   5.595 -0.5325  0.1127  0.8722
19906TIP3    H181133   1.956   5.329   5.518 -2.1174 -2.9249 -1.8373
19906TIP3    H281134   1.879   5.313   5.648  0.9763  2.5758  1.0893
19907TIP3   OH281135   4.145   1.014   3.920 -0.6841 -0.1042 -0.1871
19907TIP3    H181136   4.199   1.078   3.873  0.7233 -0.8130  0.4123
19907TIP3    H281137   4.175   0.929   3.888  0.8067 -0.6511  2.3927
19908TIP3   OH281138   4.406   5.437  11.242  0.0348  0.1691 -0.2130
19908TIP3    H181139   4.474   5.434  11.174  0.3404  1.6605 -0.0210
19908TIP3    H281140   4.334   5.485  11.201 -0.4067 -0.2899  0.0109
19909TIP3   OH281141   2.807   1.462   2.170  0.5727 -0.5649 -0.2076
19909TIP3    H181142   2.741   1.458   2.101  1.4016  1.1414 -1.1650
19909TIP3    H281143   2.889   1.436   2.127  1.1190  0.6364  0.0377
19910TIP3   OH281144   3.212   2.873   0.229  0.9804 -0.0928  0.1476
19910TIP3    H181145   3.198   2.923   0.309  1.0896  1.2448 -0.6245
19910TIP3    H281146   3.124   2.845   0.203  0.8075  0.3940  0.1831
19911TIP3   OH281147   3.787   0.434  13.244  0.1287 -0.8374 -0.3780
19911TIP3    H181148   3.854   0.494  13.213  0.3348 -0.9945 -0.2464
19911TIP3    H281149   3.795   0.357  13.187  0.3980 -1.0588 -0.0519
19912TIP3   OH281150   0.563   5.549  12.014  0.6703 -0.1062  0.0363
19912TIP3    H181151   0.497   5.547  11.946  0.1675  0.3134  0.4961
19912TIP3    H281152   0.514   5.540  12.096  1.0949  0.8258  0.4226
19913TIP3   OH281153   1.293   5.956   5.734  0.5431  0.5464 -0.1273
19913TIP3    H181154   1.324   6.039   5.698  0.2778  0.7421  0.0856
19913TIP3    H281155   1.353   5.937   5.807 -0.2149  1.2610  0.7051
19914TIP3   OH281156   1.253   2.474  12.202  0.1284  0.0997  0.1514
19914TIP3    H181157   1.246   2.431  12.117  0.6601  0.4352 -0.0705
19914TIP3    H281158   1.200   2.421  12.261 -0.5431  0.0663 -0.4665
19915TIP3   OH281159   5.846   1.206  17.144 -0.1449  0.1880  0.6175
19915TIP3    H181160   5.811   1.118  17.131 -2.0355  1.1662 -1.5460
19915TIP3    H281161   5.871   1.209  17.237  0.7335 -2.8329  0.5745
19916TIP3   OH281162   3.599   2.903   3.805 -0.0149 -0.6364 -0.2645
19916TIP3    H181163   3.541   2.828   3.800 -1.0799  0.1941 -0.9360
19916TIP3    H281164   3.576   2.956   3.728  2.1827 -0.6521 -1.0226
19917TIP3   OH281165   2.894   5.809   6.072 -0.7600 -0.0644  0.4718
19917TIP3    H181166   2.868   5.854   6.152  0.1388  1.3948 -0.0153
19917TIP3    H281167   2.811   5.780   6.033 -1.3851  1.1832  0.8192
19918TIP3   OH281168   1.492   5.872  14.173  0.1838 -0.7300 -0.6084
19918TIP3    H181169   1.457   5.962  14.175  0.5854 -0.4362 -3.1253
19918TIP3    H281170   1.426   5.820  14.218 -0.9240  0.5823 -0.6241
19919TIP3   OH281171   3.577   2.313  13.083  0.0044  0.3937  0.5414
19919TIP3    H181172   3.538   2.391  13.122 -0.5039  0.6053 -0.3531
19919TIP3    H281173   3.622   2.346  13.005 -0.4416 -0.2404  0.0060
19920TIP3   OH281174   5.504   4.988  13.824  0.2175 -0.1796  0.4126
19920TIP3    H181175   5.585   5.031  13.851  0.3478 -0.5717  0.6557
19920TIP3    H281176   5.477   4.937  13.901 -0.6399  0.4970  0.5800
19921TIP3   OH281177   5.008   2.340   4.509 -0.1985 -0.1960 -0.4216
19921TIP3    H181178   5.100   2.358   4.491 -0.2354  1.4510  0.8332
19921TIP3    H281179   4.970   2.323   4.422  1.1618 -0.3997 -1.0092
19922TIP3   OH281180   6.213   6.698  15.296 -0.2861 -0.0458  0.0785
19922TIP3    H181181   6.300   6.691  15.256  0.2635 -2.4200  1.4530
19922TIP3    H281182   6.230   6.728  15.386 -1.2061  2.1746 -0.4214
19923TIP3   OH281183   2.729   1.960  12.660 -1.1637 -0.4772 -0.2382
19923TIP3    H181184   2.662   1.995  12.601 -1.5843  1.7502  1.4186
19923TIP3    H281185   2.809   2.007  12.637 -1.4102  0.6849  1.0853
19924TIP3   OH281186   0.554   2.405   3.860 -0.6842  0.4765 -0.4814
19924TIP3    H181187   0.542   2.420   3.766  0.4290  1.7250 -0.4545
19924TIP3    H281188   0.469   2.424   3.898 -0.7318  1.5704 -1.0834
19925TIP3   OH281189   0.282   0.911  13.365  0.0386 -0.1050 -0.3435
19925TIP3    H181190   0.274   1.000  13.329  0.4714 -0.7086 -2.0589
19925TIP3    H281191   0.344   0.920  13.437 -1.4717  1.3125  0.8695
19926TIP3   OH281192   0.607   0.811   1.670 -0.0598 -0.0542 -0.0211
19926TIP3    H181193   0.530   0.841   1.718 -0.2049 -2.2938  1.2763
19926TIP3    H281194   0.681   0.834   1.726  0.2148  1.5467 -0.9835
19927TIP3   OH281195   2.989   3.544   3.099  0.2140 -0.5584  0.0506
19927TIP3    H181196   2.904   3.509   3.126  0.2356  0.2603  1.2449
19927TIP3    H281197   2.968   3.628   3.057  0.4926  0.0927  1.1921
19928TIP3   OH281198   0.779   3.152   1.222  0.0117  0.5452  0.3808
19928TIP3    H181199   0.694   3.150   1.178  1.5115  1.2192 -2.8181
19928TIP3    H281200   0.814   3.239   1.203  1.6148  0.1294  1.2226
19929TIP3   OH281201   1.065   2.718   4.839 -0.2104 -0.4118  0.3553
19929TIP3    H181202   1.105   2.790   4.888  1.3901  0.0209 -1.4906
19929TIP3    H281203   0.979   2.751   4.813 -1.3711 -0.8392  3.1850
19930TIP3   OH281204   1.006   0.231   2.885 -0.0545  0.8744 -0.4998
19930TIP3    H181205   1.011   0.171   2.960 -0.3896 -1.0158 -1.9362
19930TIP3    H281206   1.078   0.293   2.900  0.4679 -0.0208  0.9147
19931TIP3   OH281207   0.942   5.072  14.190 -0.0914 -0.3796  0.4888
19931TIP3    H181208   0.891   4.994  14.171  0.1039 -0.8041  1.6426
19931TIP3    H281209   0.952   5.116  14.105 -0.1942 -1.5990 -0.1650
19932TIP3   OH281210   1.139   3.809  12.717 -0.3261  0.8023  0.0872
19932TIP3    H181211   1.175   3.739  12.772 -3.0611  0.5502  1.7216
19932TIP3    H281212   1.183   3.797  12.633  1.1524 -1.2796  1.0393
19933TIP3   OH281213   5.590   6.067  11.864  0.4603  0.2603 -0.0663
19933TIP3    H181214   5.526   6.075  11.794  0.5190 -0.1534 -0.1744
19933TIP3    H281215   5.595   6.154  11.903 -1.2058 -0.0346  0.8533
19934TIP3   OH281216   1.296   5.693   1.780  0.2419 -0.0028 -0.1443
19934TIP3    H181217   1.341   5.768   1.818  0.9845  0.3452 -1.6256
19934TIP3    H281218   1.279   5.718   1.689 -0.7431 -1.0987 -0.2962
19935TIP3   OH281219   4.487   4.365  11.351 -0.1581  0.4522  0.0189
19935TIP3    H181220   4.562   4.411  11.387 -0.7450  1.0408  0.5199
19935TIP3    H281221   4.426   4.434  11.325 -1.5293 -0.0125  1.7878
19936TIP3   OH281222   5.803   6.297   5.746  0.5241  0.1780  0.5504
19936TIP3    H181223   5.814   6.347   5.827 -0.0559  1.8640 -0.3510
19936TIP3    H281224   5.711   6.269   5.748  0.8333 -0.8531  1.0274
19937TIP3   OH281225   4.878   5.763   3.435 -0.1669  0.1059  0.7899
19937TIP3    H181226   4.891   5.752   3.341 -2.2964  0.8778  0.3376
19937TIP3    H281227   4.951   5.818   3.463  1.4381 -1.5276 -0.0427
19938TIP3   OH281228   6.575   4.883   4.897  0.2441  0.2508 -0.3313
19938TIP3    H181229   6.532   4.897   4.981  2.4684 -0.7539  1.0870
19938TIP3    H281230   6.650   4.942   4.899  0.3732  0.1377 -1.5753
19939TIP3   OH281231   4.913   5.669  15.859  0.4576 -0.8741 -0.5861
19939TIP3    H181232   4.940   5.710  15.941  0.2472 -0.5741 -0.6673
19939TIP3    H281233   4.838   5.615  15.883  1.9455 -2.8701 -0.0598
19940TIP3   OH281234   0.799   2.688  11.783  0.1808  0.3104 -0.3454
19940TIP3    H181235   0.817   2.755  11.849  2.1371 -1.3550  0.9146
19940TIP3    H281236   0.843   2.720  11.704 -1.0786  1.6860 -0.5449
19941TIP3   OH281237   3.579   0.959   2.448 -0.1922  0.0293  0.1196
19941TIP3    H181238   3.619   1.035   2.406 -0.2363 -0.6061 -1.1265
19941TIP3    H281239   3.653   0.907   2.478 -0.0532 -0.6831 -1.3476
19942TIP3   OH281240   2.605   6.144   3.378 -0.4426 -0.5611 -0.5339
19942TIP3    H181241   2.613   6.129   3.284  1.1428  0.6579 -0.6484
19942TIP3    H281242   2.695   6.163   3.406 -1.3849  3.4703  0.4085
19943TIP3   OH281243   3.364   4.698   4.493  0.4532 -0.8701 -0.2583
19943TIP3    H181244   3.445   4.740   4.523  1.4851 -2.9063 -0.0246
19943TIP3    H281245   3.321   4.670   4.574 -0.3610 -0.0799 -0.3989
19944TIP3   OH281246   0.028   2.288  11.439  1.0818 -0.0028 -0.1862
19944TIP3    H181247   0.035   2.305  11.345 -1.4303  1.6220 -0.1947
19944TIP3    H281248   0.083   2.355  11.479 -0.5349  1.6154 -0.5063
19945TIP3   OH281249   4.562   5.337  16.594  0.3524 -0.3199 -0.5423
19945TIP3    H181250   4.528   5.316  16.507 -1.5673 -1.1568  0.3609
19945TIP3    H281251   4.655   5.312  16.590  0.6027  0.7227 -2.6652
19946TIP3   OH281252   3.618   5.844  11.848 -0.3043  0.0656  0.2764
19946TIP3    H181253   3.668   5.876  11.923 -0.7704  1.3385  0.0679
19946TIP3    H281254   3.528   5.836  11.880 -0.8587  2.2993 -0.5656
19947TIP3   OH281255   0.566   6.755  11.140 -0.2873 -0.4469 -0.2682
19947TIP3    H181256   0.585   6.748  11.047  0.3072  0.0873 -0.1996
19947TIP3    H281257   0.530   6.843  11.151  0.8453 -0.0166  0.1797
19948TIP3   OH281258   6.676   1.897   0.937  0.2437  0.2979  0.2321
19948TIP3    H181259   6.729   1.819   0.922  0.0202 -0.5153  3.0685
19948TIP3    H281260   6.670   1.940   0.852  1.9070 -1.8077 -1.0148
19949TIP3   OH281261   2.534   0.800  14.065  0.1239  0.1435  0.0828
19949TIP3    H181262   2.513   0.845  14.147 -1.6605 -1.0192  0.3109
19949TIP3    H281263   2.620   0.760  14.082  0.3820  1.0003  0.8989
19950TIP3   OH281264   6.359   3.133   3.210 -0.3692  0.1592  0.0168
19950TIP3    H181265   6.268   3.110   3.228  0.5196 -4.6356 -0.2335
19950TIP3    H281266   6.363   3.141   3.114 -0.3864 -0.7136 -0.0664
19951TIP3   OH281267   1.609   4.567  12.500  0.1242  0.3053  0.3841
19951TIP3    H181268   1.552   4.605  12.433  0.0553  0.4490  0.5252
19951TIP3    H281269   1.557   4.568  12.580  0.4899  0.8878  0.6265
19952TIP3   OH281270   3.952   6.580  16.390  0.0807  0.0678  0.4105
19952TIP3    H181271   3.962   6.614  16.479  0.2652  1.0778  0.0127
19952TIP3    H281272   3.885   6.636  16.351  1.1798  0.7153 -0.6105
19953TIP3   OH281273   0.625   0.337  13.891 -0.4704 -0.1562  0.4049
19953TIP3    H181274   0.602   0.424  13.859 -0.3133 -0.4273 -0.4603
19953TIP3    H281275   0.642   0.350  13.985  0.9492  1.0243  0.0183
19954TIP3   OH281276   2.552   2.945  16.381  1.0106  0.5213  0.4002
19954TIP3    H181277   2.525   2.860  16.349  0.4032  0.4852  0.9901
19954TIP3    H281278   2.471   2.989  16.405  1.4378  0.4833  2.0292
19955TIP3   OH281279   3.348   2.937  10.543  0.2141  0.0258  0.5535
19955TIP3    H181280   3.407   2.863  10.525 -0.6934 -0.6433  0.2657
19955TIP3    H281281   3.405   3.004  10.580  1.3608 -0.1964 -0.7251
19956TIP3   OH281282   6.444   0.039   0.376  0.2668 -0.5890  0.1339
19956TIP3    H181283   6.349   0.025   0.372  0.5363 -2.4216 -1.1560
19956TIP3    H281284   6.455   0.133   0.369 -1.4338 -0.3874 -0.2414
19957TIP3   OH281285   6.653   0.995   6.182  0.2465 -0.0372 -0.1943
19957TIP3    H181286   6.700   0.984   6.265  0.5198  1.0706 -0.1782
19957TIP3    H281287   6.706   0.947   6.118  1.0411  0.6115 -0.0460
19958TIP3   OH281288   5.063   0.151  11.439  0.1486  0.3491  0.1835
19958TIP3    H181289   5.062   0.099  11.520  3.0318 -1.0493 -0.5663
19958TIP3    H281290   5.062   0.087  11.369  0.8835  1.4315 -0.8427
19959TIP3   OH281291   5.321   4.310  13.562  0.3275  0.2350  0.8813
19959TIP3    H181292   5.285   4.267  13.485 -1.1132  0.9971  1.0811
19959TIP3    H281293   5.373   4.383  13.527  1.3322 -0.5958  0.5995
19960TIP3   OH281294   2.974   4.351  15.775 -0.1946 -0.2419 -0.3518
19960TIP3    H181295   3.036   4.309  15.835 -0.0477  0.7234  0.1887
19960TIP3    H281296   3.029   4.396  15.711 -0.2581  1.7480  0.9047
19961TIP3   OH281297   6.331   0.503  13.392 -0.4467 -0.0453 -0.6729
19961TIP3    H181298   6.353   0.421  13.347  1.0243  1.0724 -2.1141
19961TIP3    H281299   6.405   0.561  13.373 -2.9225  2.7795 -2.6111
19962TIP3   OH281300   3.824   6.472  12.573 -0.4532  0.3618  0.2886
19962TIP3    H181301   3.868   6.391  12.600  0.6473  0.9288  0.2576
19962TIP3    H281302   3.895   6.528  12.541 -1.3430  0.9073 -0.7904
19963TIP3   OH281303   5.042   2.145  14.895  0.0564  0.2497 -0.2028
19963TIP3    H181304   5.065   2.110  14.981  1.1188  1.9852  0.2741
19963TIP3    H281305   5.093   2.094  14.833  1.4896  0.8106  0.4594
19964TIP3   OH281306   3.789   6.464  13.119  0.5468  0.3261  0.6398
19964TIP3    H181307   3.838   6.469  13.037  0.5855  1.4052  0.7139
19964TIP3    H281308   3.857   6.456  13.186  0.4935 -1.4877  0.5401
19965TIP3   OH281309   0.826   4.206  16.663 -0.2468 -0.1827 -0.7165
19965TIP3    H181310   0.809   4.281  16.721  0.7565 -0.6035  0.1533
19965TIP3    H281311   0.812   4.240  16.575 -0.3488  0.8765 -0.3099
19966TIP3   OH281312   1.428   4.524  11.384 -0.2576 -0.1753  0.2852
19966TIP3    H181313   1.361   4.477  11.433  1.2158 -1.5484  1.0854
19966TIP3    H281314   1.488   4.557  11.452  1.2459 -1.1840 -0.5031
19967TIP3   OH281315   4.242   5.069   2.655 -0.3086  0.3766  0.4657
19967TIP3    H181316   4.205   4.981   2.648 -1.5086  0.8895 -0.0500
19967TIP3    H281317   4.304   5.064   2.728  3.0363 -1.9975 -2.2330
19968TIP3   OH281318   1.637   1.950  12.548  0.4555 -0.2467 -0.1233
19968TIP3    H181319   1.549   1.920  12.572  0.6615 -1.7187 -1.0567
19968TIP3    H281320   1.631   2.046  12.550 -1.1405 -0.3156 -0.0612
19969TIP3   OH281321   6.035   2.317  11.513 -0.2075 -0.0654  0.1993
19969TIP3    H181322   5.971   2.380  11.479 -1.1135 -1.0597  0.0138
19969TIP3    H281323   6.114   2.332  11.461 -0.7992  0.0944 -0.6792
19970TIP3   OH281324   1.359   2.062   0.687  0.0325  0.0300  0.2917
19970TIP3    H181325   1.388   2.129   0.750  0.1645 -2.0400  2.5812
19970TIP3    H281326   1.440   2.026   0.652 -0.0029  0.1219  0.1151
19971TIP3   OH281327   3.448   2.279  16.155  0.0013  0.5989 -0.5747
19971TIP3    H181328   3.356   2.302  16.173  0.4918  2.3665 -0.0910
19971TIP3    H281329   3.498   2.353  16.190  1.6042 -0.2045 -1.0830
19972TIP3   OH281330   2.178   6.614   3.780  0.6433  0.7034 -0.3653
19972TIP3    H181331   2.090   6.648   3.764  0.3455  1.5910  2.4996
19972TIP3    H281332   2.214   6.597   3.693 -2.3236  0.3382 -1.6279
19973TIP3   OH281333   0.767   6.282   3.591 -0.1326  0.1077 -0.9190
19973TIP3    H181334   0.860   6.259   3.599  0.3075  1.8669 -0.5577
19973TIP3    H281335   0.721   6.214   3.640  0.7522 -1.9810 -2.8134
19974LIG     O181336   4.966   5.534   4.709 -0.5859  0.2990 -0.3723
19974LIG     O281337   5.404   5.498   4.857 -0.0176  0.1234 -0.1102
19974LIG     N181338   5.355   5.418   4.642  0.3863 -0.6879  0.4488
19974LIG     N281339   5.057   5.425   4.449 -0.2135  0.8797  0.1937
19974LIG     N381340   5.188   5.519   4.778  0.1213 -0.2125  0.2862
19974LIG     N481341   5.267   5.356   4.407  0.0318  0.2293 -0.4993
19974LIG     C181342   5.128   5.447   4.565 -0.1322 -0.2016  0.0314
19974LIG     C281343   5.256   5.401   4.543 -0.1671 -0.0079 -0.4956
19974LIG     C381344   5.085   5.503   4.683 -0.0726 -0.6839  0.1714
19974LIG     C481345   5.321   5.480   4.762 -0.1248  0.5622  0.1558
19974LIG     C581346   5.151   5.365   4.360  0.4607 -0.4257  0.2166
19974LIG     C681347   5.490   5.386   4.614 -0.4079 -0.1434 -0.2168
19974LIG     C781348   4.918   5.458   4.413 -0.6713 -0.5315  0.0349
19974LIG     C881349   5.145   5.576   4.904 -0.4695  0.0287 -0.9601
19974LIG     H181350   5.133   5.339   4.256  0.8594  3.7144 -1.0658
19974LIG     H281351   5.551   5.479   4.611  0.4824 -0.7077  0.0112
19974LIG     H381352   5.507   5.338   4.515  1.0891  0.0971 -0.1014
19974LIG     H481353   5.521   5.306   4.684 -0.6319  0.5757  0.7320
19974LIG     H581354   4.874   5.374   4.356 -1.5349  1.8534 -3.0872
19974LIG     H681355   4.909   5.552   4.354  1.9958 -0.1138  0.1413
19974LIG     H781356   4.858   5.484   4.503  0.1921 -0.4206  0.5918
19974LIG     H881357   5.229   5.598   4.974 -0.9992  0.0942 -0.3351
19974LIG     H981358   5.066   5.522   4.960 -0.4014  0.4501 -0.4440
19974LIG    H1081359   5.109   5.680   4.892 -0.3656  0.3486  1.0821
   6.79372   6.79372  17.23459
